
    -----------------------------------------------------------------------
          Psi4: An Open-Source Ab Initio Electronic Structure Package
                               Psi4 1.8.2 release

                         Git: Rev {} zzzzzzz 


    D. G. A. Smith, L. A. Burns, A. C. Simmonett, R. M. Parrish,
    M. C. Schieber, R. Galvelis, P. Kraus, H. Kruse, R. Di Remigio,
    A. Alenaizan, A. M. James, S. Lehtola, J. P. Misiewicz, M. Scheurer,
    R. A. Shaw, J. B. Schriber, Y. Xie, Z. L. Glick, D. A. Sirianni,
    J. S. O'Brien, J. M. Waldrop, A. Kumar, E. G. Hohenstein,
    B. P. Pritchard, B. R. Brooks, H. F. Schaefer III, A. Yu. Sokolov,
    K. Patkowski, A. E. DePrince III, U. Bozkaya, R. A. King,
    F. A. Evangelista, J. M. Turney, T. D. Crawford, C. D. Sherrill,
    J. Chem. Phys. 152(18) 184108 (2020). https://doi.org/10.1063/5.0006002

                            Additional Code Authors
    E. T. Seidl, C. L. Janssen, E. F. Valeev, M. L. Leininger,
    J. F. Gonthier, R. M. Richard, H. R. McAlexander, M. Saitow, X. Wang,
    P. Verma, M. H. Lechner, A. Jiang, S. Behnle, A. G. Heide,
    M. F. Herbst, and D. L. Poole

             Previous Authors, Complete List of Code Contributors,
                       and Citations for Specific Modules
    https://github.com/psi4/psi4/blob/master/codemeta.json
    https://github.com/psi4/psi4/graphs/contributors
    http://psicode.org/psi4manual/master/introduction.html#citing-psifour

    -----------------------------------------------------------------------


    Psi4 started on: Monday, 22 January 2024 05:20PM

    Process ID: 83577
    Host:       ddmfs1
    PSIDATADIR: /ddmfs1b/softs/psi4conda/share/psi4
    Memory:     500.0 MiB
    Threads:    20
    
  ==> Input File <==

--------------------------------------------------------------------------
MEMORY 60 GB

molecule dimer {
0 1
Gh(F)      0.000000     0.000000     0.000000
Gh(O)      1.051129     1.096357     2.694346
Gh(H)      0.619287     1.901551     2.882839
Gh(H)      0.909597     0.954000     1.767452
O          1.736119     1.777929    -1.101982
H          1.243908     1.941691    -1.896130
H          1.299520     1.022179    -0.669957
Gh(O)     -0.450907    -2.751484    -0.302061
Gh(H)     -0.441612    -3.080057     0.625078
Gh(H)     -0.079139    -1.885185    -0.236471
Gh(O)     -1.073336    -0.475456    -2.416481
Gh(H)     -1.819131     0.195421    -2.500612
Gh(H)     -0.639424    -0.295340    -1.571394
Gh(O)     -1.530930     2.318994    -0.767106
Gh(H)     -0.855521     1.628887    -0.576701
Gh(H)     -1.755147     2.231506    -1.684517
Gh(O)     -1.347398    -0.607075     2.261043
Gh(H)     -0.798765    -0.276198     1.560294
Gh(H)     -0.935135    -1.323906     2.841048

units ang
no_reorient
no_com
symmetry c1
}

set {
basis        aug-cc-pVTZ
scf_type     df
}

energy("mp2")
--------------------------------------------------------------------------

  Memory set to  55.879 GiB by Python driver.

Scratch directory: /ddmfs1a/scratch/
   => Libint2 <=

    Primary   basis highest AM E, G, H:  5, 4, 3
    Auxiliary basis highest AM E, G, H:  6, 5, 4
    Onebody   basis highest AM E, G, H:  6, 5, 4
    Solid Harmonics ordering:            gaussian

*** tstart() called on ddmfs1
*** at Mon Jan 22 17:20:34 2024

   => Loading Basis Set <=

    Name: AUG-CC-PVTZ
    Role: ORBITAL
    Keyword: BASIS
    atoms 1                                   entry F          line   377 file /ddmfs1b/softs/psi4conda/share/psi4/basis/aug-cc-pvtz.gbs 
    atoms 2, 5, 8, 11, 14, 17                 entry O          line   331 file /ddmfs1b/softs/psi4conda/share/psi4/basis/aug-cc-pvtz.gbs 
    atoms 3-4, 6-7, 9-10, 12-13, 15-16, 18-19 entry H          line    40 file /ddmfs1b/softs/psi4conda/share/psi4/basis/aug-cc-pvtz.gbs 


         ---------------------------------------------------------
                                   SCF
               by Justin Turney, Rob Parrish, Andy Simmonett
                          and Daniel G. A. Smith
                              RHF Reference
                       20 Threads,  57220 MiB Core
         ---------------------------------------------------------

  ==> Geometry <==

    Molecular point group: c1
    Full point group: C1

    Geometry (in Angstrom), charge = 0, multiplicity = 1:

       Center              X                  Y                   Z               Mass       
    ------------   -----------------  -----------------  -----------------  -----------------
      Gh(F)           0.000000000000     0.000000000000     0.000000000000    18.998403162730
      Gh(O)           1.051129000000     1.096357000000     2.694346000000    15.994914619570
      Gh(H)           0.619287000000     1.901551000000     2.882839000000     1.007825032230
      Gh(H)           0.909597000000     0.954000000000     1.767452000000     1.007825032230
         O            1.736119000000     1.777929000000    -1.101982000000    15.994914619570
         H            1.243908000000     1.941691000000    -1.896130000000     1.007825032230
         H            1.299520000000     1.022179000000    -0.669957000000     1.007825032230
      Gh(O)          -0.450907000000    -2.751484000000    -0.302061000000    15.994914619570
      Gh(H)          -0.441612000000    -3.080057000000     0.625078000000     1.007825032230
      Gh(H)          -0.079139000000    -1.885185000000    -0.236471000000     1.007825032230
      Gh(O)          -1.073336000000    -0.475456000000    -2.416481000000    15.994914619570
      Gh(H)          -1.819131000000     0.195421000000    -2.500612000000     1.007825032230
      Gh(H)          -0.639424000000    -0.295340000000    -1.571394000000     1.007825032230
      Gh(O)          -1.530930000000     2.318994000000    -0.767106000000    15.994914619570
      Gh(H)          -0.855521000000     1.628887000000    -0.576701000000     1.007825032230
      Gh(H)          -1.755147000000     2.231506000000    -1.684517000000     1.007825032230
      Gh(O)          -1.347398000000    -0.607075000000     2.261043000000    15.994914619570
      Gh(H)          -0.798765000000    -0.276198000000     1.560294000000     1.007825032230
      Gh(H)          -0.935135000000    -1.323906000000     2.841048000000     1.007825032230

  Running in c1 symmetry.

  Rotational constants: A =      0.03506  B =      0.03306  C =      0.02399 [cm^-1]
  Rotational constants: A =   1051.08473  B =    991.09378  C =    719.19930 [MHz]
  Nuclear repulsion =    9.155056679652315

  Charge       = 0
  Multiplicity = 1
  Electrons    = 10
  Nalpha       = 5
  Nbeta        = 5

  ==> Algorithm <==

  SCF Algorithm Type is DF.
  DIIS enabled.
  MOM disabled.
  Fractional occupation disabled.
  Guess Type is SAD.
  Energy threshold   = 1.00e-08
  Density threshold  = 1.00e-08
  Integral threshold = 1.00e-12

  ==> Primary Basis <==

  Basis Set: AUG-CC-PVTZ
    Blend: AUG-CC-PVTZ
    Number of shells: 206
    Number of basis functions: 598
    Number of Cartesian functions: 685
    Spherical Harmonics?: true
    Max angular momentum: 3

   => Loading Basis Set <=

    Name: (AUG-CC-PVTZ AUX)
    Role: JKFIT
    Keyword: DF_BASIS_SCF
    atoms 1                                   entry F          line   348 file /ddmfs1b/softs/psi4conda/share/psi4/basis/aug-cc-pvtz-jkfit.gbs 
    atoms 2, 5, 8, 11, 14, 17                 entry O          line   286 file /ddmfs1b/softs/psi4conda/share/psi4/basis/aug-cc-pvtz-jkfit.gbs 
    atoms 3-4, 6-7, 9-10, 12-13, 15-16, 18-19 entry H          line    70 file /ddmfs1b/softs/psi4conda/share/psi4/basis/aug-cc-pvtz-jkfit.gbs 

  ==> Integral Setup <==

  DFHelper Memory: AOs need 3.189 GiB; user supplied 41.910 GiB. 
  Using in-core AOs.

  ==> MemDFJK: Density-Fitted J/K Matrices <==

    J tasked:                   Yes
    K tasked:                   Yes
    wK tasked:                   No
    OpenMP threads:              20
    Memory [MiB]:             42915
    Algorithm:                 Core
    Schwarz Cutoff:           1E-12
    Mask sparsity (%):      10.5133
    Fitting Condition:        1E-10

   => Auxiliary Basis Set <=

  Basis Set: (AUG-CC-PVTZ AUX)
    Blend: AUG-CC-PVTZ-JKFIT
    Number of shells: 378
    Number of basis functions: 1280
    Number of Cartesian functions: 1577
    Spherical Harmonics?: true
    Max angular momentum: 4

  Minimum eigenvalue in the overlap matrix is 3.9181838208E-05.
  Reciprocal condition number of the overlap matrix is 2.4496302199E-06.
    Using symmetric orthogonalization.

  ==> Pre-Iterations <==

  SCF Guess: Superposition of Atomic Densities via on-the-fly atomic UHF (no occupation information).

   -------------------------
    Irrep   Nso     Nmo    
   -------------------------
     A        598     598 
   -------------------------
    Total     598     598
   -------------------------

  ==> Iterations <==

                           Total Energy        Delta E     RMS |[F,P]|

   @DF-RHF iter SAD:   -75.47197963439477   -7.54720e+01   0.00000e+00 
   @DF-RHF iter   1:   -75.97579683165878   -5.03817e-01   7.83510e-04 ADIIS/DIIS
   @DF-RHF iter   2:   -76.02824447798494   -5.24476e-02   5.34461e-04 ADIIS/DIIS
   @DF-RHF iter   3:   -76.05973570194519   -3.14912e-02   3.63613e-05 DIIS
   @DF-RHF iter   4:   -76.06013027782183   -3.94576e-04   8.74607e-06 DIIS
   @DF-RHF iter   5:   -76.06015515380062   -2.48760e-05   1.99056e-06 DIIS
   @DF-RHF iter   6:   -76.06015720632374   -2.05252e-06   4.40361e-07 DIIS
   @DF-RHF iter   7:   -76.06015731728829   -1.10965e-07   8.08896e-08 DIIS
   @DF-RHF iter   8:   -76.06015732058518   -3.29689e-09   1.35457e-08 DIIS
   @DF-RHF iter   9:   -76.06015732065879   -7.36122e-11   3.39117e-09 DIIS
  Energy and wave function converged.


  ==> Post-Iterations <==

    Orbital Energies [Eh]
    ---------------------

    Doubly Occupied:                                                      

       1A    -20.567129     2A     -1.350663     3A     -0.718123  
       4A     -0.581467     5A     -0.509615  

    Virtual:                                                              

       6A      0.015055     7A      0.030625     8A      0.035861  
       9A      0.044108    10A      0.053470    11A      0.055963  
      12A      0.060115    13A      0.062400    14A      0.074731  
      15A      0.081858    16A      0.088483    17A      0.092963  
      18A      0.104055    19A      0.116350    20A      0.123161  
      21A      0.134843    22A      0.143405    23A      0.146928  
      24A      0.150853    25A      0.153822    26A      0.159454  
      27A      0.166231    28A      0.174579    29A      0.175556  
      30A      0.182576    31A      0.190682    32A      0.196924  
      33A      0.199072    34A      0.204582    35A      0.210623  
      36A      0.216379    37A      0.230419    38A      0.230979  
      39A      0.236965    40A      0.243593    41A      0.250986  
      42A      0.255156    43A      0.263843    44A      0.276901  
      45A      0.281157    46A      0.288557    47A      0.292246  
      48A      0.297776    49A      0.312056    50A      0.319441  
      51A      0.330487    52A      0.337427    53A      0.340720  
      54A      0.350066    55A      0.351272    56A      0.355984  
      57A      0.358658    58A      0.365279    59A      0.376526  
      60A      0.381833    61A      0.386606    62A      0.392542  
      63A      0.394876    64A      0.399127    65A      0.411748  
      66A      0.414375    67A      0.419283    68A      0.422144  
      69A      0.427381    70A      0.431601    71A      0.442293  
      72A      0.454675    73A      0.460104    74A      0.468002  
      75A      0.471061    76A      0.483461    77A      0.496841  
      78A      0.500976    79A      0.503281    80A      0.511112  
      81A      0.517221    82A      0.528101    83A      0.533964  
      84A      0.539824    85A      0.549514    86A      0.558583  
      87A      0.577076    88A      0.582325    89A      0.605235  
      90A      0.618473    91A      0.624013    92A      0.626786  
      93A      0.663304    94A      0.673775    95A      0.692089  
      96A      0.697997    97A      0.706716    98A      0.718286  
      99A      0.729603   100A      0.742859   101A      0.743726  
     102A      0.748551   103A      0.751308   104A      0.760800  
     105A      0.767791   106A      0.773232   107A      0.783083  
     108A      0.785110   109A      0.793693   110A      0.804089  
     111A      0.807085   112A      0.822800   113A      0.829030  
     114A      0.832017   115A      0.842167   116A      0.845092  
     117A      0.848052   118A      0.860097   119A      0.863880  
     120A      0.869999   121A      0.877572   122A      0.881116  
     123A      0.886790   124A      0.893245   125A      0.900392  
     126A      0.906460   127A      0.909371   128A      0.912278  
     129A      0.923349   130A      0.928649   131A      0.930461  
     132A      0.938945   133A      0.944338   134A      0.952628  
     135A      0.959725   136A      0.965243   137A      0.969709  
     138A      0.973171   139A      0.980443   140A      0.982365  
     141A      0.990738   142A      0.994018   143A      0.996200  
     144A      1.009335   145A      1.022686   146A      1.030724  
     147A      1.037363   148A      1.043865   149A      1.051316  
     150A      1.056414   151A      1.067303   152A      1.073171  
     153A      1.074587   154A      1.077773   155A      1.086165  
     156A      1.104707   157A      1.106363   158A      1.110659  
     159A      1.119978   160A      1.122947   161A      1.133286  
     162A      1.137025   163A      1.146252   164A      1.156389  
     165A      1.161655   166A      1.172893   167A      1.178646  
     168A      1.188116   169A      1.195119   170A      1.196677  
     171A      1.208782   172A      1.239297   173A      1.248718  
     174A      1.255420   175A      1.257416   176A      1.265857  
     177A      1.278146   178A      1.290376   179A      1.299054  
     180A      1.311447   181A      1.312136   182A      1.330861  
     183A      1.343674   184A      1.352279   185A      1.352735  
     186A      1.361353   187A      1.369440   188A      1.377096  
     189A      1.388072   190A      1.398888   191A      1.402924  
     192A      1.410575   193A      1.418476   194A      1.432751  
     195A      1.448719   196A      1.451402   197A      1.465072  
     198A      1.480939   199A      1.493079   200A      1.502818  
     201A      1.518226   202A      1.534164   203A      1.551130  
     204A      1.560220   205A      1.567397   206A      1.574413  
     207A      1.583947   208A      1.594662   209A      1.608373  
     210A      1.617172   211A      1.628646   212A      1.652028  
     213A      1.654034   214A      1.670720   215A      1.675978  
     216A      1.693477   217A      1.698168   218A      1.711719  
     219A      1.723822   220A      1.745172   221A      1.761369  
     222A      1.768620   223A      1.778322   224A      1.780587  
     225A      1.793563   226A      1.795957   227A      1.811933  
     228A      1.813945   229A      1.828683   230A      1.839933  
     231A      1.846247   232A      1.852654   233A      1.867629  
     234A      1.868632   235A      1.885516   236A      1.900276  
     237A      1.908707   238A      1.918022   239A      1.930536  
     240A      1.947138   241A      1.958226   242A      1.972570  
     243A      1.985699   244A      1.994338   245A      1.997819  
     246A      2.004087   247A      2.020892   248A      2.030179  
     249A      2.044093   250A      2.077286   251A      2.086410  
     252A      2.093476   253A      2.125479   254A      2.130859  
     255A      2.143800   256A      2.158818   257A      2.162165  
     258A      2.210008   259A      2.247578   260A      2.265725  
     261A      2.298583   262A      2.329092   263A      2.357670  
     264A      2.416434   265A      2.449884   266A      2.473526  
     267A      2.483077   268A      2.487532   269A      2.510609  
     270A      2.515817   271A      2.542710   272A      2.546222  
     273A      2.549910   274A      2.560774   275A      2.578930  
     276A      2.589260   277A      2.594521   278A      2.602355  
     279A      2.624497   280A      2.632096   281A      2.638286  
     282A      2.648760   283A      2.661717   284A      2.669933  
     285A      2.676335   286A      2.692067   287A      2.694854  
     288A      2.703306   289A      2.704623   290A      2.717550  
     291A      2.724275   292A      2.752495   293A      2.767387  
     294A      2.769732   295A      2.776324   296A      2.789456  
     297A      2.799696   298A      2.815195   299A      2.824942  
     300A      2.830264   301A      2.857237   302A      2.862960  
     303A      2.871549   304A      2.900402   305A      2.909288  
     306A      2.915763   307A      2.938687   308A      2.950104  
     309A      2.959408   310A      2.969998   311A      2.986527  
     312A      2.994053   313A      3.001856   314A      3.012785  
     315A      3.035315   316A      3.050938   317A      3.059906  
     318A      3.068687   319A      3.098744   320A      3.112168  
     321A      3.158016   322A      3.186001   323A      3.211414  
     324A      3.220883   325A      3.232371   326A      3.235438  
     327A      3.250910   328A      3.254961   329A      3.270639  
     330A      3.286491   331A      3.301367   332A      3.307706  
     333A      3.341549   334A      3.361800   335A      3.364135  
     336A      3.395884   337A      3.419046   338A      3.422223  
     339A      3.433263   340A      3.471263   341A      3.493485  
     342A      3.499431   343A      3.532155   344A      3.564845  
     345A      3.597031   346A      3.600290   347A      3.624702  
     348A      3.625912   349A      3.656562   350A      3.659742  
     351A      3.701248   352A      3.717734   353A      3.728695  
     354A      3.742652   355A      3.763136   356A      3.766504  
     357A      3.789805   358A      3.833006   359A      3.854488  
     360A      3.881471   361A      3.905370   362A      3.933980  
     363A      3.959622   364A      4.032084   365A      4.074593  
     366A      4.167772   367A      4.173242   368A      4.200763  
     369A      4.218687   370A      4.243011   371A      4.268486  
     372A      4.327770   373A      4.343240   374A      4.370026  
     375A      4.397976   376A      4.422933   377A      4.428834  
     378A      4.449945   379A      4.468351   380A      4.471695  
     381A      4.477701   382A      4.481831   383A      4.503970  
     384A      4.509886   385A      4.534573   386A      4.538711  
     387A      4.545701   388A      4.555173   389A      4.580744  
     390A      4.601971   391A      4.621529   392A      4.627146  
     393A      4.636639   394A      4.653241   395A      4.666304  
     396A      4.678300   397A      4.685468   398A      4.693883  
     399A      4.705706   400A      4.719172   401A      4.730001  
     402A      4.735098   403A      4.746631   404A      4.764472  
     405A      4.785474   406A      4.803508   407A      4.840691  
     408A      4.861176   409A      4.896397   410A      4.919701  
     411A      4.923490   412A      4.941879   413A      4.966846  
     414A      4.975873   415A      4.992168   416A      5.008058  
     417A      5.021633   418A      5.032186   419A      5.051247  
     420A      5.075171   421A      5.086015   422A      5.089346  
     423A      5.123509   424A      5.133535   425A      5.139692  
     426A      5.162901   427A      5.186006   428A      5.205129  
     429A      5.232478   430A      5.254836   431A      5.285582  
     432A      5.300536   433A      5.310376   434A      5.353081  
     435A      5.384704   436A      5.422229   437A      5.435976  
     438A      5.457521   439A      5.498401   440A      5.515735  
     441A      5.534631   442A      5.547232   443A      5.551408  
     444A      5.593867   445A      5.597359   446A      5.642842  
     447A      5.652395   448A      5.659694   449A      5.691736  
     450A      5.727097   451A      5.732023   452A      5.758395  
     453A      5.771386   454A      5.795049   455A      5.820962  
     456A      5.886517   457A      5.913067   458A      5.918146  
     459A      5.956438   460A      6.004795   461A      6.033208  
     462A      6.196124   463A      6.204955   464A      6.241297  
     465A      6.308225   466A      6.328493   467A      6.395510  
     468A      6.430956   469A      6.465011   470A      6.524118  
     471A      6.551404   472A      6.580165   473A      6.603386  
     474A      6.659425   475A      6.705282   476A      6.778971  
     477A      6.830293   478A      6.877258   479A      6.897765  
     480A      6.991374   481A      7.098824   482A      7.139350  
     483A      7.160443   484A      7.204083   485A      7.236452  
     486A      7.275986   487A      7.359514   488A      7.414533  
     489A      7.455687   490A      7.483480   491A      7.548521  
     492A      7.712154   493A      7.746615   494A      7.771192  
     495A      7.801618   496A      7.814629   497A      7.817108  
     498A      7.838124   499A      7.873025   500A      7.881786  
     501A      7.909431   502A      7.913342   503A      8.000022  
     504A      8.058017   505A      8.094234   506A      8.129505  
     507A      8.145270   508A      8.175492   509A      8.204699  
     510A      8.221765   511A      8.281819   512A      8.306493  
     513A      8.322691   514A      8.327680   515A      8.333374  
     516A      8.351693   517A      8.360851   518A      8.397526  
     519A      8.411888   520A      8.703048   521A      8.736545  
     522A      8.827102   523A      8.851110   524A      8.891888  
     525A      8.947920   526A      9.010612   527A      9.055946  
     528A      9.089263   529A      9.140205   530A      9.190622  
     531A      9.721177   532A      9.797129   533A      9.809291  
     534A      9.834684   535A      9.864825   536A      9.906712  
     537A      9.910807   538A      9.937635   539A      9.949143  
     540A      9.972426   541A     10.102656   542A     10.147449  
     543A     10.159614   544A     10.191388   545A     10.198250  
     546A     10.261601   547A     10.296963   548A     10.313767  
     549A     10.347070   550A     10.427024   551A     10.478070  
     552A     10.553965   553A     10.583289   554A     10.659937  
     555A     10.701901   556A     10.797865   557A     10.890776  
     558A     11.004701   559A     11.080882   560A     11.218317  
     561A     11.248851   562A     11.381761   563A     11.682142  
     564A     11.879187   565A     11.916857   566A     11.932481  
     567A     11.965662   568A     12.004411   569A     12.292391  
     570A     12.340445   571A     12.387175   572A     12.441765  
     573A     12.914306   574A     13.320361   575A     13.370624  
     576A     13.405492   577A     13.515782   578A     13.602387  
     579A     13.677168   580A     13.705342   581A     13.741629  
     582A     13.774247   583A     13.812024   584A     14.027634  
     585A     14.042028   586A     14.077091   587A     14.136774  
     588A     14.158465   589A     15.141365   590A     15.511637  
     591A     15.534318   592A     17.161606   593A     66.383820  
     594A     66.873023   595A     67.307655   596A     67.407104  
     597A     68.225876   598A     76.304768  

    Final Occupation by Irrep:
              A 
    DOCC [     5 ]
    NA   [     5 ]
    NB   [     5 ]

  @DF-RHF Final Energy:   -76.06015732065879

   => Energetics <=

    Nuclear Repulsion Energy =              9.1550566796523150
    One-Electron Energy =                -122.9764310751886995
    Two-Electron Energy =                  37.7612170748775853
    Total Energy =                        -76.0601573206587886

Computation Completed


Properties will be evaluated at   0.000000,   0.000000,   0.000000 [a0]

Properties computed using the SCF density matrix


 Multipole Moments:

 ------------------------------------------------------------------------------------
     Multipole            Electronic (a.u.)      Nuclear  (a.u.)        Total (a.u.)
 ------------------------------------------------------------------------------------

 L = 1.  Multiply by 2.5417464519 to convert [e a0] to [Debye]
 Dipole X            :        -31.6715663           31.0526978           -0.6188685
 Dipole Y            :        -32.8714236           32.4792936           -0.3921300
 Dipole Z            :         21.2642684          -21.5087550           -0.2444866
 Magnitude           :                                                    0.7723587

 ------------------------------------------------------------------------------------

*** tstop() called on ddmfs1 at Mon Jan 22 17:20:42 2024
Module time:
	user time   =     127.78 seconds =       2.13 minutes
	system time =       5.57 seconds =       0.09 minutes
	total time  =          8 seconds =       0.13 minutes
Total time:
	user time   =     127.78 seconds =       2.13 minutes
	system time =       5.57 seconds =       0.09 minutes
	total time  =          8 seconds =       0.13 minutes

*** tstart() called on ddmfs1
*** at Mon Jan 22 17:20:42 2024


  //>>>>>>>>>>>>>>>>>>>>>>>>>>>>>>>>>>>//
  //               DFMP2               //
  //<<<<<<<<<<<<<<<<<<<<<<<<<<<<<<<<<<<//

   => Loading Basis Set <=

    Name: (AUG-CC-PVTZ AUX)
    Role: RIFIT
    Keyword: DF_BASIS_MP2
    atoms 1                                   entry F          line   322 file /ddmfs1b/softs/psi4conda/share/psi4/basis/aug-cc-pvtz-ri.gbs 
    atoms 2, 5, 8, 11, 14, 17                 entry O          line   264 file /ddmfs1b/softs/psi4conda/share/psi4/basis/aug-cc-pvtz-ri.gbs 
    atoms 3-4, 6-7, 9-10, 12-13, 15-16, 18-19 entry H          line    30 file /ddmfs1b/softs/psi4conda/share/psi4/basis/aug-cc-pvtz-ri.gbs 

	 --------------------------------------------------------
	                          DF-MP2                         
	      2nd-Order Density-Fitted Moller-Plesset Theory     
	              RMP2 Wavefunction,  20 Threads             
	                                                         
	        Rob Parrish, Justin Turney, Andy Simmonett,      
	           Ed Hohenstein, and C. David Sherrill          
	 --------------------------------------------------------

   => Auxiliary Basis Set <=

  Basis Set: (AUG-CC-PVTZ AUX)
    Blend: AUG-CC-PVTZ-RI
    Number of shells: 364
    Number of basis functions: 1294
    Number of Cartesian functions: 1612
    Spherical Harmonics?: true
    Max angular momentum: 4

	 --------------------------------------------------------
	                 NBF =   598, NAUX =  1294
	 --------------------------------------------------------
	   CLASS    FOCC     OCC    AOCC    AVIR     VIR    FVIR
	   PAIRS       0       5       5     593     593       0
	 --------------------------------------------------------

	-----------------------------------------------------------
	 ==================> DF-MP2 Energies <==================== 
	-----------------------------------------------------------
	 Reference Energy          =     -76.0601573206587886 [Eh]
	 Singles Energy            =      -0.0000000000000000 [Eh]
	 Same-Spin Energy          =      -0.0684718344525508 [Eh]
	 Opposite-Spin Energy      =      -0.2163753389260572 [Eh]
	 Correlation Energy        =      -0.2848471733786080 [Eh]
	 Total Energy              =     -76.3450044940373971 [Eh]
	-----------------------------------------------------------
	 ================> DF-SCS-MP2 Energies <================== 
	-----------------------------------------------------------
	 SCS Same-Spin Scale       =       0.3333333333333333 [-]
	 SCS Opposite-Spin Scale   =       1.2000000000000000 [-]
	 SCS Same-Spin Energy      =      -0.0228239448175169 [Eh]
	 SCS Opposite-Spin Energy  =      -0.2596504067112686 [Eh]
	 SCS Correlation Energy    =      -0.2824743515287855 [Eh]
	 SCS Total Energy          =     -76.3426316721875793 [Eh]
	-----------------------------------------------------------


*** tstop() called on ddmfs1 at Mon Jan 22 17:20:47 2024
Module time:
	user time   =      32.83 seconds =       0.55 minutes
	system time =       1.85 seconds =       0.03 minutes
	total time  =          5 seconds =       0.08 minutes
Total time:
	user time   =     160.63 seconds =       2.68 minutes
	system time =       7.42 seconds =       0.12 minutes
	total time  =         13 seconds =       0.22 minutes

    Psi4 stopped on: Monday, 22 January 2024 05:20PM
    Psi4 wall time for execution: 0:00:13.33

*** Psi4 exiting successfully. Buy a developer a beer!
