
    -----------------------------------------------------------------------
          Psi4: An Open-Source Ab Initio Electronic Structure Package
                               Psi4 1.8.2 release

                         Git: Rev {} zzzzzzz 


    D. G. A. Smith, L. A. Burns, A. C. Simmonett, R. M. Parrish,
    M. C. Schieber, R. Galvelis, P. Kraus, H. Kruse, R. Di Remigio,
    A. Alenaizan, A. M. James, S. Lehtola, J. P. Misiewicz, M. Scheurer,
    R. A. Shaw, J. B. Schriber, Y. Xie, Z. L. Glick, D. A. Sirianni,
    J. S. O'Brien, J. M. Waldrop, A. Kumar, E. G. Hohenstein,
    B. P. Pritchard, B. R. Brooks, H. F. Schaefer III, A. Yu. Sokolov,
    K. Patkowski, A. E. DePrince III, U. Bozkaya, R. A. King,
    F. A. Evangelista, J. M. Turney, T. D. Crawford, C. D. Sherrill,
    J. Chem. Phys. 152(18) 184108 (2020). https://doi.org/10.1063/5.0006002

                            Additional Code Authors
    E. T. Seidl, C. L. Janssen, E. F. Valeev, M. L. Leininger,
    J. F. Gonthier, R. M. Richard, H. R. McAlexander, M. Saitow, X. Wang,
    P. Verma, M. H. Lechner, A. Jiang, S. Behnle, A. G. Heide,
    M. F. Herbst, and D. L. Poole

             Previous Authors, Complete List of Code Contributors,
                       and Citations for Specific Modules
    https://github.com/psi4/psi4/blob/master/codemeta.json
    https://github.com/psi4/psi4/graphs/contributors
    http://psicode.org/psi4manual/master/introduction.html#citing-psifour

    -----------------------------------------------------------------------


    Psi4 started on: Monday, 22 January 2024 05:31PM

    Process ID: 84840
    Host:       ddmfs1
    PSIDATADIR: /ddmfs1b/softs/psi4conda/share/psi4
    Memory:     500.0 MiB
    Threads:    20
    
  ==> Input File <==

--------------------------------------------------------------------------
MEMORY 60 GB

molecule dimer {
0 1
Gh(F)      0.000000     0.000000     0.000000
Gh(O)      2.087812    -2.235654    -0.550394
Gh(H)      2.423601    -2.899671    -1.150602
Gh(H)      2.190875    -1.369155    -0.929071
O          0.415489    -2.119119     2.070246
H          0.482112    -2.996680     1.655893
H          0.091966    -1.548601     1.375700
Gh(O)     -0.730006     1.647225     1.930793
Gh(H)     -0.321923     1.147844     1.188363
Gh(H)     -1.196312     2.375028     1.563056
Gh(O)      2.361343     1.061093     0.316103
Gh(H)      2.099324     1.707318     0.957043
Gh(H)      1.582739     0.514063     0.417266
Gh(O)      0.150347     2.501610    -1.052386
Gh(H)      0.710848     3.031242    -0.538799
Gh(H)      0.364562     1.585555    -0.826675
Gh(O)     -1.585915    -0.182921    -2.257821
Gh(H)     -0.843561    -0.199899    -1.588493
Gh(H)     -2.094702    -1.043463    -2.099459

units ang
no_reorient
no_com
symmetry c1
}

set {
basis        aug-cc-pVTZ
scf_type     df
}

energy("mp2")
--------------------------------------------------------------------------

  Memory set to  55.879 GiB by Python driver.

Scratch directory: /ddmfs1a/scratch/
   => Libint2 <=

    Primary   basis highest AM E, G, H:  5, 4, 3
    Auxiliary basis highest AM E, G, H:  6, 5, 4
    Onebody   basis highest AM E, G, H:  6, 5, 4
    Solid Harmonics ordering:            gaussian

*** tstart() called on ddmfs1
*** at Mon Jan 22 17:31:19 2024

   => Loading Basis Set <=

    Name: AUG-CC-PVTZ
    Role: ORBITAL
    Keyword: BASIS
    atoms 1                                   entry F          line   377 file /ddmfs1b/softs/psi4conda/share/psi4/basis/aug-cc-pvtz.gbs 
    atoms 2, 5, 8, 11, 14, 17                 entry O          line   331 file /ddmfs1b/softs/psi4conda/share/psi4/basis/aug-cc-pvtz.gbs 
    atoms 3-4, 6-7, 9-10, 12-13, 15-16, 18-19 entry H          line    40 file /ddmfs1b/softs/psi4conda/share/psi4/basis/aug-cc-pvtz.gbs 


         ---------------------------------------------------------
                                   SCF
               by Justin Turney, Rob Parrish, Andy Simmonett
                          and Daniel G. A. Smith
                              RHF Reference
                       20 Threads,  57220 MiB Core
         ---------------------------------------------------------

  ==> Geometry <==

    Molecular point group: c1
    Full point group: C1

    Geometry (in Angstrom), charge = 0, multiplicity = 1:

       Center              X                  Y                   Z               Mass       
    ------------   -----------------  -----------------  -----------------  -----------------
      Gh(F)           0.000000000000     0.000000000000     0.000000000000    18.998403162730
      Gh(O)           2.087812000000    -2.235654000000    -0.550394000000    15.994914619570
      Gh(H)           2.423601000000    -2.899671000000    -1.150602000000     1.007825032230
      Gh(H)           2.190875000000    -1.369155000000    -0.929071000000     1.007825032230
         O            0.415489000000    -2.119119000000     2.070246000000    15.994914619570
         H            0.482112000000    -2.996680000000     1.655893000000     1.007825032230
         H            0.091966000000    -1.548601000000     1.375700000000     1.007825032230
      Gh(O)          -0.730006000000     1.647225000000     1.930793000000    15.994914619570
      Gh(H)          -0.321923000000     1.147844000000     1.188363000000     1.007825032230
      Gh(H)          -1.196312000000     2.375028000000     1.563056000000     1.007825032230
      Gh(O)           2.361343000000     1.061093000000     0.316103000000    15.994914619570
      Gh(H)           2.099324000000     1.707318000000     0.957043000000     1.007825032230
      Gh(H)           1.582739000000     0.514063000000     0.417266000000     1.007825032230
      Gh(O)           0.150347000000     2.501610000000    -1.052386000000    15.994914619570
      Gh(H)           0.710848000000     3.031242000000    -0.538799000000     1.007825032230
      Gh(H)           0.364562000000     1.585555000000    -0.826675000000     1.007825032230
      Gh(O)          -1.585915000000    -0.182921000000    -2.257821000000    15.994914619570
      Gh(H)          -0.843561000000    -0.199899000000    -1.588493000000     1.007825032230
      Gh(H)          -2.094702000000    -1.043463000000    -2.099459000000     1.007825032230

  Running in c1 symmetry.

  Rotational constants: A =      0.03728  B =      0.02853  C =      0.02577 [cm^-1]
  Rotational constants: A =   1117.77202  B =    855.24692  C =    772.62770 [MHz]
  Nuclear repulsion =    9.130482933777571

  Charge       = 0
  Multiplicity = 1
  Electrons    = 10
  Nalpha       = 5
  Nbeta        = 5

  ==> Algorithm <==

  SCF Algorithm Type is DF.
  DIIS enabled.
  MOM disabled.
  Fractional occupation disabled.
  Guess Type is SAD.
  Energy threshold   = 1.00e-08
  Density threshold  = 1.00e-08
  Integral threshold = 1.00e-12

  ==> Primary Basis <==

  Basis Set: AUG-CC-PVTZ
    Blend: AUG-CC-PVTZ
    Number of shells: 206
    Number of basis functions: 598
    Number of Cartesian functions: 685
    Spherical Harmonics?: true
    Max angular momentum: 3

   => Loading Basis Set <=

    Name: (AUG-CC-PVTZ AUX)
    Role: JKFIT
    Keyword: DF_BASIS_SCF
    atoms 1                                   entry F          line   348 file /ddmfs1b/softs/psi4conda/share/psi4/basis/aug-cc-pvtz-jkfit.gbs 
    atoms 2, 5, 8, 11, 14, 17                 entry O          line   286 file /ddmfs1b/softs/psi4conda/share/psi4/basis/aug-cc-pvtz-jkfit.gbs 
    atoms 3-4, 6-7, 9-10, 12-13, 15-16, 18-19 entry H          line    70 file /ddmfs1b/softs/psi4conda/share/psi4/basis/aug-cc-pvtz-jkfit.gbs 

  ==> Integral Setup <==

  DFHelper Memory: AOs need 3.183 GiB; user supplied 41.910 GiB. 
  Using in-core AOs.

  ==> MemDFJK: Density-Fitted J/K Matrices <==

    J tasked:                   Yes
    K tasked:                   Yes
    wK tasked:                   No
    OpenMP threads:              20
    Memory [MiB]:             42915
    Algorithm:                 Core
    Schwarz Cutoff:           1E-12
    Mask sparsity (%):      10.6878
    Fitting Condition:        1E-10

   => Auxiliary Basis Set <=

  Basis Set: (AUG-CC-PVTZ AUX)
    Blend: AUG-CC-PVTZ-JKFIT
    Number of shells: 378
    Number of basis functions: 1280
    Number of Cartesian functions: 1577
    Spherical Harmonics?: true
    Max angular momentum: 4

  Minimum eigenvalue in the overlap matrix is 3.6716929542E-05.
  Reciprocal condition number of the overlap matrix is 2.2900044799E-06.
    Using symmetric orthogonalization.

  ==> Pre-Iterations <==

  SCF Guess: Superposition of Atomic Densities via on-the-fly atomic UHF (no occupation information).

   -------------------------
    Irrep   Nso     Nmo    
   -------------------------
     A        598     598 
   -------------------------
    Total     598     598
   -------------------------

  ==> Iterations <==

                           Total Energy        Delta E     RMS |[F,P]|

   @DF-RHF iter SAD:   -75.47006057527888   -7.54701e+01   0.00000e+00 
   @DF-RHF iter   1:   -75.97545786212640   -5.05397e-01   7.82927e-04 ADIIS/DIIS
   @DF-RHF iter   2:   -76.02782283992869   -5.23650e-02   5.36356e-04 ADIIS/DIIS
   @DF-RHF iter   3:   -76.05959904687481   -3.17762e-02   3.64854e-05 DIIS
   @DF-RHF iter   4:   -76.05999566623001   -3.96619e-04   8.82248e-06 DIIS
   @DF-RHF iter   5:   -76.06002103913902   -2.53729e-05   2.01474e-06 DIIS
   @DF-RHF iter   6:   -76.06002313702135   -2.09788e-06   4.43289e-07 DIIS
   @DF-RHF iter   7:   -76.06002324868145   -1.11660e-07   8.01245e-08 DIIS
   @DF-RHF iter   8:   -76.06002325187890   -3.19746e-09   1.34677e-08 DIIS
   @DF-RHF iter   9:   -76.06002325195055   -7.16511e-11   3.35866e-09 DIIS
  Energy and wave function converged.


  ==> Post-Iterations <==

    Orbital Energies [Eh]
    ---------------------

    Doubly Occupied:                                                      

       1A    -20.568229     2A     -1.350049     3A     -0.714284  
       4A     -0.583350     5A     -0.509754  

    Virtual:                                                              

       6A      0.014878     7A      0.029934     8A      0.035900  
       9A      0.041788    10A      0.052248    11A      0.053742  
      12A      0.058589    13A      0.075662    14A      0.077168  
      15A      0.083656    16A      0.087079    17A      0.101580  
      18A      0.105487    19A      0.114854    20A      0.125566  
      21A      0.135613    22A      0.140083    23A      0.142836  
      24A      0.148500    25A      0.155948    26A      0.159676  
      27A      0.163025    28A      0.169022    29A      0.170222  
      30A      0.182792    31A      0.191465    32A      0.194813  
      33A      0.201249    34A      0.203644    35A      0.208544  
      36A      0.210818    37A      0.229546    38A      0.234870  
      39A      0.242550    40A      0.250773    41A      0.254106  
      42A      0.262763    43A      0.269287    44A      0.275743  
      45A      0.282387    46A      0.292533    47A      0.296322  
      48A      0.308003    49A      0.314785    50A      0.324062  
      51A      0.330880    52A      0.338447    53A      0.343408  
      54A      0.345824    55A      0.353559    56A      0.358810  
      57A      0.363786    58A      0.373416    59A      0.376258  
      60A      0.381872    61A      0.388846    62A      0.390468  
      63A      0.395923    64A      0.398971    65A      0.406718  
      66A      0.408134    67A      0.416794    68A      0.424637  
      69A      0.428308    70A      0.431565    71A      0.437525  
      72A      0.456627    73A      0.458141    74A      0.462122  
      75A      0.468549    76A      0.480113    77A      0.484384  
      78A      0.490973    79A      0.495233    80A      0.502543  
      81A      0.512735    82A      0.519044    83A      0.532008  
      84A      0.541985    85A      0.545256    86A      0.555579  
      87A      0.575862    88A      0.581719    89A      0.603936  
      90A      0.610184    91A      0.622517    92A      0.642521  
      93A      0.661554    94A      0.670633    95A      0.693378  
      96A      0.695799    97A      0.707882    98A      0.712067  
      99A      0.719148   100A      0.729761   101A      0.735276  
     102A      0.742134   103A      0.749509   104A      0.751204  
     105A      0.760130   106A      0.768097   107A      0.779312  
     108A      0.783736   109A      0.788697   110A      0.802746  
     111A      0.810992   112A      0.817034   113A      0.821805  
     114A      0.822881   115A      0.837165   116A      0.842902  
     117A      0.853767   118A      0.860915   119A      0.867340  
     120A      0.872033   121A      0.878017   122A      0.879976  
     123A      0.882255   124A      0.894333   125A      0.901719  
     126A      0.905046   127A      0.906379   128A      0.913453  
     129A      0.917434   130A      0.928055   131A      0.933443  
     132A      0.940903   133A      0.947661   134A      0.952623  
     135A      0.960359   136A      0.965995   137A      0.974969  
     138A      0.980912   139A      0.984091   140A      0.994753  
     141A      0.997930   142A      1.006940   143A      1.010332  
     144A      1.012520   145A      1.017798   146A      1.021310  
     147A      1.026712   148A      1.032473   149A      1.047652  
     150A      1.050279   151A      1.052992   152A      1.060720  
     153A      1.064936   154A      1.075383   155A      1.078258  
     156A      1.086457   157A      1.091647   158A      1.096850  
     159A      1.105883   160A      1.117523   161A      1.126450  
     162A      1.142508   163A      1.148825   164A      1.155472  
     165A      1.160773   166A      1.165730   167A      1.176620  
     168A      1.185602   169A      1.191865   170A      1.202582  
     171A      1.212798   172A      1.215936   173A      1.233874  
     174A      1.234919   175A      1.247872   176A      1.255243  
     177A      1.261629   178A      1.276360   179A      1.280382  
     180A      1.290824   181A      1.297970   182A      1.310662  
     183A      1.318347   184A      1.321040   185A      1.326509  
     186A      1.341342   187A      1.345327   188A      1.361294  
     189A      1.368372   190A      1.382177   191A      1.391781  
     192A      1.395546   193A      1.407952   194A      1.431515  
     195A      1.447959   196A      1.456901   197A      1.471588  
     198A      1.493039   199A      1.504312   200A      1.512058  
     201A      1.514433   202A      1.534483   203A      1.545706  
     204A      1.556910   205A      1.577356   206A      1.580529  
     207A      1.594516   208A      1.610621   209A      1.612310  
     210A      1.625776   211A      1.630359   212A      1.636370  
     213A      1.649953   214A      1.651903   215A      1.685227  
     216A      1.692600   217A      1.711048   218A      1.715653  
     219A      1.725203   220A      1.738897   221A      1.762710  
     222A      1.769473   223A      1.771386   224A      1.786728  
     225A      1.790317   226A      1.798642   227A      1.804150  
     228A      1.819266   229A      1.829279   230A      1.838734  
     231A      1.857742   232A      1.864463   233A      1.870057  
     234A      1.878049   235A      1.892862   236A      1.898653  
     237A      1.911180   238A      1.920164   239A      1.932876  
     240A      1.938828   241A      1.946979   242A      1.971772  
     243A      1.978028   244A      1.984533   245A      1.989142  
     246A      1.998856   247A      2.014088   248A      2.033265  
     249A      2.038468   250A      2.046847   251A      2.060171  
     252A      2.066012   253A      2.089569   254A      2.113145  
     255A      2.119656   256A      2.184210   257A      2.203194  
     258A      2.221688   259A      2.241574   260A      2.285968  
     261A      2.308975   262A      2.348083   263A      2.400083  
     264A      2.403509   265A      2.420689   266A      2.445414  
     267A      2.455563   268A      2.461968   269A      2.481112  
     270A      2.505667   271A      2.514349   272A      2.518966  
     273A      2.536606   274A      2.547633   275A      2.549669  
     276A      2.559417   277A      2.573278   278A      2.579059  
     279A      2.588540   280A      2.589513   281A      2.599055  
     282A      2.621267   283A      2.632647   284A      2.655656  
     285A      2.661226   286A      2.677231   287A      2.682207  
     288A      2.696301   289A      2.701851   290A      2.714787  
     291A      2.732543   292A      2.740290   293A      2.751750  
     294A      2.753586   295A      2.762762   296A      2.770541  
     297A      2.785112   298A      2.798514   299A      2.806404  
     300A      2.827940   301A      2.832380   302A      2.834736  
     303A      2.858860   304A      2.876695   305A      2.882683  
     306A      2.900326   307A      2.912955   308A      2.932469  
     309A      2.941360   310A      2.949203   311A      2.961047  
     312A      2.991265   313A      3.002856   314A      3.015348  
     315A      3.030467   316A      3.055746   317A      3.082372  
     318A      3.091993   319A      3.125324   320A      3.143092  
     321A      3.165762   322A      3.176942   323A      3.215180  
     324A      3.228377   325A      3.236810   326A      3.249377  
     327A      3.273366   328A      3.277908   329A      3.293479  
     330A      3.295837   331A      3.304962   332A      3.333017  
     333A      3.338332   334A      3.351730   335A      3.369675  
     336A      3.397292   337A      3.408715   338A      3.423121  
     339A      3.472201   340A      3.492516   341A      3.503642  
     342A      3.534925   343A      3.538441   344A      3.560545  
     345A      3.575346   346A      3.595186   347A      3.607657  
     348A      3.623773   349A      3.640276   350A      3.670374  
     351A      3.676415   352A      3.705809   353A      3.744137  
     354A      3.753269   355A      3.760592   356A      3.772291  
     357A      3.781952   358A      3.804964   359A      3.828656  
     360A      3.863057   361A      3.883238   362A      3.890564  
     363A      3.905398   364A      4.022834   365A      4.096344  
     366A      4.107793   367A      4.134863   368A      4.164835  
     369A      4.170694   370A      4.239302   371A      4.259357  
     372A      4.292036   373A      4.308659   374A      4.318026  
     375A      4.376957   376A      4.389747   377A      4.407793  
     378A      4.411053   379A      4.428623   380A      4.435878  
     381A      4.452263   382A      4.458425   383A      4.485548  
     384A      4.503056   385A      4.511236   386A      4.535848  
     387A      4.546451   388A      4.551810   389A      4.562406  
     390A      4.576819   391A      4.583423   392A      4.603713  
     393A      4.614701   394A      4.626686   395A      4.647729  
     396A      4.654683   397A      4.705806   398A      4.712505  
     399A      4.720511   400A      4.733209   401A      4.752432  
     402A      4.760982   403A      4.784584   404A      4.799284  
     405A      4.810962   406A      4.831040   407A      4.837245  
     408A      4.866691   409A      4.882609   410A      4.924216  
     411A      4.933701   412A      4.946352   413A      4.968590  
     414A      4.975133   415A      4.981875   416A      5.001656  
     417A      5.006063   418A      5.035643   419A      5.048264  
     420A      5.067475   421A      5.092534   422A      5.107656  
     423A      5.118770   424A      5.142765   425A      5.165748  
     426A      5.185142   427A      5.201206   428A      5.206049  
     429A      5.246552   430A      5.283430   431A      5.320012  
     432A      5.325761   433A      5.360880   434A      5.380938  
     435A      5.387533   436A      5.415658   437A      5.432699  
     438A      5.439739   439A      5.476955   440A      5.513127  
     441A      5.556048   442A      5.583671   443A      5.597529  
     444A      5.618448   445A      5.630515   446A      5.657384  
     447A      5.690928   448A      5.713456   449A      5.729935  
     450A      5.744098   451A      5.764801   452A      5.780097  
     453A      5.802157   454A      5.818592   455A      5.841489  
     456A      5.876162   457A      5.898623   458A      5.951895  
     459A      6.031123   460A      6.078302   461A      6.184146  
     462A      6.194528   463A      6.258781   464A      6.301889  
     465A      6.338695   466A      6.358648   467A      6.367116  
     468A      6.382429   469A      6.434201   470A      6.477658  
     471A      6.561532   472A      6.585455   473A      6.678198  
     474A      6.715316   475A      6.823646   476A      6.829389  
     477A      6.854573   478A      6.885549   479A      6.924751  
     480A      6.957512   481A      7.001280   482A      7.144746  
     483A      7.181986   484A      7.209881   485A      7.228614  
     486A      7.251796   487A      7.320571   488A      7.347700  
     489A      7.394543   490A      7.448951   491A      7.502185  
     492A      7.717746   493A      7.736095   494A      7.741412  
     495A      7.801257   496A      7.813148   497A      7.829193  
     498A      7.833015   499A      7.876105   500A      7.883869  
     501A      7.978562   502A      7.985977   503A      8.010249  
     504A      8.014255   505A      8.091460   506A      8.115525  
     507A      8.135173   508A      8.164433   509A      8.213006  
     510A      8.237636   511A      8.264706   512A      8.268617  
     513A      8.298078   514A      8.304868   515A      8.345014  
     516A      8.372576   517A      8.411875   518A      8.440606  
     519A      8.493736   520A      8.620943   521A      8.816624  
     522A      8.831932   523A      8.853336   524A      8.878278  
     525A      8.915892   526A      8.973456   527A      9.021959  
     528A      9.111373   529A      9.133564   530A      9.196171  
     531A      9.697737   532A      9.826053   533A      9.838395  
     534A      9.858132   535A      9.872449   536A      9.915701  
     537A      9.925626   538A      9.934390   539A      9.952002  
     540A     10.001540   541A     10.051097   542A     10.072726  
     543A     10.134884   544A     10.160194   545A     10.203257  
     546A     10.275665   547A     10.313396   548A     10.371347  
     549A     10.405829   550A     10.461118   551A     10.482837  
     552A     10.543502   553A     10.606359   554A     10.642763  
     555A     10.713757   556A     10.898927   557A     10.916178  
     558A     11.033898   559A     11.228366   560A     11.287599  
     561A     11.413862   562A     11.485147   563A     11.685408  
     564A     11.744507   565A     11.778636   566A     11.956008  
     567A     12.001480   568A     12.054810   569A     12.250173  
     570A     12.302083   571A     12.472746   572A     12.564739  
     573A     12.934841   574A     13.278551   575A     13.323633  
     576A     13.395080   577A     13.454277   578A     13.483996  
     579A     13.584117   580A     13.679380   581A     13.839470  
     582A     13.893344   583A     13.925390   584A     13.932945  
     585A     14.012230   586A     14.086214   587A     14.104847  
     588A     14.184584   589A     15.329371   590A     15.425104  
     591A     15.550317   592A     16.644329   593A     64.502727  
     594A     65.921461   595A     67.606063   596A     68.333691  
     597A     68.681905   598A     76.582190  

    Final Occupation by Irrep:
              A 
    DOCC [     5 ]
    NA   [     5 ]
    NB   [     5 ]

  @DF-RHF Final Energy:   -76.06002325195055

   => Energetics <=

    Nuclear Repulsion Energy =              9.1304829337775715
    One-Electron Energy =                -122.9296740834190445
    Two-Electron Energy =                  37.7391678976909262
    Total Energy =                        -76.0600232519505539

Computation Completed


Properties will be evaluated at   0.000000,   0.000000,   0.000000 [a0]

Properties computed using the SCF density matrix


 Multipole Moments:

 ------------------------------------------------------------------------------------
     Multipole            Electronic (a.u.)      Nuclear  (a.u.)        Total (a.u.)
 ------------------------------------------------------------------------------------

 L = 1.  Multiply by 2.5417464519 to convert [e a0] to [Debye]
 Dipole X            :         -7.5376382            7.3661335           -0.1715047
 Dipole Y            :         40.4253353          -40.6257726           -0.2004372
 Dipole Z            :        -37.7618793           37.0264641           -0.7354152
 Magnitude           :                                                    0.7812966

 ------------------------------------------------------------------------------------

*** tstop() called on ddmfs1 at Mon Jan 22 17:31:27 2024
Module time:
	user time   =     128.59 seconds =       2.14 minutes
	system time =       5.89 seconds =       0.10 minutes
	total time  =          8 seconds =       0.13 minutes
Total time:
	user time   =     128.59 seconds =       2.14 minutes
	system time =       5.89 seconds =       0.10 minutes
	total time  =          8 seconds =       0.13 minutes

*** tstart() called on ddmfs1
*** at Mon Jan 22 17:31:27 2024


  //>>>>>>>>>>>>>>>>>>>>>>>>>>>>>>>>>>>//
  //               DFMP2               //
  //<<<<<<<<<<<<<<<<<<<<<<<<<<<<<<<<<<<//

   => Loading Basis Set <=

    Name: (AUG-CC-PVTZ AUX)
    Role: RIFIT
    Keyword: DF_BASIS_MP2
    atoms 1                                   entry F          line   322 file /ddmfs1b/softs/psi4conda/share/psi4/basis/aug-cc-pvtz-ri.gbs 
    atoms 2, 5, 8, 11, 14, 17                 entry O          line   264 file /ddmfs1b/softs/psi4conda/share/psi4/basis/aug-cc-pvtz-ri.gbs 
    atoms 3-4, 6-7, 9-10, 12-13, 15-16, 18-19 entry H          line    30 file /ddmfs1b/softs/psi4conda/share/psi4/basis/aug-cc-pvtz-ri.gbs 

	 --------------------------------------------------------
	                          DF-MP2                         
	      2nd-Order Density-Fitted Moller-Plesset Theory     
	              RMP2 Wavefunction,  20 Threads             
	                                                         
	        Rob Parrish, Justin Turney, Andy Simmonett,      
	           Ed Hohenstein, and C. David Sherrill          
	 --------------------------------------------------------

   => Auxiliary Basis Set <=

  Basis Set: (AUG-CC-PVTZ AUX)
    Blend: AUG-CC-PVTZ-RI
    Number of shells: 364
    Number of basis functions: 1294
    Number of Cartesian functions: 1612
    Spherical Harmonics?: true
    Max angular momentum: 4

	 --------------------------------------------------------
	                 NBF =   598, NAUX =  1294
	 --------------------------------------------------------
	   CLASS    FOCC     OCC    AOCC    AVIR     VIR    FVIR
	   PAIRS       0       5       5     593     593       0
	 --------------------------------------------------------

	-----------------------------------------------------------
	 ==================> DF-MP2 Energies <==================== 
	-----------------------------------------------------------
	 Reference Energy          =     -76.0600232519505539 [Eh]
	 Singles Energy            =      -0.0000000000000000 [Eh]
	 Same-Spin Energy          =      -0.0685236372524507 [Eh]
	 Opposite-Spin Energy      =      -0.2163125680848019 [Eh]
	 Correlation Energy        =      -0.2848362053372526 [Eh]
	 Total Energy              =     -76.3448594572878108 [Eh]
	-----------------------------------------------------------
	 ================> DF-SCS-MP2 Energies <================== 
	-----------------------------------------------------------
	 SCS Same-Spin Scale       =       0.3333333333333333 [-]
	 SCS Opposite-Spin Scale   =       1.2000000000000000 [-]
	 SCS Same-Spin Energy      =      -0.0228412124174836 [Eh]
	 SCS Opposite-Spin Energy  =      -0.2595750817017622 [Eh]
	 SCS Correlation Energy    =      -0.2824162941192458 [Eh]
	 SCS Total Energy          =     -76.3424395460697980 [Eh]
	-----------------------------------------------------------


*** tstop() called on ddmfs1 at Mon Jan 22 17:31:32 2024
Module time:
	user time   =      33.03 seconds =       0.55 minutes
	system time =       1.83 seconds =       0.03 minutes
	total time  =          5 seconds =       0.08 minutes
Total time:
	user time   =     161.64 seconds =       2.69 minutes
	system time =       7.72 seconds =       0.13 minutes
	total time  =         13 seconds =       0.22 minutes

    Psi4 stopped on: Monday, 22 January 2024 05:31PM
    Psi4 wall time for execution: 0:00:13.43

*** Psi4 exiting successfully. Buy a developer a beer!
