
    -----------------------------------------------------------------------
          Psi4: An Open-Source Ab Initio Electronic Structure Package
                               Psi4 1.8.2 release

                         Git: Rev {} zzzzzzz 


    D. G. A. Smith, L. A. Burns, A. C. Simmonett, R. M. Parrish,
    M. C. Schieber, R. Galvelis, P. Kraus, H. Kruse, R. Di Remigio,
    A. Alenaizan, A. M. James, S. Lehtola, J. P. Misiewicz, M. Scheurer,
    R. A. Shaw, J. B. Schriber, Y. Xie, Z. L. Glick, D. A. Sirianni,
    J. S. O'Brien, J. M. Waldrop, A. Kumar, E. G. Hohenstein,
    B. P. Pritchard, B. R. Brooks, H. F. Schaefer III, A. Yu. Sokolov,
    K. Patkowski, A. E. DePrince III, U. Bozkaya, R. A. King,
    F. A. Evangelista, J. M. Turney, T. D. Crawford, C. D. Sherrill,
    J. Chem. Phys. 152(18) 184108 (2020). https://doi.org/10.1063/5.0006002

                            Additional Code Authors
    E. T. Seidl, C. L. Janssen, E. F. Valeev, M. L. Leininger,
    J. F. Gonthier, R. M. Richard, H. R. McAlexander, M. Saitow, X. Wang,
    P. Verma, M. H. Lechner, A. Jiang, S. Behnle, A. G. Heide,
    M. F. Herbst, and D. L. Poole

             Previous Authors, Complete List of Code Contributors,
                       and Citations for Specific Modules
    https://github.com/psi4/psi4/blob/master/codemeta.json
    https://github.com/psi4/psi4/graphs/contributors
    http://psicode.org/psi4manual/master/introduction.html#citing-psifour

    -----------------------------------------------------------------------


    Psi4 started on: Monday, 22 January 2024 06:16PM

    Process ID: 89417
    Host:       ddmfs1
    PSIDATADIR: /ddmfs1b/softs/psi4conda/share/psi4
    Memory:     500.0 MiB
    Threads:    20
    
  ==> Input File <==

--------------------------------------------------------------------------
MEMORY 60 GB

molecule dimer {
0 1
Gh(F)      0.000000     0.000000     0.000000
Gh(O)     -0.504269     2.615845     0.858712
Gh(H)     -0.368841     1.747318     0.502742
Gh(H)     -0.320597     2.565113     1.799174
Gh(O)     -1.503618    -1.315665    -1.986342
Gh(H)     -2.280667    -0.801501    -2.366013
Gh(H)     -1.171011    -0.825309    -1.270502
O          2.723573    -0.791721     0.593434
H          1.984339    -0.306086     0.872898
H          2.496015    -1.256115    -0.252519
Gh(O)     -0.166216    -0.566886     2.722248
Gh(H)     -0.104215    -0.470380     1.811756
Gh(H)      0.267185    -1.405528     2.999724
Gh(O)      1.430300     1.446224    -1.905269
Gh(H)      2.087411     1.977584    -1.375924
Gh(H)      0.975354     0.908102    -1.325386

units ang
no_reorient
no_com
symmetry c1
}

set {
basis        aug-cc-pVTZ
scf_type     df
}

energy("mp2")
--------------------------------------------------------------------------

  Memory set to  55.879 GiB by Python driver.

Scratch directory: /ddmfs1a/scratch/
   => Libint2 <=

    Primary   basis highest AM E, G, H:  5, 4, 3
    Auxiliary basis highest AM E, G, H:  6, 5, 4
    Onebody   basis highest AM E, G, H:  6, 5, 4
    Solid Harmonics ordering:            gaussian

*** tstart() called on ddmfs1
*** at Mon Jan 22 18:16:06 2024

   => Loading Basis Set <=

    Name: AUG-CC-PVTZ
    Role: ORBITAL
    Keyword: BASIS
    atoms 1                            entry F          line   377 file /ddmfs1b/softs/psi4conda/share/psi4/basis/aug-cc-pvtz.gbs 
    atoms 2, 5, 8, 11, 14              entry O          line   331 file /ddmfs1b/softs/psi4conda/share/psi4/basis/aug-cc-pvtz.gbs 
    atoms 3-4, 6-7, 9-10, 12-13, 15-16 entry H          line    40 file /ddmfs1b/softs/psi4conda/share/psi4/basis/aug-cc-pvtz.gbs 


         ---------------------------------------------------------
                                   SCF
               by Justin Turney, Rob Parrish, Andy Simmonett
                          and Daniel G. A. Smith
                              RHF Reference
                       20 Threads,  57220 MiB Core
         ---------------------------------------------------------

  ==> Geometry <==

    Molecular point group: c1
    Full point group: C1

    Geometry (in Angstrom), charge = 0, multiplicity = 1:

       Center              X                  Y                   Z               Mass       
    ------------   -----------------  -----------------  -----------------  -----------------
      Gh(F)           0.000000000000     0.000000000000     0.000000000000    18.998403162730
      Gh(O)          -0.504269000000     2.615845000000     0.858712000000    15.994914619570
      Gh(H)          -0.368841000000     1.747318000000     0.502742000000     1.007825032230
      Gh(H)          -0.320597000000     2.565113000000     1.799174000000     1.007825032230
      Gh(O)          -1.503618000000    -1.315665000000    -1.986342000000    15.994914619570
      Gh(H)          -2.280667000000    -0.801501000000    -2.366013000000     1.007825032230
      Gh(H)          -1.171011000000    -0.825309000000    -1.270502000000     1.007825032230
         O            2.723573000000    -0.791721000000     0.593434000000    15.994914619570
         H            1.984339000000    -0.306086000000     0.872898000000     1.007825032230
         H            2.496015000000    -1.256115000000    -0.252519000000     1.007825032230
      Gh(O)          -0.166216000000    -0.566886000000     2.722248000000    15.994914619570
      Gh(H)          -0.104215000000    -0.470380000000     1.811756000000     1.007825032230
      Gh(H)           0.267185000000    -1.405528000000     2.999724000000     1.007825032230
      Gh(O)           1.430300000000     1.446224000000    -1.905269000000    15.994914619570
      Gh(H)           2.087411000000     1.977584000000    -1.375924000000     1.007825032230
      Gh(H)           0.975354000000     0.908102000000    -1.325386000000     1.007825032230

  Running in c1 symmetry.

  Rotational constants: A =      0.04064  B =      0.03476  C =      0.03306 [cm^-1]
  Rotational constants: A =   1218.49466  B =   1041.94897  C =    991.07995 [MHz]
  Nuclear repulsion =    9.173021943117673

  Charge       = 0
  Multiplicity = 1
  Electrons    = 10
  Nalpha       = 5
  Nbeta        = 5

  ==> Algorithm <==

  SCF Algorithm Type is DF.
  DIIS enabled.
  MOM disabled.
  Fractional occupation disabled.
  Guess Type is SAD.
  Energy threshold   = 1.00e-08
  Density threshold  = 1.00e-08
  Integral threshold = 1.00e-12

  ==> Primary Basis <==

  Basis Set: AUG-CC-PVTZ
    Blend: AUG-CC-PVTZ
    Number of shells: 174
    Number of basis functions: 506
    Number of Cartesian functions: 580
    Spherical Harmonics?: true
    Max angular momentum: 3

   => Loading Basis Set <=

    Name: (AUG-CC-PVTZ AUX)
    Role: JKFIT
    Keyword: DF_BASIS_SCF
    atoms 1                            entry F          line   348 file /ddmfs1b/softs/psi4conda/share/psi4/basis/aug-cc-pvtz-jkfit.gbs 
    atoms 2, 5, 8, 11, 14              entry O          line   286 file /ddmfs1b/softs/psi4conda/share/psi4/basis/aug-cc-pvtz-jkfit.gbs 
    atoms 3-4, 6-7, 9-10, 12-13, 15-16 entry H          line    70 file /ddmfs1b/softs/psi4conda/share/psi4/basis/aug-cc-pvtz-jkfit.gbs 

  ==> Integral Setup <==

  DFHelper Memory: AOs need 1.955 GiB; user supplied 41.910 GiB. 
  Using in-core AOs.

  ==> MemDFJK: Density-Fitted J/K Matrices <==

    J tasked:                   Yes
    K tasked:                   Yes
    wK tasked:                   No
    OpenMP threads:              20
    Memory [MiB]:             42915
    Algorithm:                 Core
    Schwarz Cutoff:           1E-12
    Mask sparsity (%):      10.2361
    Fitting Condition:        1E-10

   => Auxiliary Basis Set <=

  Basis Set: (AUG-CC-PVTZ AUX)
    Blend: AUG-CC-PVTZ-JKFIT
    Number of shells: 320
    Number of basis functions: 1084
    Number of Cartesian functions: 1336
    Spherical Harmonics?: true
    Max angular momentum: 4

  Minimum eigenvalue in the overlap matrix is 7.7353448078E-05.
  Reciprocal condition number of the overlap matrix is 5.6451429310E-06.
    Using symmetric orthogonalization.

  ==> Pre-Iterations <==

  SCF Guess: Superposition of Atomic Densities via on-the-fly atomic UHF (no occupation information).

   -------------------------
    Irrep   Nso     Nmo    
   -------------------------
     A        506     506 
   -------------------------
    Total     506     506
   -------------------------

  ==> Iterations <==

                           Total Energy        Delta E     RMS |[F,P]|

   @DF-RHF iter SAD:   -75.47023668539369   -7.54702e+01   0.00000e+00 
   @DF-RHF iter   1:   -75.97383680110887   -5.03600e-01   9.28341e-04 DIIS/ADIIS
   @DF-RHF iter   2:   -76.02647635175602   -5.26396e-02   6.31152e-04 DIIS/ADIIS
   @DF-RHF iter   3:   -76.05787365782501   -3.13973e-02   4.30189e-05 DIIS
   @DF-RHF iter   4:   -76.05827569695383   -4.02039e-04   1.03967e-05 DIIS
   @DF-RHF iter   5:   -76.05830125734488   -2.55604e-05   2.39389e-06 DIIS
   @DF-RHF iter   6:   -76.05830343107908   -2.17373e-06   5.41351e-07 DIIS
   @DF-RHF iter   7:   -76.05830355394413   -1.22865e-07   1.01109e-07 DIIS
   @DF-RHF iter   8:   -76.05830355770868   -3.76455e-09   1.68559e-08 DIIS
   @DF-RHF iter   9:   -76.05830355779261   -8.39293e-11   4.33753e-09 DIIS
  Energy and wave function converged.


  ==> Post-Iterations <==

    Orbital Energies [Eh]
    ---------------------

    Doubly Occupied:                                                      

       1A    -20.565424     2A     -1.350441     3A     -0.724519  
       4A     -0.576146     5A     -0.508991  

    Virtual:                                                              

       6A      0.014900     7A      0.033339     8A      0.038051  
       9A      0.040007    10A      0.056638    11A      0.060049  
      12A      0.065774    13A      0.068363    14A      0.070109  
      15A      0.076799    16A      0.115448    17A      0.120885  
      18A      0.129042    19A      0.133492    20A      0.138149  
      21A      0.143789    22A      0.150753    23A      0.156264  
      24A      0.161669    25A      0.165990    26A      0.174594  
      27A      0.183298    28A      0.187342    29A      0.193731  
      30A      0.195658    31A      0.207827    32A      0.212501  
      33A      0.220708    34A      0.221666    35A      0.232086  
      36A      0.243589    37A      0.253676    38A      0.262158  
      39A      0.270482    40A      0.276285    41A      0.295923  
      42A      0.297565    43A      0.310027    44A      0.313170  
      45A      0.315872    46A      0.319619    47A      0.331539  
      48A      0.341777    49A      0.344476    50A      0.350634  
      51A      0.362952    52A      0.363543    53A      0.367881  
      54A      0.373647    55A      0.380651    56A      0.384669  
      57A      0.391683    58A      0.408530    59A      0.411362  
      60A      0.421778    61A      0.432240    62A      0.440591  
      63A      0.446647    64A      0.454869    65A      0.456872  
      66A      0.464530    67A      0.474078    68A      0.482278  
      69A      0.490715    70A      0.502333    71A      0.513965  
      72A      0.527497    73A      0.532701    74A      0.552015  
      75A      0.571396    76A      0.581583    77A      0.584625  
      78A      0.607411    79A      0.616011    80A      0.658867  
      81A      0.679423    82A      0.685096    83A      0.692668  
      84A      0.704309    85A      0.709129    86A      0.727206  
      87A      0.734658    88A      0.743187    89A      0.749615  
      90A      0.759652    91A      0.771906    92A      0.775212  
      93A      0.785224    94A      0.789218    95A      0.793194  
      96A      0.802198    97A      0.813574    98A      0.816201  
      99A      0.825654   100A      0.826247   101A      0.832178  
     102A      0.847543   103A      0.849586   104A      0.852133  
     105A      0.863767   106A      0.869780   107A      0.880642  
     108A      0.884077   109A      0.890279   110A      0.892646  
     111A      0.898664   112A      0.904100   113A      0.907351  
     114A      0.917402   115A      0.923665   116A      0.937136  
     117A      0.945443   118A      0.950051   119A      0.954950  
     120A      0.965680   121A      0.974553   122A      0.977003  
     123A      0.980536   124A      0.988783   125A      0.993010  
     126A      0.999799   127A      1.012708   128A      1.021693  
     129A      1.029132   130A      1.033926   131A      1.035625  
     132A      1.047113   133A      1.055958   134A      1.059458  
     135A      1.065780   136A      1.072528   137A      1.080387  
     138A      1.093312   139A      1.101975   140A      1.111916  
     141A      1.118461   142A      1.128719   143A      1.138198  
     144A      1.142030   145A      1.145070   146A      1.154088  
     147A      1.163130   148A      1.180707   149A      1.194369  
     150A      1.205145   151A      1.219221   152A      1.222425  
     153A      1.240422   154A      1.257741   155A      1.266127  
     156A      1.281853   157A      1.283799   158A      1.288877  
     159A      1.308378   160A      1.312060   161A      1.320773  
     162A      1.340242   163A      1.356796   164A      1.367196  
     165A      1.373828   166A      1.388632   167A      1.396699  
     168A      1.399979   169A      1.424371   170A      1.434828  
     171A      1.460885   172A      1.469941   173A      1.496658  
     174A      1.500593   175A      1.523097   176A      1.536325  
     177A      1.541968   178A      1.561175   179A      1.573372  
     180A      1.581577   181A      1.598075   182A      1.625143  
     183A      1.645061   184A      1.655365   185A      1.686154  
     186A      1.702630   187A      1.704499   188A      1.717148  
     189A      1.725540   190A      1.733178   191A      1.757487  
     192A      1.764181   193A      1.776648   194A      1.777571  
     195A      1.791309   196A      1.801038   197A      1.817276  
     198A      1.820631   199A      1.832075   200A      1.838917  
     201A      1.844574   202A      1.865708   203A      1.868211  
     204A      1.898688   205A      1.907539   206A      1.912743  
     207A      1.922499   208A      1.948879   209A      1.959333  
     210A      1.968827   211A      1.987301   212A      2.015588  
     213A      2.029287   214A      2.041646   215A      2.072065  
     216A      2.089090   217A      2.125979   218A      2.158503  
     219A      2.170606   220A      2.241898   221A      2.268976  
     222A      2.276744   223A      2.356905   224A      2.363209  
     225A      2.442939   226A      2.452281   227A      2.471640  
     228A      2.480652   229A      2.490401   230A      2.509559  
     231A      2.512541   232A      2.516778   233A      2.520460  
     234A      2.535067   235A      2.552294   236A      2.556233  
     237A      2.568467   238A      2.581679   239A      2.590796  
     240A      2.596949   241A      2.609751   242A      2.635349  
     243A      2.643328   244A      2.648399   245A      2.662627  
     246A      2.680107   247A      2.688923   248A      2.698630  
     249A      2.706497   250A      2.712714   251A      2.718082  
     252A      2.741975   253A      2.760633   254A      2.767413  
     255A      2.787396   256A      2.797644   257A      2.811930  
     258A      2.825269   259A      2.843515   260A      2.867110  
     261A      2.885974   262A      2.896178   263A      2.903208  
     264A      2.927911   265A      2.956112   266A      2.976499  
     267A      3.014191   268A      3.025310   269A      3.037883  
     270A      3.063968   271A      3.090485   272A      3.156533  
     273A      3.164781   274A      3.188037   275A      3.191717  
     276A      3.200824   277A      3.216591   278A      3.230998  
     279A      3.240321   280A      3.245388   281A      3.253655  
     282A      3.259610   283A      3.277964   284A      3.351857  
     285A      3.388350   286A      3.406216   287A      3.423133  
     288A      3.457940   289A      3.472325   290A      3.493050  
     291A      3.523404   292A      3.557050   293A      3.571928  
     294A      3.591804   295A      3.607514   296A      3.621140  
     297A      3.644617   298A      3.669347   299A      3.695093  
     300A      3.722105   301A      3.737705   302A      3.739274  
     303A      3.774066   304A      3.784352   305A      3.807387  
     306A      3.875475   307A      3.995482   308A      4.026925  
     309A      4.070381   310A      4.080886   311A      4.099328  
     312A      4.109811   313A      4.164961   314A      4.220368  
     315A      4.239833   316A      4.301007   317A      4.319664  
     318A      4.346328   319A      4.369228   320A      4.375110  
     321A      4.388805   322A      4.399915   323A      4.418417  
     324A      4.427680   325A      4.442742   326A      4.450738  
     327A      4.472757   328A      4.488512   329A      4.505087  
     330A      4.510631   331A      4.537540   332A      4.551945  
     333A      4.580216   334A      4.608967   335A      4.630458  
     336A      4.632651   337A      4.645681   338A      4.655350  
     339A      4.675871   340A      4.683469   341A      4.699143  
     342A      4.721183   343A      4.731425   344A      4.752391  
     345A      4.763357   346A      4.802724   347A      4.851334  
     348A      4.868436   349A      4.890223   350A      4.897647  
     351A      4.912794   352A      4.921426   353A      4.930077  
     354A      4.948595   355A      4.970856   356A      4.978576  
     357A      4.991645   358A      5.020596   359A      5.032338  
     360A      5.049592   361A      5.077672   362A      5.100450  
     363A      5.128814   364A      5.147917   365A      5.194321  
     366A      5.228538   367A      5.262695   368A      5.286802  
     369A      5.327503   370A      5.348066   371A      5.386434  
     372A      5.479223   373A      5.499086   374A      5.513713  
     375A      5.523575   376A      5.564690   377A      5.577240  
     378A      5.593021   379A      5.598430   380A      5.604638  
     381A      5.652201   382A      5.727540   383A      5.784953  
     384A      5.822771   385A      5.833124   386A      5.857340  
     387A      5.861393   388A      5.897879   389A      5.908712  
     390A      5.957759   391A      6.206163   392A      6.232440  
     393A      6.260589   394A      6.273688   395A      6.304219  
     396A      6.465978   397A      6.510084   398A      6.529661  
     399A      6.540422   400A      6.604089   401A      6.682862  
     402A      6.730490   403A      6.782930   404A      6.826667  
     405A      6.830228   406A      6.929425   407A      7.177917  
     408A      7.196205   409A      7.200274   410A      7.255344  
     411A      7.274309   412A      7.293596   413A      7.365344  
     414A      7.384129   415A      7.484586   416A      7.537361  
     417A      7.695874   418A      7.731745   419A      7.746930  
     420A      7.758319   421A      7.777918   422A      7.804698  
     423A      7.842050   424A      7.858306   425A      7.865809  
     426A      7.971687   427A      8.034846   428A      8.074830  
     429A      8.104881   430A      8.133335   431A      8.160681  
     432A      8.213085   433A      8.284688   434A      8.304804  
     435A      8.315600   436A      8.328914   437A      8.345751  
     438A      8.351069   439A      8.375456   440A      8.787784  
     441A      8.799320   442A      8.835190   443A      8.841727  
     444A      8.874542   445A      9.088360   446A      9.146092  
     447A      9.238270   448A      9.297476   449A      9.719767  
     450A      9.770773   451A      9.807120   452A      9.844371  
     453A      9.862676   454A      9.880652   455A      9.900860  
     456A      9.915620   457A     10.078616   458A     10.095056  
     459A     10.115750   460A     10.128601   461A     10.256305  
     462A     10.293883   463A     10.314420   464A     10.350656  
     465A     10.365274   466A     10.461900   467A     10.530980  
     468A     10.552524   469A     10.596805   470A     10.699794  
     471A     10.727077   472A     11.068559   473A     11.125030  
     474A     11.181749   475A     11.279642   476A     11.564076  
     477A     11.836060   478A     11.847529   479A     11.874121  
     480A     11.901699   481A     12.417266   482A     12.528559  
     483A     12.622155   484A     12.775076   485A     13.232500  
     486A     13.288949   487A     13.390989   488A     13.429645  
     489A     13.460297   490A     13.633797   491A     13.745698  
     492A     13.785138   493A     13.836254   494A     14.049528  
     495A     14.056486   496A     14.128702   497A     14.157872  
     498A     15.125042   499A     15.298422   500A     15.408601  
     501A     16.738827   502A     66.780113   503A     67.701397  
     504A     68.696948   505A     69.141308   506A     75.066855  

    Final Occupation by Irrep:
              A 
    DOCC [     5 ]
    NA   [     5 ]
    NB   [     5 ]

  @DF-RHF Final Energy:   -76.05830355779261

   => Energetics <=

    Nuclear Repulsion Energy =              9.1730219431176732
    One-Electron Energy =                -123.0116039243117427
    Two-Electron Energy =                  37.7802784234014695
    Total Energy =                        -76.0583035577925983

Computation Completed


Properties will be evaluated at   0.000000,   0.000000,   0.000000 [a0]

Properties computed using the SCF density matrix


 Multipole Moments:

 ------------------------------------------------------------------------------------
     Multipole            Electronic (a.u.)      Nuclear  (a.u.)        Total (a.u.)
 ------------------------------------------------------------------------------------

 L = 1.  Multiply by 2.5417464519 to convert [e a0] to [Debye]
 Dipole X            :        -50.2951366           49.6410984           -0.6540382
 Dipole Y            :         14.9417437          -14.9212189            0.0205248
 Dipole Z            :        -10.5177421           10.1437683           -0.3739739
 Magnitude           :                                                    0.7536867

 ------------------------------------------------------------------------------------

*** tstop() called on ddmfs1 at Mon Jan 22 18:16:12 2024
Module time:
	user time   =      85.34 seconds =       1.42 minutes
	system time =       4.06 seconds =       0.07 minutes
	total time  =          6 seconds =       0.10 minutes
Total time:
	user time   =      85.34 seconds =       1.42 minutes
	system time =       4.06 seconds =       0.07 minutes
	total time  =          6 seconds =       0.10 minutes

*** tstart() called on ddmfs1
*** at Mon Jan 22 18:16:12 2024


  //>>>>>>>>>>>>>>>>>>>>>>>>>>>>>>>>>>>//
  //               DFMP2               //
  //<<<<<<<<<<<<<<<<<<<<<<<<<<<<<<<<<<<//

   => Loading Basis Set <=

    Name: (AUG-CC-PVTZ AUX)
    Role: RIFIT
    Keyword: DF_BASIS_MP2
    atoms 1                            entry F          line   322 file /ddmfs1b/softs/psi4conda/share/psi4/basis/aug-cc-pvtz-ri.gbs 
    atoms 2, 5, 8, 11, 14              entry O          line   264 file /ddmfs1b/softs/psi4conda/share/psi4/basis/aug-cc-pvtz-ri.gbs 
    atoms 3-4, 6-7, 9-10, 12-13, 15-16 entry H          line    30 file /ddmfs1b/softs/psi4conda/share/psi4/basis/aug-cc-pvtz-ri.gbs 

	 --------------------------------------------------------
	                          DF-MP2                         
	      2nd-Order Density-Fitted Moller-Plesset Theory     
	              RMP2 Wavefunction,  20 Threads             
	                                                         
	        Rob Parrish, Justin Turney, Andy Simmonett,      
	           Ed Hohenstein, and C. David Sherrill          
	 --------------------------------------------------------

   => Auxiliary Basis Set <=

  Basis Set: (AUG-CC-PVTZ AUX)
    Blend: AUG-CC-PVTZ-RI
    Number of shells: 308
    Number of basis functions: 1096
    Number of Cartesian functions: 1366
    Spherical Harmonics?: true
    Max angular momentum: 4

	 --------------------------------------------------------
	                 NBF =   506, NAUX =  1096
	 --------------------------------------------------------
	   CLASS    FOCC     OCC    AOCC    AVIR     VIR    FVIR
	   PAIRS       0       5       5     501     501       0
	 --------------------------------------------------------

	-----------------------------------------------------------
	 ==================> DF-MP2 Energies <==================== 
	-----------------------------------------------------------
	 Reference Energy          =     -76.0583035577926125 [Eh]
	 Singles Energy            =      -0.0000000000000000 [Eh]
	 Same-Spin Energy          =      -0.0683619606244149 [Eh]
	 Opposite-Spin Energy      =      -0.2157949400234081 [Eh]
	 Correlation Energy        =      -0.2841569006478230 [Eh]
	 Total Energy              =     -76.3424604584404420 [Eh]
	-----------------------------------------------------------
	 ================> DF-SCS-MP2 Energies <================== 
	-----------------------------------------------------------
	 SCS Same-Spin Scale       =       0.3333333333333333 [-]
	 SCS Opposite-Spin Scale   =       1.2000000000000000 [-]
	 SCS Same-Spin Energy      =      -0.0227873202081383 [Eh]
	 SCS Opposite-Spin Energy  =      -0.2589539280280898 [Eh]
	 SCS Correlation Energy    =      -0.2817412482362280 [Eh]
	 SCS Total Energy          =     -76.3400448060288426 [Eh]
	-----------------------------------------------------------


*** tstop() called on ddmfs1 at Mon Jan 22 18:16:15 2024
Module time:
	user time   =      24.16 seconds =       0.40 minutes
	system time =       1.35 seconds =       0.02 minutes
	total time  =          3 seconds =       0.05 minutes
Total time:
	user time   =     109.52 seconds =       1.83 minutes
	system time =       5.41 seconds =       0.09 minutes
	total time  =          9 seconds =       0.15 minutes

    Psi4 stopped on: Monday, 22 January 2024 06:16PM
    Psi4 wall time for execution: 0:00:08.92

*** Psi4 exiting successfully. Buy a developer a beer!
