
    -----------------------------------------------------------------------
          Psi4: An Open-Source Ab Initio Electronic Structure Package
                               Psi4 1.8.2 release

                         Git: Rev {} zzzzzzz 


    D. G. A. Smith, L. A. Burns, A. C. Simmonett, R. M. Parrish,
    M. C. Schieber, R. Galvelis, P. Kraus, H. Kruse, R. Di Remigio,
    A. Alenaizan, A. M. James, S. Lehtola, J. P. Misiewicz, M. Scheurer,
    R. A. Shaw, J. B. Schriber, Y. Xie, Z. L. Glick, D. A. Sirianni,
    J. S. O'Brien, J. M. Waldrop, A. Kumar, E. G. Hohenstein,
    B. P. Pritchard, B. R. Brooks, H. F. Schaefer III, A. Yu. Sokolov,
    K. Patkowski, A. E. DePrince III, U. Bozkaya, R. A. King,
    F. A. Evangelista, J. M. Turney, T. D. Crawford, C. D. Sherrill,
    J. Chem. Phys. 152(18) 184108 (2020). https://doi.org/10.1063/5.0006002

                            Additional Code Authors
    E. T. Seidl, C. L. Janssen, E. F. Valeev, M. L. Leininger,
    J. F. Gonthier, R. M. Richard, H. R. McAlexander, M. Saitow, X. Wang,
    P. Verma, M. H. Lechner, A. Jiang, S. Behnle, A. G. Heide,
    M. F. Herbst, and D. L. Poole

             Previous Authors, Complete List of Code Contributors,
                       and Citations for Specific Modules
    https://github.com/psi4/psi4/blob/master/codemeta.json
    https://github.com/psi4/psi4/graphs/contributors
    http://psicode.org/psi4manual/master/introduction.html#citing-psifour

    -----------------------------------------------------------------------


    Psi4 started on: Monday, 22 January 2024 05:23PM

    Process ID: 83954
    Host:       ddmfs1
    PSIDATADIR: /ddmfs1b/softs/psi4conda/share/psi4
    Memory:     500.0 MiB
    Threads:    20
    
  ==> Input File <==

--------------------------------------------------------------------------
MEMORY 60 GB

molecule dimer {
0 1
Gh(F)      0.000000     0.000000     0.000000
Gh(O)     -0.057118     2.692147    -0.976789
Gh(H)      0.731116     3.225705    -0.805216
Gh(H)      0.209827     1.795792    -0.774691
Gh(O)      0.486465    -2.407014     1.207865
Gh(H)      0.269082    -1.731333     0.576353
Gh(H)      1.158872    -2.081555     1.761537
Gh(O)      2.743152     0.252394     0.166207
Gh(H)      2.913143     0.164435    -0.786041
Gh(H)      1.744815     0.219563     0.238161
Gh(O)      0.021137     0.684540     2.677081
Gh(H)     -0.147829     0.359385     1.789779
Gh(H)     -0.892075     0.785151     3.140166
O         -2.468711    -1.509440    -0.488093
H         -1.632848    -1.124206    -0.091186
H         -2.494928    -1.207266    -1.445224
Gh(O)     -0.643514    -0.967018    -2.526052
Gh(H)     -0.484782    -0.177777    -1.974885
Gh(H)     -0.087133    -1.668284    -2.070015

units ang
no_reorient
no_com
symmetry c1
}

set {
basis        aug-cc-pVTZ
scf_type     df
}

energy("mp2")
--------------------------------------------------------------------------

  Memory set to  55.879 GiB by Python driver.

Scratch directory: /ddmfs1a/scratch/
   => Libint2 <=

    Primary   basis highest AM E, G, H:  5, 4, 3
    Auxiliary basis highest AM E, G, H:  6, 5, 4
    Onebody   basis highest AM E, G, H:  6, 5, 4
    Solid Harmonics ordering:            gaussian

*** tstart() called on ddmfs1
*** at Mon Jan 22 17:23:54 2024

   => Loading Basis Set <=

    Name: AUG-CC-PVTZ
    Role: ORBITAL
    Keyword: BASIS
    atoms 1                                   entry F          line   377 file /ddmfs1b/softs/psi4conda/share/psi4/basis/aug-cc-pvtz.gbs 
    atoms 2, 5, 8, 11, 14, 17                 entry O          line   331 file /ddmfs1b/softs/psi4conda/share/psi4/basis/aug-cc-pvtz.gbs 
    atoms 3-4, 6-7, 9-10, 12-13, 15-16, 18-19 entry H          line    40 file /ddmfs1b/softs/psi4conda/share/psi4/basis/aug-cc-pvtz.gbs 


         ---------------------------------------------------------
                                   SCF
               by Justin Turney, Rob Parrish, Andy Simmonett
                          and Daniel G. A. Smith
                              RHF Reference
                       20 Threads,  57220 MiB Core
         ---------------------------------------------------------

  ==> Geometry <==

    Molecular point group: c1
    Full point group: C1

    Geometry (in Angstrom), charge = 0, multiplicity = 1:

       Center              X                  Y                   Z               Mass       
    ------------   -----------------  -----------------  -----------------  -----------------
      Gh(F)           0.000000000000     0.000000000000     0.000000000000    18.998403162730
      Gh(O)          -0.057118000000     2.692147000000    -0.976789000000    15.994914619570
      Gh(H)           0.731116000000     3.225705000000    -0.805216000000     1.007825032230
      Gh(H)           0.209827000000     1.795792000000    -0.774691000000     1.007825032230
      Gh(O)           0.486465000000    -2.407014000000     1.207865000000    15.994914619570
      Gh(H)           0.269082000000    -1.731333000000     0.576353000000     1.007825032230
      Gh(H)           1.158872000000    -2.081555000000     1.761537000000     1.007825032230
      Gh(O)           2.743152000000     0.252394000000     0.166207000000    15.994914619570
      Gh(H)           2.913143000000     0.164435000000    -0.786041000000     1.007825032230
      Gh(H)           1.744815000000     0.219563000000     0.238161000000     1.007825032230
      Gh(O)           0.021137000000     0.684540000000     2.677081000000    15.994914619570
      Gh(H)          -0.147829000000     0.359385000000     1.789779000000     1.007825032230
      Gh(H)          -0.892075000000     0.785151000000     3.140166000000     1.007825032230
         O           -2.468711000000    -1.509440000000    -0.488093000000    15.994914619570
         H           -1.632848000000    -1.124206000000    -0.091186000000     1.007825032230
         H           -2.494928000000    -1.207266000000    -1.445224000000     1.007825032230
      Gh(O)          -0.643514000000    -0.967018000000    -2.526052000000    15.994914619570
      Gh(H)          -0.484782000000    -0.177777000000    -1.974885000000     1.007825032230
      Gh(H)          -0.087133000000    -1.668284000000    -2.070015000000     1.007825032230

  Running in c1 symmetry.

  Rotational constants: A =      0.03551  B =      0.03142  C =      0.02548 [cm^-1]
  Rotational constants: A =   1064.42559  B =    941.82817  C =    763.89601 [MHz]
  Nuclear repulsion =    8.769310673327208

  Charge       = 0
  Multiplicity = 1
  Electrons    = 10
  Nalpha       = 5
  Nbeta        = 5

  ==> Algorithm <==

  SCF Algorithm Type is DF.
  DIIS enabled.
  MOM disabled.
  Fractional occupation disabled.
  Guess Type is SAD.
  Energy threshold   = 1.00e-08
  Density threshold  = 1.00e-08
  Integral threshold = 1.00e-12

  ==> Primary Basis <==

  Basis Set: AUG-CC-PVTZ
    Blend: AUG-CC-PVTZ
    Number of shells: 206
    Number of basis functions: 598
    Number of Cartesian functions: 685
    Spherical Harmonics?: true
    Max angular momentum: 3

   => Loading Basis Set <=

    Name: (AUG-CC-PVTZ AUX)
    Role: JKFIT
    Keyword: DF_BASIS_SCF
    atoms 1                                   entry F          line   348 file /ddmfs1b/softs/psi4conda/share/psi4/basis/aug-cc-pvtz-jkfit.gbs 
    atoms 2, 5, 8, 11, 14, 17                 entry O          line   286 file /ddmfs1b/softs/psi4conda/share/psi4/basis/aug-cc-pvtz-jkfit.gbs 
    atoms 3-4, 6-7, 9-10, 12-13, 15-16, 18-19 entry H          line    70 file /ddmfs1b/softs/psi4conda/share/psi4/basis/aug-cc-pvtz-jkfit.gbs 

  ==> Integral Setup <==

  DFHelper Memory: AOs need 3.203 GiB; user supplied 41.910 GiB. 
  Using in-core AOs.

  ==> MemDFJK: Density-Fitted J/K Matrices <==

    J tasked:                   Yes
    K tasked:                   Yes
    wK tasked:                   No
    OpenMP threads:              20
    Memory [MiB]:             42915
    Algorithm:                 Core
    Schwarz Cutoff:           1E-12
    Mask sparsity (%):      10.0994
    Fitting Condition:        1E-10

   => Auxiliary Basis Set <=

  Basis Set: (AUG-CC-PVTZ AUX)
    Blend: AUG-CC-PVTZ-JKFIT
    Number of shells: 378
    Number of basis functions: 1280
    Number of Cartesian functions: 1577
    Spherical Harmonics?: true
    Max angular momentum: 4

  Minimum eigenvalue in the overlap matrix is 2.6576417432E-05.
  Reciprocal condition number of the overlap matrix is 1.6528673623E-06.
    Using symmetric orthogonalization.

  ==> Pre-Iterations <==

  SCF Guess: Superposition of Atomic Densities via on-the-fly atomic UHF (no occupation information).

   -------------------------
    Irrep   Nso     Nmo    
   -------------------------
     A        598     598 
   -------------------------
    Total     598     598
   -------------------------

  ==> Iterations <==

                           Total Energy        Delta E     RMS |[F,P]|

   @DF-RHF iter SAD:   -75.42187399136843   -7.54219e+01   0.00000e+00 
   @DF-RHF iter   1:   -75.96742463622243   -5.45551e-01   7.78775e-04 DIIS/ADIIS
   @DF-RHF iter   2:   -76.01845753403349   -5.10329e-02   5.56672e-04 DIIS/ADIIS
   @DF-RHF iter   3:   -76.05333371742985   -3.48762e-02   3.81303e-05 DIIS
   @DF-RHF iter   4:   -76.05379301204191   -4.59295e-04   1.00168e-05 DIIS
   @DF-RHF iter   5:   -76.05382838241910   -3.53704e-05   2.35442e-06 DIIS
   @DF-RHF iter   6:   -76.05383145568722   -3.07327e-06   5.20948e-07 DIIS
   @DF-RHF iter   7:   -76.05383161775315   -1.62066e-07   9.34773e-08 DIIS
   @DF-RHF iter   8:   -76.05383162225183   -4.49869e-09   1.67997e-08 DIIS
   @DF-RHF iter   9:   -76.05383162237446   -1.22625e-10   4.52131e-09 DIIS
  Energy and wave function converged.


  ==> Post-Iterations <==

    Orbital Energies [Eh]
    ---------------------

    Doubly Occupied:                                                      

       1A    -20.573959     2A     -1.329767     3A     -0.696710  
       4A     -0.572284     5A     -0.506123  

    Virtual:                                                              

       6A      0.013979     7A      0.032758     8A      0.034715  
       9A      0.036492    10A      0.056330    11A      0.058554  
      12A      0.060973    13A      0.061662    14A      0.064555  
      15A      0.081498    16A      0.090553    17A      0.092667  
      18A      0.109681    19A      0.117900    20A      0.126160  
      21A      0.134163    22A      0.138878    23A      0.146855  
      24A      0.154103    25A      0.159718    26A      0.161339  
      27A      0.162947    28A      0.168671    29A      0.174913  
      30A      0.181794    31A      0.191093    32A      0.197190  
      33A      0.201621    34A      0.204562    35A      0.209209  
      36A      0.211615    37A      0.216622    38A      0.223126  
      39A      0.230560    40A      0.236007    41A      0.247912  
      42A      0.256103    43A      0.269836    44A      0.273979  
      45A      0.284662    46A      0.294971    47A      0.300238  
      48A      0.305765    49A      0.313018    50A      0.315498  
      51A      0.316133    52A      0.328631    53A      0.337149  
      54A      0.344266    55A      0.354115    56A      0.355569  
      57A      0.359529    58A      0.363100    59A      0.369995  
      60A      0.374764    61A      0.377942    62A      0.388388  
      63A      0.397078    64A      0.399693    65A      0.405931  
      66A      0.416391    67A      0.423829    68A      0.426626  
      69A      0.431072    70A      0.435582    71A      0.444461  
      72A      0.457132    73A      0.460363    74A      0.465935  
      75A      0.467810    76A      0.480071    77A      0.482106  
      78A      0.495233    79A      0.505023    80A      0.507421  
      81A      0.522421    82A      0.534327    83A      0.537923  
      84A      0.551346    85A      0.557654    86A      0.564416  
      87A      0.575416    88A      0.595197    89A      0.600557  
      90A      0.613029    91A      0.627931    92A      0.636878  
      93A      0.665100    94A      0.676637    95A      0.687347  
      96A      0.697517    97A      0.708508    98A      0.723470  
      99A      0.729324   100A      0.731392   101A      0.740893  
     102A      0.742552   103A      0.748945   104A      0.753471  
     105A      0.769998   106A      0.775046   107A      0.780183  
     108A      0.795516   109A      0.797384   110A      0.802572  
     111A      0.807104   112A      0.816525   113A      0.818429  
     114A      0.826887   115A      0.831244   116A      0.839141  
     117A      0.845103   118A      0.848792   119A      0.860931  
     120A      0.867596   121A      0.871559   122A      0.878930  
     123A      0.882621   124A      0.899193   125A      0.899643  
     126A      0.905681   127A      0.911213   128A      0.912945  
     129A      0.914294   130A      0.927738   131A      0.934632  
     132A      0.941698   133A      0.947412   134A      0.955769  
     135A      0.961015   136A      0.970171   137A      0.979888  
     138A      0.984081   139A      0.991755   140A      0.994475  
     141A      1.002811   142A      1.006533   143A      1.016268  
     144A      1.020064   145A      1.023020   146A      1.024690  
     147A      1.033462   148A      1.036947   149A      1.041518  
     150A      1.045574   151A      1.055902   152A      1.059950  
     153A      1.072378   154A      1.076103   155A      1.079648  
     156A      1.093650   157A      1.099010   158A      1.111329  
     159A      1.118120   160A      1.128896   161A      1.135648  
     162A      1.144463   163A      1.149082   164A      1.152656  
     165A      1.174166   166A      1.180168   167A      1.189620  
     168A      1.196209   169A      1.199817   170A      1.208161  
     171A      1.218613   172A      1.230379   173A      1.239584  
     174A      1.244598   175A      1.253430   176A      1.265838  
     177A      1.274324   178A      1.276364   179A      1.295150  
     180A      1.309214   181A      1.312390   182A      1.325573  
     183A      1.331885   184A      1.350451   185A      1.363122  
     186A      1.369098   187A      1.382602   188A      1.386383  
     189A      1.400855   190A      1.413381   191A      1.414447  
     192A      1.428387   193A      1.437866   194A      1.442129  
     195A      1.453854   196A      1.469301   197A      1.482300  
     198A      1.487755   199A      1.498408   200A      1.501567  
     201A      1.515691   202A      1.522353   203A      1.530218  
     204A      1.540265   205A      1.551272   206A      1.563091  
     207A      1.563457   208A      1.578121   209A      1.592154  
     210A      1.605958   211A      1.617986   212A      1.631134  
     213A      1.645587   214A      1.666728   215A      1.673379  
     216A      1.681371   217A      1.699428   218A      1.721747  
     219A      1.725555   220A      1.732998   221A      1.746198  
     222A      1.757298   223A      1.761294   224A      1.775032  
     225A      1.781155   226A      1.803415   227A      1.808555  
     228A      1.813206   229A      1.819811   230A      1.825992  
     231A      1.838952   232A      1.840187   233A      1.858828  
     234A      1.866542   235A      1.882922   236A      1.895778  
     237A      1.900389   238A      1.910636   239A      1.915610  
     240A      1.935185   241A      1.946179   242A      1.962731  
     243A      1.973017   244A      1.996039   245A      2.000925  
     246A      2.012026   247A      2.026898   248A      2.044874  
     249A      2.048213   250A      2.066030   251A      2.073201  
     252A      2.094841   253A      2.115382   254A      2.126286  
     255A      2.131265   256A      2.151485   257A      2.180219  
     258A      2.229478   259A      2.246564   260A      2.277826  
     261A      2.299360   262A      2.349199   263A      2.371921  
     264A      2.418329   265A      2.437526   266A      2.477716  
     267A      2.484058   268A      2.490554   269A      2.496122  
     270A      2.513130   271A      2.523732   272A      2.530664  
     273A      2.534527   274A      2.548456   275A      2.548713  
     276A      2.568398   277A      2.592008   278A      2.595356  
     279A      2.600282   280A      2.612234   281A      2.623764  
     282A      2.635197   283A      2.646412   284A      2.654067  
     285A      2.668403   286A      2.688819   287A      2.705624  
     288A      2.709566   289A      2.715748   290A      2.722950  
     291A      2.743539   292A      2.747997   293A      2.755775  
     294A      2.769428   295A      2.779483   296A      2.787153  
     297A      2.796554   298A      2.805102   299A      2.825324  
     300A      2.835893   301A      2.844407   302A      2.861798  
     303A      2.885499   304A      2.886804   305A      2.901245  
     306A      2.908830   307A      2.917987   308A      2.932597  
     309A      2.937202   310A      2.950346   311A      2.969530  
     312A      2.982115   313A      3.001087   314A      3.023998  
     315A      3.042583   316A      3.052605   317A      3.074710  
     318A      3.090729   319A      3.130726   320A      3.145918  
     321A      3.158708   322A      3.172416   323A      3.189468  
     324A      3.201531   325A      3.218188   326A      3.230177  
     327A      3.233787   328A      3.243805   329A      3.260553  
     330A      3.269872   331A      3.288784   332A      3.291461  
     333A      3.315691   334A      3.357093   335A      3.384954  
     336A      3.402977   337A      3.417103   338A      3.431758  
     339A      3.450250   340A      3.476763   341A      3.495377  
     342A      3.500709   343A      3.516906   344A      3.540891  
     345A      3.576961   346A      3.586889   347A      3.599881  
     348A      3.629330   349A      3.652436   350A      3.672517  
     351A      3.682417   352A      3.704258   353A      3.714261  
     354A      3.726399   355A      3.743712   356A      3.762143  
     357A      3.786201   358A      3.823365   359A      3.837632  
     360A      3.857443   361A      3.869724   362A      3.927606  
     363A      3.956856   364A      3.969100   365A      4.076462  
     366A      4.107095   367A      4.137373   368A      4.171852  
     369A      4.203507   370A      4.221723   371A      4.268981  
     372A      4.279015   373A      4.310137   374A      4.341044  
     375A      4.355034   376A      4.384100   377A      4.397898  
     378A      4.414076   379A      4.424978   380A      4.447402  
     381A      4.451716   382A      4.458020   383A      4.463587  
     384A      4.485371   385A      4.494937   386A      4.518515  
     387A      4.528678   388A      4.539364   389A      4.548359  
     390A      4.564796   391A      4.576365   392A      4.591409  
     393A      4.598813   394A      4.627355   395A      4.653365  
     396A      4.664452   397A      4.670657   398A      4.691988  
     399A      4.698729   400A      4.717574   401A      4.755412  
     402A      4.756667   403A      4.763762   404A      4.773771  
     405A      4.777789   406A      4.811218   407A      4.837355  
     408A      4.874592   409A      4.885525   410A      4.901752  
     411A      4.906528   412A      4.913897   413A      4.938211  
     414A      4.953267   415A      4.978189   416A      4.987928  
     417A      5.003191   418A      5.016849   419A      5.036330  
     420A      5.050438   421A      5.073495   422A      5.082501  
     423A      5.093531   424A      5.120637   425A      5.133124  
     426A      5.155795   427A      5.182025   428A      5.185883  
     429A      5.210583   430A      5.237100   431A      5.260940  
     432A      5.270043   433A      5.310513   434A      5.354414  
     435A      5.363076   436A      5.371151   437A      5.401866  
     438A      5.415207   439A      5.451062   440A      5.460404  
     441A      5.481389   442A      5.496908   443A      5.537331  
     444A      5.556608   445A      5.581519   446A      5.594920  
     447A      5.615193   448A      5.632225   449A      5.633837  
     450A      5.652908   451A      5.683076   452A      5.714664  
     453A      5.741910   454A      5.750368   455A      5.791195  
     456A      5.810074   457A      5.865596   458A      5.939237  
     459A      5.984783   460A      6.001677   461A      6.035314  
     462A      6.195193   463A      6.239232   464A      6.258723  
     465A      6.293715   466A      6.340499   467A      6.343327  
     468A      6.408759   469A      6.475266   470A      6.496424  
     471A      6.521381   472A      6.582985   473A      6.606473  
     474A      6.622712   475A      6.652278   476A      6.684367  
     477A      6.741754   478A      6.888259   479A      6.923261  
     480A      6.946918   481A      7.037463   482A      7.041365  
     483A      7.090428   484A      7.142075   485A      7.197634  
     486A      7.248550   487A      7.279762   488A      7.344533  
     489A      7.385926   490A      7.441809   491A      7.569835  
     492A      7.693595   493A      7.739797   494A      7.770258  
     495A      7.795290   496A      7.823384   497A      7.843739  
     498A      7.865135   499A      7.880541   500A      7.885124  
     501A      7.900209   502A      7.913743   503A      7.946767  
     504A      8.022586   505A      8.037525   506A      8.074339  
     507A      8.101251   508A      8.172923   509A      8.193038  
     510A      8.197973   511A      8.213634   512A      8.231781  
     513A      8.267850   514A      8.279992   515A      8.287372  
     516A      8.304542   517A      8.329179   518A      8.394305  
     519A      8.437371   520A      8.614880   521A      8.699795  
     522A      8.703090   523A      8.753246   524A      8.819258  
     525A      8.881246   526A      8.917151   527A      8.964386  
     528A      9.033954   529A      9.067578   530A      9.226489  
     531A      9.711915   532A      9.772221   533A      9.801639  
     534A      9.822199   535A      9.844720   536A      9.873892  
     537A      9.899187   538A      9.920147   539A      9.938570  
     540A      9.956560   541A     10.066287   542A     10.105712  
     543A     10.114981   544A     10.129775   545A     10.159554  
     546A     10.292396   547A     10.329052   548A     10.338233  
     549A     10.398457   550A     10.405359   551A     10.436662  
     552A     10.545312   553A     10.568336   554A     10.591287  
     555A     10.687198   556A     10.766299   557A     10.871338  
     558A     10.986586   559A     11.045100   560A     11.166221  
     561A     11.258950   562A     11.412345   563A     11.639703  
     564A     11.815730   565A     11.827207   566A     11.839448  
     567A     11.914981   568A     11.956927   569A     11.985932  
     570A     12.228591   571A     12.250788   572A     12.459109  
     573A     12.618489   574A     13.325995   575A     13.369889  
     576A     13.401612   577A     13.527995   578A     13.569913  
     579A     13.613315   580A     13.650285   581A     13.678416  
     582A     13.701311   583A     13.877032   584A     13.989286  
     585A     14.016403   586A     14.032114   587A     14.099468  
     588A     14.149940   589A     15.267823   590A     15.386697  
     591A     15.488485   592A     15.901216   593A     65.512803  
     594A     65.631830   595A     66.276234   596A     66.716481  
     597A     68.769076   598A     75.151272  

    Final Occupation by Irrep:
              A 
    DOCC [     5 ]
    NA   [     5 ]
    NB   [     5 ]

  @DF-RHF Final Energy:   -76.05383162237446

   => Energetics <=

    Nuclear Repulsion Energy =              8.7693106733272081
    One-Electron Energy =                -122.2885953917101887
    Two-Electron Energy =                  37.4654530960085168
    Total Energy =                        -76.0538316223744602

Computation Completed


Properties will be evaluated at   0.000000,   0.000000,   0.000000 [a0]

Properties computed using the SCF density matrix


 Multipole Moments:

 ------------------------------------------------------------------------------------
     Multipole            Electronic (a.u.)      Nuclear  (a.u.)        Total (a.u.)
 ------------------------------------------------------------------------------------

 L = 1.  Multiply by 2.5417464519 to convert [e a0] to [Debye]
 Dipole X            :         45.6486428          -45.1218675            0.5267753
 Dipole Y            :         27.6723076          -27.2252692            0.4470385
 Dipole Z            :          9.9186312          -10.2822909           -0.3636597
 Magnitude           :                                                    0.7807586

 ------------------------------------------------------------------------------------

*** tstop() called on ddmfs1 at Mon Jan 22 17:24:02 2024
Module time:
	user time   =     127.90 seconds =       2.13 minutes
	system time =       5.87 seconds =       0.10 minutes
	total time  =          8 seconds =       0.13 minutes
Total time:
	user time   =     127.90 seconds =       2.13 minutes
	system time =       5.87 seconds =       0.10 minutes
	total time  =          8 seconds =       0.13 minutes

*** tstart() called on ddmfs1
*** at Mon Jan 22 17:24:02 2024


  //>>>>>>>>>>>>>>>>>>>>>>>>>>>>>>>>>>>//
  //               DFMP2               //
  //<<<<<<<<<<<<<<<<<<<<<<<<<<<<<<<<<<<//

   => Loading Basis Set <=

    Name: (AUG-CC-PVTZ AUX)
    Role: RIFIT
    Keyword: DF_BASIS_MP2
    atoms 1                                   entry F          line   322 file /ddmfs1b/softs/psi4conda/share/psi4/basis/aug-cc-pvtz-ri.gbs 
    atoms 2, 5, 8, 11, 14, 17                 entry O          line   264 file /ddmfs1b/softs/psi4conda/share/psi4/basis/aug-cc-pvtz-ri.gbs 
    atoms 3-4, 6-7, 9-10, 12-13, 15-16, 18-19 entry H          line    30 file /ddmfs1b/softs/psi4conda/share/psi4/basis/aug-cc-pvtz-ri.gbs 

	 --------------------------------------------------------
	                          DF-MP2                         
	      2nd-Order Density-Fitted Moller-Plesset Theory     
	              RMP2 Wavefunction,  20 Threads             
	                                                         
	        Rob Parrish, Justin Turney, Andy Simmonett,      
	           Ed Hohenstein, and C. David Sherrill          
	 --------------------------------------------------------

   => Auxiliary Basis Set <=

  Basis Set: (AUG-CC-PVTZ AUX)
    Blend: AUG-CC-PVTZ-RI
    Number of shells: 364
    Number of basis functions: 1294
    Number of Cartesian functions: 1612
    Spherical Harmonics?: true
    Max angular momentum: 4

	 --------------------------------------------------------
	                 NBF =   598, NAUX =  1294
	 --------------------------------------------------------
	   CLASS    FOCC     OCC    AOCC    AVIR     VIR    FVIR
	   PAIRS       0       5       5     593     593       0
	 --------------------------------------------------------

	-----------------------------------------------------------
	 ==================> DF-MP2 Energies <==================== 
	-----------------------------------------------------------
	 Reference Energy          =     -76.0538316223744602 [Eh]
	 Singles Energy            =      -0.0000000000000000 [Eh]
	 Same-Spin Energy          =      -0.0691910273563570 [Eh]
	 Opposite-Spin Energy      =      -0.2185972819034839 [Eh]
	 Correlation Energy        =      -0.2877883092598409 [Eh]
	 Total Energy              =     -76.3416199316342983 [Eh]
	-----------------------------------------------------------
	 ================> DF-SCS-MP2 Energies <================== 
	-----------------------------------------------------------
	 SCS Same-Spin Scale       =       0.3333333333333333 [-]
	 SCS Opposite-Spin Scale   =       1.2000000000000000 [-]
	 SCS Same-Spin Energy      =      -0.0230636757854523 [Eh]
	 SCS Opposite-Spin Energy  =      -0.2623167382841807 [Eh]
	 SCS Correlation Energy    =      -0.2853804140696330 [Eh]
	 SCS Total Energy          =     -76.3392120364440956 [Eh]
	-----------------------------------------------------------


*** tstop() called on ddmfs1 at Mon Jan 22 17:24:07 2024
Module time:
	user time   =      32.94 seconds =       0.55 minutes
	system time =       1.93 seconds =       0.03 minutes
	total time  =          5 seconds =       0.08 minutes
Total time:
	user time   =     160.86 seconds =       2.68 minutes
	system time =       7.80 seconds =       0.13 minutes
	total time  =         13 seconds =       0.22 minutes

    Psi4 stopped on: Monday, 22 January 2024 05:24PM
    Psi4 wall time for execution: 0:00:13.39

*** Psi4 exiting successfully. Buy a developer a beer!
