
    -----------------------------------------------------------------------
          Psi4: An Open-Source Ab Initio Electronic Structure Package
                               Psi4 1.8.2 release

                         Git: Rev {} zzzzzzz 


    D. G. A. Smith, L. A. Burns, A. C. Simmonett, R. M. Parrish,
    M. C. Schieber, R. Galvelis, P. Kraus, H. Kruse, R. Di Remigio,
    A. Alenaizan, A. M. James, S. Lehtola, J. P. Misiewicz, M. Scheurer,
    R. A. Shaw, J. B. Schriber, Y. Xie, Z. L. Glick, D. A. Sirianni,
    J. S. O'Brien, J. M. Waldrop, A. Kumar, E. G. Hohenstein,
    B. P. Pritchard, B. R. Brooks, H. F. Schaefer III, A. Yu. Sokolov,
    K. Patkowski, A. E. DePrince III, U. Bozkaya, R. A. King,
    F. A. Evangelista, J. M. Turney, T. D. Crawford, C. D. Sherrill,
    J. Chem. Phys. 152(18) 184108 (2020). https://doi.org/10.1063/5.0006002

                            Additional Code Authors
    E. T. Seidl, C. L. Janssen, E. F. Valeev, M. L. Leininger,
    J. F. Gonthier, R. M. Richard, H. R. McAlexander, M. Saitow, X. Wang,
    P. Verma, M. H. Lechner, A. Jiang, S. Behnle, A. G. Heide,
    M. F. Herbst, and D. L. Poole

             Previous Authors, Complete List of Code Contributors,
                       and Citations for Specific Modules
    https://github.com/psi4/psi4/blob/master/codemeta.json
    https://github.com/psi4/psi4/graphs/contributors
    http://psicode.org/psi4manual/master/introduction.html#citing-psifour

    -----------------------------------------------------------------------


    Psi4 started on: Monday, 22 January 2024 06:10PM

    Process ID: 88731
    Host:       ddmfs1
    PSIDATADIR: /ddmfs1b/softs/psi4conda/share/psi4
    Memory:     500.0 MiB
    Threads:    20
    
  ==> Input File <==

--------------------------------------------------------------------------
MEMORY 60 GB

molecule dimer {
0 1
Gh(F)      0.000000     0.000000     0.000000
O         -1.599124     1.023579    -2.267830
H         -1.095004     0.566212    -1.620752
H         -2.338051     0.444325    -2.479137
Gh(O)     -2.343446    -0.430618     1.559407
Gh(H)     -1.488327    -0.319284     1.147914
Gh(H)     -2.658215     0.396947     1.860568
Gh(O)     -1.204583    -2.106759    -1.342688
Gh(H)     -2.121289    -2.045476    -1.127318
Gh(H)     -0.755091    -1.622357    -0.621682
Gh(O)      1.437032    -1.588073     1.754632
Gh(H)      0.692906    -2.061247     2.155763
Gh(H)      1.089729    -0.888662     1.135098
Gh(O)      2.067070    -0.264464    -2.019076
Gh(H)      1.308735    -0.187229    -1.415516
Gh(H)      2.146809     0.663476    -2.287155

units ang
no_reorient
no_com
symmetry c1
}

set {
basis        aug-cc-pVTZ
scf_type     df
}

energy("mp2")
--------------------------------------------------------------------------

  Memory set to  55.879 GiB by Python driver.

Scratch directory: /ddmfs1a/scratch/
   => Libint2 <=

    Primary   basis highest AM E, G, H:  5, 4, 3
    Auxiliary basis highest AM E, G, H:  6, 5, 4
    Onebody   basis highest AM E, G, H:  6, 5, 4
    Solid Harmonics ordering:            gaussian

*** tstart() called on ddmfs1
*** at Mon Jan 22 18:10:20 2024

   => Loading Basis Set <=

    Name: AUG-CC-PVTZ
    Role: ORBITAL
    Keyword: BASIS
    atoms 1                            entry F          line   377 file /ddmfs1b/softs/psi4conda/share/psi4/basis/aug-cc-pvtz.gbs 
    atoms 2, 5, 8, 11, 14              entry O          line   331 file /ddmfs1b/softs/psi4conda/share/psi4/basis/aug-cc-pvtz.gbs 
    atoms 3-4, 6-7, 9-10, 12-13, 15-16 entry H          line    40 file /ddmfs1b/softs/psi4conda/share/psi4/basis/aug-cc-pvtz.gbs 


         ---------------------------------------------------------
                                   SCF
               by Justin Turney, Rob Parrish, Andy Simmonett
                          and Daniel G. A. Smith
                              RHF Reference
                       20 Threads,  57220 MiB Core
         ---------------------------------------------------------

  ==> Geometry <==

    Molecular point group: c1
    Full point group: C1

    Geometry (in Angstrom), charge = 0, multiplicity = 1:

       Center              X                  Y                   Z               Mass       
    ------------   -----------------  -----------------  -----------------  -----------------
      Gh(F)           0.000000000000     0.000000000000     0.000000000000    18.998403162730
         O           -1.599124000000     1.023579000000    -2.267830000000    15.994914619570
         H           -1.095004000000     0.566212000000    -1.620752000000     1.007825032230
         H           -2.338051000000     0.444325000000    -2.479137000000     1.007825032230
      Gh(O)          -2.343446000000    -0.430618000000     1.559407000000    15.994914619570
      Gh(H)          -1.488327000000    -0.319284000000     1.147914000000     1.007825032230
      Gh(H)          -2.658215000000     0.396947000000     1.860568000000     1.007825032230
      Gh(O)          -1.204583000000    -2.106759000000    -1.342688000000    15.994914619570
      Gh(H)          -2.121289000000    -2.045476000000    -1.127318000000     1.007825032230
      Gh(H)          -0.755091000000    -1.622357000000    -0.621682000000     1.007825032230
      Gh(O)           1.437032000000    -1.588073000000     1.754632000000    15.994914619570
      Gh(H)           0.692906000000    -2.061247000000     2.155763000000     1.007825032230
      Gh(H)           1.089729000000    -0.888662000000     1.135098000000     1.007825032230
      Gh(O)           2.067070000000    -0.264464000000    -2.019076000000    15.994914619570
      Gh(H)           1.308735000000    -0.187229000000    -1.415516000000     1.007825032230
      Gh(H)           2.146809000000     0.663476000000    -2.287155000000     1.007825032230

  Running in c1 symmetry.

  Rotational constants: A =      0.04055  B =      0.03852  C =      0.02864 [cm^-1]
  Rotational constants: A =   1215.56117  B =   1154.88480  C =    858.58902 [MHz]
  Nuclear repulsion =    9.255655197413754

  Charge       = 0
  Multiplicity = 1
  Electrons    = 10
  Nalpha       = 5
  Nbeta        = 5

  ==> Algorithm <==

  SCF Algorithm Type is DF.
  DIIS enabled.
  MOM disabled.
  Fractional occupation disabled.
  Guess Type is SAD.
  Energy threshold   = 1.00e-08
  Density threshold  = 1.00e-08
  Integral threshold = 1.00e-12

  ==> Primary Basis <==

  Basis Set: AUG-CC-PVTZ
    Blend: AUG-CC-PVTZ
    Number of shells: 174
    Number of basis functions: 506
    Number of Cartesian functions: 580
    Spherical Harmonics?: true
    Max angular momentum: 3

   => Loading Basis Set <=

    Name: (AUG-CC-PVTZ AUX)
    Role: JKFIT
    Keyword: DF_BASIS_SCF
    atoms 1                            entry F          line   348 file /ddmfs1b/softs/psi4conda/share/psi4/basis/aug-cc-pvtz-jkfit.gbs 
    atoms 2, 5, 8, 11, 14              entry O          line   286 file /ddmfs1b/softs/psi4conda/share/psi4/basis/aug-cc-pvtz-jkfit.gbs 
    atoms 3-4, 6-7, 9-10, 12-13, 15-16 entry H          line    70 file /ddmfs1b/softs/psi4conda/share/psi4/basis/aug-cc-pvtz-jkfit.gbs 

  ==> Integral Setup <==

  DFHelper Memory: AOs need 1.980 GiB; user supplied 41.910 GiB. 
  Using in-core AOs.

  ==> MemDFJK: Density-Fitted J/K Matrices <==

    J tasked:                   Yes
    K tasked:                   Yes
    wK tasked:                   No
    OpenMP threads:              20
    Memory [MiB]:             42915
    Algorithm:                 Core
    Schwarz Cutoff:           1E-12
    Mask sparsity (%):       9.0237
    Fitting Condition:        1E-10

   => Auxiliary Basis Set <=

  Basis Set: (AUG-CC-PVTZ AUX)
    Blend: AUG-CC-PVTZ-JKFIT
    Number of shells: 320
    Number of basis functions: 1084
    Number of Cartesian functions: 1336
    Spherical Harmonics?: true
    Max angular momentum: 4

  Minimum eigenvalue in the overlap matrix is 1.0097867450E-04.
  Reciprocal condition number of the overlap matrix is 7.1008475299E-06.
    Using symmetric orthogonalization.

  ==> Pre-Iterations <==

  SCF Guess: Superposition of Atomic Densities via on-the-fly atomic UHF (no occupation information).

   -------------------------
    Irrep   Nso     Nmo    
   -------------------------
     A        506     506 
   -------------------------
    Total     506     506
   -------------------------

  ==> Iterations <==

                           Total Energy        Delta E     RMS |[F,P]|

   @DF-RHF iter SAD:   -75.48406212288714   -7.54841e+01   0.00000e+00 
   @DF-RHF iter   1:   -75.97682934793917   -4.92767e-01   9.28081e-04 ADIIS/DIIS
   @DF-RHF iter   2:   -76.02963897464358   -5.28096e-02   6.25853e-04 ADIIS/DIIS
   @DF-RHF iter   3:   -76.06039690502159   -3.07579e-02   4.25011e-05 DIIS
   @DF-RHF iter   4:   -76.06077716933004   -3.80264e-04   9.97380e-06 DIIS
   @DF-RHF iter   5:   -76.06079982114701   -2.26518e-05   2.24359e-06 DIIS
   @DF-RHF iter   6:   -76.06080165160701   -1.83046e-06   4.94198e-07 DIIS
   @DF-RHF iter   7:   -76.06080175034728   -9.87403e-08   9.17150e-08 DIIS
   @DF-RHF iter   8:   -76.06080175336689   -3.01961e-09   1.51687e-08 DIIS
   @DF-RHF iter   9:   -76.06080175343128   -6.43894e-11   3.71048e-09 DIIS
  Energy and wave function converged.


  ==> Post-Iterations <==

    Orbital Energies [Eh]
    ---------------------

    Doubly Occupied:                                                      

       1A    -20.565428     2A     -1.356187     3A     -0.723667  
       4A     -0.583783     5A     -0.510545  

    Virtual:                                                              

       6A      0.015353     7A      0.034354     8A      0.036707  
       9A      0.040935    10A      0.057110    11A      0.060538  
      12A      0.063482    13A      0.067717    14A      0.081825  
      15A      0.093677    16A      0.107124    17A      0.117443  
      18A      0.123496    19A      0.135658    20A      0.140193  
      21A      0.146519    22A      0.153654    23A      0.163363  
      24A      0.166187    25A      0.169242    26A      0.170980  
      27A      0.175733    28A      0.190045    29A      0.194990  
      30A      0.203820    31A      0.209044    32A      0.214531  
      33A      0.220215    34A      0.228180    35A      0.228953  
      36A      0.242111    37A      0.248453    38A      0.267461  
      39A      0.273016    40A      0.282978    41A      0.294603  
      42A      0.301185    43A      0.307544    44A      0.314697  
      45A      0.324531    46A      0.327545    47A      0.332588  
      48A      0.338794    49A      0.349089    50A      0.352272  
      51A      0.364439    52A      0.366493    53A      0.372522  
      54A      0.375888    55A      0.383304    56A      0.386309  
      57A      0.393951    58A      0.400642    59A      0.415846  
      60A      0.423849    61A      0.434571    62A      0.438229  
      63A      0.442540    64A      0.447991    65A      0.455970  
      66A      0.459471    67A      0.471150    68A      0.481191  
      69A      0.485071    70A      0.499310    71A      0.520052  
      72A      0.530763    73A      0.543316    74A      0.551290  
      75A      0.554818    76A      0.575042    77A      0.608010  
      78A      0.611589    79A      0.630031    80A      0.654892  
      81A      0.657753    82A      0.690378    83A      0.704776  
      84A      0.708321    85A      0.713783    86A      0.719147  
      87A      0.728088    88A      0.738394    89A      0.739644  
      90A      0.758463    91A      0.763229    92A      0.773775  
      93A      0.781528    94A      0.787818    95A      0.791941  
      96A      0.799658    97A      0.812331    98A      0.816426  
      99A      0.823479   100A      0.830029   101A      0.838288  
     102A      0.842045   103A      0.847887   104A      0.852843  
     105A      0.861230   106A      0.871625   107A      0.876170  
     108A      0.885070   109A      0.893907   110A      0.900982  
     111A      0.904136   112A      0.911770   113A      0.915973  
     114A      0.918450   115A      0.928356   116A      0.942963  
     117A      0.947918   118A      0.952900   119A      0.954690  
     120A      0.964138   121A      0.981461   122A      0.982062  
     123A      0.987685   124A      1.000313   125A      1.004786  
     126A      1.015358   127A      1.020813   128A      1.035675  
     129A      1.039815   130A      1.042250   131A      1.051213  
     132A      1.057195   133A      1.065678   134A      1.071408  
     135A      1.075002   136A      1.083304   137A      1.088714  
     138A      1.099998   139A      1.111276   140A      1.119441  
     141A      1.121683   142A      1.133847   143A      1.146754  
     144A      1.152096   145A      1.162661   146A      1.176089  
     147A      1.185513   148A      1.200738   149A      1.212654  
     150A      1.218748   151A      1.233730   152A      1.241506  
     153A      1.261838   154A      1.263204   155A      1.282992  
     156A      1.296239   157A      1.306750   158A      1.317102  
     159A      1.327489   160A      1.338328   161A      1.350469  
     162A      1.363802   163A      1.371797   164A      1.379168  
     165A      1.392799   166A      1.420773   167A      1.423907  
     168A      1.433116   169A      1.440933   170A      1.453796  
     171A      1.473369   172A      1.485325   173A      1.502423  
     174A      1.515459   175A      1.520786   176A      1.534583  
     177A      1.557296   178A      1.561593   179A      1.578452  
     180A      1.603055   181A      1.624217   182A      1.650620  
     183A      1.657800   184A      1.677161   185A      1.698364  
     186A      1.703974   187A      1.723633   188A      1.729608  
     189A      1.737356   190A      1.749479   191A      1.751978  
     192A      1.761492   193A      1.781135   194A      1.789618  
     195A      1.796155   196A      1.812003   197A      1.822152  
     198A      1.832310   199A      1.838400   200A      1.845796  
     201A      1.859919   202A      1.878869   203A      1.884940  
     204A      1.903659   205A      1.908085   206A      1.931522  
     207A      1.947061   208A      1.963136   209A      1.990734  
     210A      2.000728   211A      2.016311   212A      2.029640  
     213A      2.047855   214A      2.063793   215A      2.087035  
     216A      2.100201   217A      2.105377   218A      2.144795  
     219A      2.183155   220A      2.238679   221A      2.305556  
     222A      2.323181   223A      2.333891   224A      2.417527  
     225A      2.449975   226A      2.469789   227A      2.475426  
     228A      2.488062   229A      2.492503   230A      2.500651  
     231A      2.501863   232A      2.523813   233A      2.530648  
     234A      2.545009   235A      2.556190   236A      2.578476  
     237A      2.583900   238A      2.589861   239A      2.612854  
     240A      2.622206   241A      2.633278   242A      2.645712  
     243A      2.664219   244A      2.673987   245A      2.683923  
     246A      2.690257   247A      2.696501   248A      2.720854  
     249A      2.728550   250A      2.732890   251A      2.753938  
     252A      2.760136   253A      2.780640   254A      2.785080  
     255A      2.794536   256A      2.806286   257A      2.826386  
     258A      2.832184   259A      2.839740   260A      2.871775  
     261A      2.892765   262A      2.907988   263A      2.923584  
     264A      2.951758   265A      2.971886   266A      2.985241  
     267A      3.022217   268A      3.044835   269A      3.072800  
     270A      3.080674   271A      3.132672   272A      3.185952  
     273A      3.198416   274A      3.213498   275A      3.220718  
     276A      3.231582   277A      3.244042   278A      3.254966  
     279A      3.258844   280A      3.262659   281A      3.277520  
     282A      3.305648   283A      3.308956   284A      3.349027  
     285A      3.406240   286A      3.427687   287A      3.455641  
     288A      3.463472   289A      3.469047   290A      3.486897  
     291A      3.541040   292A      3.542653   293A      3.553322  
     294A      3.572218   295A      3.604301   296A      3.639755  
     297A      3.650483   298A      3.678955   299A      3.697366  
     300A      3.724809   301A      3.749571   302A      3.771106  
     303A      3.781530   304A      3.804994   305A      3.820301  
     306A      3.862147   307A      3.875286   308A      3.983725  
     309A      4.023015   310A      4.062205   311A      4.076906  
     312A      4.118046   313A      4.150607   314A      4.236899  
     315A      4.266599   316A      4.274456   317A      4.295147  
     318A      4.310910   319A      4.334341   320A      4.351337  
     321A      4.387066   322A      4.401351   323A      4.415962  
     324A      4.433807   325A      4.458794   326A      4.478467  
     327A      4.491567   328A      4.497683   329A      4.515044  
     330A      4.519410   331A      4.526265   332A      4.548219  
     333A      4.555940   334A      4.581539   335A      4.594528  
     336A      4.624478   337A      4.629290   338A      4.662938  
     339A      4.676632   340A      4.686796   341A      4.706462  
     342A      4.711912   343A      4.755733   344A      4.764963  
     345A      4.776369   346A      4.792850   347A      4.848703  
     348A      4.882674   349A      4.894059   350A      4.910179  
     351A      4.929843   352A      4.951269   353A      4.968422  
     354A      4.977215   355A      4.985828   356A      5.003260  
     357A      5.025454   358A      5.036193   359A      5.073933  
     360A      5.091220   361A      5.116098   362A      5.134346  
     363A      5.179227   364A      5.217704   365A      5.221447  
     366A      5.246870   367A      5.281355   368A      5.306717  
     369A      5.333434   370A      5.376090   371A      5.412999  
     372A      5.476617   373A      5.544879   374A      5.568583  
     375A      5.581047   376A      5.595461   377A      5.609621  
     378A      5.614710   379A      5.619724   380A      5.644968  
     381A      5.675952   382A      5.710652   383A      5.729031  
     384A      5.751060   385A      5.770586   386A      5.826831  
     387A      5.876715   388A      5.948607   389A      5.974813  
     390A      6.031948   391A      6.177426   392A      6.220973  
     393A      6.244023   394A      6.288556   395A      6.302841  
     396A      6.377311   397A      6.385431   398A      6.518291  
     399A      6.568385   400A      6.581677   401A      6.661925  
     402A      6.726638   403A      6.764214   404A      6.848654  
     405A      6.907331   406A      6.980581   407A      7.043335  
     408A      7.085776   409A      7.132151   410A      7.187144  
     411A      7.203504   412A      7.310938   413A      7.383989  
     414A      7.396607   415A      7.492622   416A      7.558056  
     417A      7.713079   418A      7.744778   419A      7.775481  
     420A      7.783783   421A      7.810090   422A      7.829992  
     423A      7.856361   424A      7.902267   425A      7.920489  
     426A      8.014219   427A      8.055594   428A      8.081906  
     429A      8.120171   430A      8.132088   431A      8.135812  
     432A      8.148525   433A      8.246333   434A      8.290757  
     435A      8.304861   436A      8.330025   437A      8.344104  
     438A      8.355791   439A      8.381285   440A      8.711122  
     441A      8.779400   442A      8.851340   443A      8.878187  
     444A      8.890442   445A      8.901586   446A      8.968185  
     447A      8.984705   448A      9.179807   449A      9.705850  
     450A      9.737231   451A      9.745232   452A      9.822304  
     453A      9.880434   454A      9.901681   455A      9.911346  
     456A      9.928043   457A     10.086031   458A     10.092530  
     459A     10.110574   460A     10.144465   461A     10.242294  
     462A     10.292938   463A     10.319576   464A     10.338292  
     465A     10.372124   466A     10.468712   467A     10.491108  
     468A     10.563790   469A     10.644716   470A     10.711414  
     471A     10.734822   472A     11.074974   473A     11.252139  
     474A     11.258887   475A     11.354822   476A     11.547929  
     477A     11.783821   478A     11.822471   479A     11.884443  
     480A     11.953294   481A     12.202324   482A     12.245970  
     483A     12.325610   484A     12.501022   485A     13.245933  
     486A     13.257596   487A     13.296343   488A     13.353064  
     489A     13.531763   490A     13.553897   491A     13.650273  
     492A     13.717051   493A     13.840135   494A     13.959021  
     495A     13.979801   496A     14.004481   497A     14.051409  
     498A     15.086490   499A     15.318030   500A     15.405807  
     501A     17.432735   502A     65.479107   503A     66.514006  
     504A     66.640101   505A     67.972382   506A     74.368458  

    Final Occupation by Irrep:
              A 
    DOCC [     5 ]
    NA   [     5 ]
    NB   [     5 ]

  @DF-RHF Final Energy:   -76.06080175343128

   => Energetics <=

    Nuclear Repulsion Energy =              9.2556551974137538
    One-Electron Energy =                -123.1536892462547854
    Two-Electron Energy =                  37.8372322954097484
    Total Energy =                        -76.0608017534312779

Computation Completed


Properties will be evaluated at   0.000000,   0.000000,   0.000000 [a0]

Properties computed using the SCF density matrix


 Multipole Moments:

 ------------------------------------------------------------------------------------
     Multipole            Electronic (a.u.)      Nuclear  (a.u.)        Total (a.u.)
 ------------------------------------------------------------------------------------

 L = 1.  Multiply by 2.5417464519 to convert [e a0] to [Debye]
 Dipole X            :         30.5087886          -30.6627849           -0.1539964
 Dipole Y            :        -18.0786749           17.3839100           -0.6947649
 Dipole Z            :         42.3269291          -42.0322881            0.2946409
 Magnitude           :                                                    0.7702119

 ------------------------------------------------------------------------------------

*** tstop() called on ddmfs1 at Mon Jan 22 18:10:25 2024
Module time:
	user time   =      84.93 seconds =       1.42 minutes
	system time =       4.06 seconds =       0.07 minutes
	total time  =          5 seconds =       0.08 minutes
Total time:
	user time   =      84.93 seconds =       1.42 minutes
	system time =       4.06 seconds =       0.07 minutes
	total time  =          5 seconds =       0.08 minutes

*** tstart() called on ddmfs1
*** at Mon Jan 22 18:10:25 2024


  //>>>>>>>>>>>>>>>>>>>>>>>>>>>>>>>>>>>//
  //               DFMP2               //
  //<<<<<<<<<<<<<<<<<<<<<<<<<<<<<<<<<<<//

   => Loading Basis Set <=

    Name: (AUG-CC-PVTZ AUX)
    Role: RIFIT
    Keyword: DF_BASIS_MP2
    atoms 1                            entry F          line   322 file /ddmfs1b/softs/psi4conda/share/psi4/basis/aug-cc-pvtz-ri.gbs 
    atoms 2, 5, 8, 11, 14              entry O          line   264 file /ddmfs1b/softs/psi4conda/share/psi4/basis/aug-cc-pvtz-ri.gbs 
    atoms 3-4, 6-7, 9-10, 12-13, 15-16 entry H          line    30 file /ddmfs1b/softs/psi4conda/share/psi4/basis/aug-cc-pvtz-ri.gbs 

	 --------------------------------------------------------
	                          DF-MP2                         
	      2nd-Order Density-Fitted Moller-Plesset Theory     
	              RMP2 Wavefunction,  20 Threads             
	                                                         
	        Rob Parrish, Justin Turney, Andy Simmonett,      
	           Ed Hohenstein, and C. David Sherrill          
	 --------------------------------------------------------

   => Auxiliary Basis Set <=

  Basis Set: (AUG-CC-PVTZ AUX)
    Blend: AUG-CC-PVTZ-RI
    Number of shells: 308
    Number of basis functions: 1096
    Number of Cartesian functions: 1366
    Spherical Harmonics?: true
    Max angular momentum: 4

	 --------------------------------------------------------
	                 NBF =   506, NAUX =  1096
	 --------------------------------------------------------
	   CLASS    FOCC     OCC    AOCC    AVIR     VIR    FVIR
	   PAIRS       0       5       5     501     501       0
	 --------------------------------------------------------

	-----------------------------------------------------------
	 ==================> DF-MP2 Energies <==================== 
	-----------------------------------------------------------
	 Reference Energy          =     -76.0608017534312779 [Eh]
	 Singles Energy            =      -0.0000000000000000 [Eh]
	 Same-Spin Energy          =      -0.0682678400356146 [Eh]
	 Opposite-Spin Energy      =      -0.2156784444611554 [Eh]
	 Correlation Energy        =      -0.2839462844967701 [Eh]
	 Total Energy              =     -76.3447480379280421 [Eh]
	-----------------------------------------------------------
	 ================> DF-SCS-MP2 Energies <================== 
	-----------------------------------------------------------
	 SCS Same-Spin Scale       =       0.3333333333333333 [-]
	 SCS Opposite-Spin Scale   =       1.2000000000000000 [-]
	 SCS Same-Spin Energy      =      -0.0227559466785382 [Eh]
	 SCS Opposite-Spin Energy  =      -0.2588141333533865 [Eh]
	 SCS Correlation Energy    =      -0.2815700800319247 [Eh]
	 SCS Total Energy          =     -76.3423718334632042 [Eh]
	-----------------------------------------------------------


*** tstop() called on ddmfs1 at Mon Jan 22 18:10:29 2024
Module time:
	user time   =      24.10 seconds =       0.40 minutes
	system time =       1.24 seconds =       0.02 minutes
	total time  =          4 seconds =       0.07 minutes
Total time:
	user time   =     109.05 seconds =       1.82 minutes
	system time =       5.31 seconds =       0.09 minutes
	total time  =          9 seconds =       0.15 minutes

    Psi4 stopped on: Monday, 22 January 2024 06:10PM
    Psi4 wall time for execution: 0:00:08.94

*** Psi4 exiting successfully. Buy a developer a beer!
