
    -----------------------------------------------------------------------
          Psi4: An Open-Source Ab Initio Electronic Structure Package
                               Psi4 1.9 release

                         Git: Rev {} zzzzzzz 


    D. G. A. Smith, L. A. Burns, A. C. Simmonett, R. M. Parrish,
    M. C. Schieber, R. Galvelis, P. Kraus, H. Kruse, R. Di Remigio,
    A. Alenaizan, A. M. James, S. Lehtola, J. P. Misiewicz, M. Scheurer,
    R. A. Shaw, J. B. Schriber, Y. Xie, Z. L. Glick, D. A. Sirianni,
    J. S. O'Brien, J. M. Waldrop, A. Kumar, E. G. Hohenstein,
    B. P. Pritchard, B. R. Brooks, H. F. Schaefer III, A. Yu. Sokolov,
    K. Patkowski, A. E. DePrince III, U. Bozkaya, R. A. King,
    F. A. Evangelista, J. M. Turney, T. D. Crawford, C. D. Sherrill,
    J. Chem. Phys. 152(18) 184108 (2020). https://doi.org/10.1063/5.0006002

                            Additional Code Authors
    E. T. Seidl, C. L. Janssen, E. F. Valeev, M. L. Leininger,
    J. F. Gonthier, R. M. Richard, H. R. McAlexander, M. Saitow, X. Wang,
    P. Verma, M. H. Lechner, A. Jiang, S. Behnle, A. G. Heide,
    M. F. Herbst, and D. L. Poole

             Previous Authors, Complete List of Code Contributors,
                       and Citations for Specific Modules
    https://github.com/psi4/psi4/blob/master/codemeta.json
    https://github.com/psi4/psi4/graphs/contributors
    http://psicode.org/psi4manual/master/introduction.html#citing-psifour

    -----------------------------------------------------------------------


    Psi4 started on: Saturday, 06 January 2024 10:07PM

    Process ID: 557304
    Host:       moses-razer
    PSIDATADIR: /home/kchung25/anaconda3/envs/psi4_19/share/psi4
    Memory:     500.0 MiB
    Threads:    6
    
  ==> Input File <==

--------------------------------------------------------------------------
MEMORY 60 GB

molecule dimer {
-1 1
F      0.000000     0.000000     0.000000
--
0 1
O     -1.204616    -0.136785     2.716651
H     -0.764095     0.061585     1.873340
H     -0.834247    -0.946190     3.055175
O     -2.460796     0.663282    -0.931792
H     -1.503367     0.475959    -0.909133
H     -2.899102    -0.181671    -1.051267
O     -0.180675     2.936706    -0.188779
H      0.620744     3.487452    -0.094289
H      0.182580     2.104557    -0.393553
O     -1.696100    -2.154749    -0.360661
H     -0.850512    -1.713972    -0.187306
H     -2.184590    -2.113638     0.460314
O      2.323319     0.756460     1.937201
H      2.977037     0.096931     1.837480
H      1.649232     0.600110     1.235624
O      2.482985     0.570779    -1.259187
H      1.623031     0.282269    -0.820127
H      2.415357     1.553745    -1.408463

units ang
no_reorient
no_com
symmetry c1
}

set {
basis        aug-cc-pVTZ
scf_type     df
}

energy("mp2", bsse_type="cp")
--------------------------------------------------------------------------

  Memory set to  55.879 GiB by Python driver.

Scratch directory: /scratch/

  //>>>>>>>>>>>>>>>>>>>>>>>>>>>>>>>>>>>>>//
  // ManyBody Setup: N-Body Levels [1, 2]//
  //<<<<<<<<<<<<<<<<<<<<<<<<<<<<<<<<<<<<<//

        Number of 1-body computations:     2
        Number of 2-body computations:     1

    -----------------------------------------------------------------------
          Psi4: An Open-Source Ab Initio Electronic Structure Package
                               Psi4 1.9 release

                         Git: Rev {} zzzzzzz 


    D. G. A. Smith, L. A. Burns, A. C. Simmonett, R. M. Parrish,
    M. C. Schieber, R. Galvelis, P. Kraus, H. Kruse, R. Di Remigio,
    A. Alenaizan, A. M. James, S. Lehtola, J. P. Misiewicz, M. Scheurer,
    R. A. Shaw, J. B. Schriber, Y. Xie, Z. L. Glick, D. A. Sirianni,
    J. S. O'Brien, J. M. Waldrop, A. Kumar, E. G. Hohenstein,
    B. P. Pritchard, B. R. Brooks, H. F. Schaefer III, A. Yu. Sokolov,
    K. Patkowski, A. E. DePrince III, U. Bozkaya, R. A. King,
    F. A. Evangelista, J. M. Turney, T. D. Crawford, C. D. Sherrill,
    J. Chem. Phys. 152(18) 184108 (2020). https://doi.org/10.1063/5.0006002

                            Additional Code Authors
    E. T. Seidl, C. L. Janssen, E. F. Valeev, M. L. Leininger,
    J. F. Gonthier, R. M. Richard, H. R. McAlexander, M. Saitow, X. Wang,
    P. Verma, M. H. Lechner, A. Jiang, S. Behnle, A. G. Heide,
    M. F. Herbst, and D. L. Poole

             Previous Authors, Complete List of Code Contributors,
                       and Citations for Specific Modules
    https://github.com/psi4/psi4/blob/master/codemeta.json
    https://github.com/psi4/psi4/graphs/contributors
    http://psicode.org/psi4manual/master/introduction.html#citing-psifour

    -----------------------------------------------------------------------


    Psi4 started on: Saturday, 06 January 2024 10:07PM

    Process ID: 557304
    Host:       moses-razer
    PSIDATADIR: /home/kchung25/anaconda3/envs/psi4_19/share/psi4
    Memory:     55.9 GiB
    Threads:    6
    
  ==> Input QCSchema <==

--------------------------------------------------------------------------
{'driver': 'energy',
 'extras': {'psiapi': True, 'wfn_qcvars_only': True},
 'id': None,
 'keywords': {'SCF_TYPE': 'DF', 'function_kwargs': {}},
 'model': {'basis': 'aug-cc-pvtz', 'method': 'mp2'},
 'molecule': {'atom_labels': ['', '', '', '', '', '', '', '', '', '', '', '', '', '', '', '', '', '', ''],
              'atomic_numbers': [9, 8, 1, 1, 8, 1, 1, 8, 1, 1, 8, 1, 1, 8, 1, 1, 8, 1, 1],
              'extras': {},
              'fix_com': True,
              'fix_orientation': True,
              'fix_symmetry': 'c1',
              'fragment_charges': [0.0, 0.0],
              'fragment_multiplicities': [1, 1],
              'fragments': [[0], [1, 2, 3, 4, 5, 6, 7, 8, 9, 10, 11, 12, 13, 14, 15, 16, 17, 18]],
              'geometry': [0.0, 0.0, 0.0, -2.276394326344507, -0.258486188070749, 5.133726368451135,
                           -1.4439302838316992, 0.11637878343632035, 3.540099539865168, -1.5764983509848167,
                           -1.7880399626469423, 5.77344401534562, -4.650230490622122, 1.2534213239459193,
                           -1.7608316858926005, -2.8409518960511586, 0.8994321569467825, -1.7180123816158517,
                           -5.478508789767041, -0.3433084349380491, -1.9866067147316746, -0.3414262677170931,
                           5.549570050988756, -0.35674060823780335, 1.173036154021194, 6.590329155680154,
                           -0.17818038664329316, 0.34502619598609024, 3.97703634541515, -0.7437073858523046,
                           -3.2051644813890223, -4.07188547910413, -0.6815505141337458, -1.6072347464153884,
                           -3.2389376667032046, -0.35395704165500397, -4.128276796413917, -3.994196948360433,
                           0.8698673917139947, 4.390436612072556, 1.4295022248638287, 3.66077933996303,
                           5.625784595354596, 0.18317304306675275, 3.47233396100625, 3.116596797341065,
                           1.1340435451484974, 2.3349909540427034, 4.6921616236199055, 1.0786159881626938,
                           -2.3795185707368662, 3.067084083127944, 0.5334111037068556, -1.5498154180933523,
                           4.564363225207444, 2.936152518799473, -2.661609327840709],
              'mass_numbers': [19, 16, 1, 1, 16, 1, 1, 16, 1, 1, 16, 1, 1, 16, 1, 1, 16, 1, 1],
              'masses': [18.99840316273, 15.99491461957, 1.00782503223, 1.00782503223, 15.99491461957, 1.00782503223,
                         1.00782503223, 15.99491461957, 1.00782503223, 1.00782503223, 15.99491461957, 1.00782503223,
                         1.00782503223, 15.99491461957, 1.00782503223, 1.00782503223, 15.99491461957, 1.00782503223,
                         1.00782503223],
              'molecular_charge': 0.0,
              'molecular_multiplicity': 1,
              'name': 'dimer',
              'provenance': {'creator': 'QCElemental',
                             'routine': 'qcelemental.molparse.from_string',
                             'version': '0.27.1'},
              'real': [False, True, True, True, True, True, True, True, True, True, True, True, True, True, True, True,
                       True, True, True],
              'schema_name': 'qcschema_molecule',
              'schema_version': 2,
              'symbols': ['F', 'O', 'H', 'H', 'O', 'H', 'H', 'O', 'H', 'H', 'O', 'H', 'H', 'O', 'H', 'H', 'O', 'H',
                          'H'],
              'validated': True},
 'protocols': {'stdout': True},
 'provenance': {'creator': 'QCElemental', 'routine': 'qcelemental.models.results', 'version': '0.27.1'},
 'schema_name': 'qcschema_input',
 'schema_version': 1}
--------------------------------------------------------------------------

Scratch directory: /scratch/
   => Libint2 <=

    Primary   basis highest AM E, G, H:  5, 4, 3
    Auxiliary basis highest AM E, G, H:  6, 5, 4
    Onebody   basis highest AM E, G, H:  6, 5, 4
    Solid Harmonics ordering:            gaussian

*** tstart() called on moses-razer
*** at Sat Jan  6 22:07:28 2024

   => Loading Basis Set <=

    Name: AUG-CC-PVTZ
    Role: ORBITAL
    Keyword: BASIS
    atoms 1                                   entry F          line   377 file /home/kchung25/anaconda3/envs/p415env/share/psi4/basis/aug-cc-pvtz.gbs 
    atoms 2, 5, 8, 11, 14, 17                 entry O          line   331 file /home/kchung25/anaconda3/envs/p415env/share/psi4/basis/aug-cc-pvtz.gbs 
    atoms 3-4, 6-7, 9-10, 12-13, 15-16, 18-19 entry H          line    40 file /home/kchung25/anaconda3/envs/p415env/share/psi4/basis/aug-cc-pvtz.gbs 


         ---------------------------------------------------------
                                   SCF
               by Justin Turney, Rob Parrish, Andy Simmonett
                          and Daniel G. A. Smith
                              RHF Reference
                        6 Threads,  57220 MiB Core
         ---------------------------------------------------------

  ==> Geometry <==

    Molecular point group: c1
    Full point group: C1

    Geometry (in Bohr), charge = 0, multiplicity = 1:

       Center              X                  Y                   Z               Mass       
    ------------   -----------------  -----------------  -----------------  -----------------
      Gh(F)           0.000000000000     0.000000000000     0.000000000000    18.998403162730
         O           -2.276394326345    -0.258486188071     5.133726368451    15.994914619570
         H           -1.443930283832     0.116378783436     3.540099539865     1.007825032230
         H           -1.576498350985    -1.788039962647     5.773444015346     1.007825032230
         O           -4.650230490622     1.253421323946    -1.760831685893    15.994914619570
         H           -2.840951896051     0.899432156947    -1.718012381616     1.007825032230
         H           -5.478508789767    -0.343308434938    -1.986606714732     1.007825032230
         O           -0.341426267717     5.549570050989    -0.356740608238    15.994914619570
         H            1.173036154021     6.590329155680    -0.178180386643     1.007825032230
         H            0.345026195986     3.977036345415    -0.743707385852     1.007825032230
         O           -3.205164481389    -4.071885479104    -0.681550514134    15.994914619570
         H           -1.607234746415    -3.238937666703    -0.353957041655     1.007825032230
         H           -4.128276796414    -3.994196948360     0.869867391714     1.007825032230
         O            4.390436612073     1.429502224864     3.660779339963    15.994914619570
         H            5.625784595355     0.183173043067     3.472333961006     1.007825032230
         H            3.116596797341     1.134043545148     2.334990954043     1.007825032230
         O            4.692161623620     1.078615988163    -2.379518570737    15.994914619570
         H            3.067084083128     0.533411103707    -1.549815418093     1.007825032230
         H            4.564363225207     2.936152518799    -2.661609327841     1.007825032230

  Running in c1 symmetry.

  Rotational constants: A =      0.03698  B =      0.02607  C =      0.02453 [cm^-1]
  Rotational constants: A =   1108.57299  B =    781.61773  C =    735.49106 [MHz]
  Nuclear repulsion =  250.906646700566625

  Charge       = 0
  Multiplicity = 1
  Electrons    = 60
  Nalpha       = 30
  Nbeta        = 30

  ==> Algorithm <==

  SCF Algorithm Type is DF.
  DIIS enabled.
  MOM disabled.
  Fractional occupation disabled.
  Guess Type is SAD.
  Energy threshold   = 1.00e-08
  Density threshold  = 1.00e-08
  Integral threshold = 1.00e-12

  ==> Primary Basis <==

  Basis Set: AUG-CC-PVTZ
    Blend: AUG-CC-PVTZ
    Number of shells: 206
    Number of basis functions: 598
    Number of Cartesian functions: 685
    Spherical Harmonics?: true
    Max angular momentum: 3

   => Loading Basis Set <=

    Name: (AUG-CC-PVTZ AUX)
    Role: JKFIT
    Keyword: DF_BASIS_SCF
    atoms 1                                   entry F          line   348 file /home/kchung25/anaconda3/envs/p415env/share/psi4/basis/aug-cc-pvtz-jkfit.gbs 
    atoms 2, 5, 8, 11, 14, 17                 entry O          line   286 file /home/kchung25/anaconda3/envs/p415env/share/psi4/basis/aug-cc-pvtz-jkfit.gbs 
    atoms 3-4, 6-7, 9-10, 12-13, 15-16, 18-19 entry H          line    70 file /home/kchung25/anaconda3/envs/p415env/share/psi4/basis/aug-cc-pvtz-jkfit.gbs 

  ==> Integral Setup <==

  DFHelper Memory: AOs need 3.126 GiB; user supplied 41.910 GiB. 
  Using in-core AOs.

  ==> MemDFJK: Density-Fitted J/K Matrices <==

    J tasked:                   Yes
    K tasked:                   Yes
    wK tasked:                   No
    OpenMP threads:               6
    Memory [MiB]:             42915
    Algorithm:                 Core
    Schwarz Cutoff:           1E-12
    Mask sparsity (%):      11.2834
    Fitting Condition:        1E-10

   => Auxiliary Basis Set <=

  Basis Set: (AUG-CC-PVTZ AUX)
    Blend: AUG-CC-PVTZ-JKFIT
    Number of shells: 378
    Number of basis functions: 1280
    Number of Cartesian functions: 1577
    Spherical Harmonics?: true
    Max angular momentum: 4

  Minimum eigenvalue in the overlap matrix is 3.2872191009E-05.
  Reciprocal condition number of the overlap matrix is 2.1391517697E-06.
    Using symmetric orthogonalization.

  ==> Pre-Iterations <==

  SCF Guess: Superposition of Atomic Densities via on-the-fly atomic UHF (no occupation information).

   -------------------------
    Irrep   Nso     Nmo    
   -------------------------
     A        598     598 
   -------------------------
    Total     598     598
   -------------------------

  ==> Iterations <==

                           Total Energy        Delta E     RMS |[F,P]|

   @DF-RHF iter SAD:  -453.04888698378841   -4.53049e+02   0.00000e+00 
   @DF-RHF iter   1:  -455.82101630063016   -2.77213e+00   1.90192e-03 DIIS/ADIIS
   @DF-RHF iter   2:  -456.13561627873719   -3.14600e-01   1.30315e-03 DIIS/ADIIS
   @DF-RHF iter   3:  -456.32595769480213   -1.90341e-01   9.51626e-05 DIIS
   @DF-RHF iter   4:  -456.32873822754283   -2.78053e-03   2.49268e-05 DIIS
   @DF-RHF iter   5:  -456.32891643359301   -1.78206e-04   8.93289e-06 DIIS
   @DF-RHF iter   6:  -456.32893714990496   -2.07163e-05   3.40934e-06 DIIS
   @DF-RHF iter   7:  -456.32894035626362   -3.20636e-06   6.86087e-07 DIIS
   @DF-RHF iter   8:  -456.32894060608402   -2.49820e-07   1.57407e-07 DIIS
   @DF-RHF iter   9:  -456.32894061576627   -9.68225e-09   6.92298e-08 DIIS
   @DF-RHF iter  10:  -456.32894061700256   -1.23629e-09   1.88969e-08 DIIS
   @DF-RHF iter  11:  -456.32894061716456   -1.62004e-10   6.22288e-09 DIIS
  Energy and wave function converged.


  ==> Post-Iterations <==

    Orbital Energies [Eh]
    ---------------------

    Doubly Occupied:                                                      

       1A    -20.616229     2A    -20.597638     3A    -20.589458  
       4A    -20.588715     5A    -20.582738     6A    -20.565259  
       7A     -1.382462     8A     -1.380352     9A     -1.375717  
      10A     -1.370855    11A     -1.364712    12A     -1.344875  
      13A     -0.750912    14A     -0.748902    15A     -0.738643  
      16A     -0.738592    17A     -0.735628    18A     -0.712799  
      19A     -0.619983    20A     -0.613687    21A     -0.604834  
      22A     -0.601090    23A     -0.591542    24A     -0.585878  
      25A     -0.550664    26A     -0.534870    27A     -0.532085  
      28A     -0.529287    29A     -0.522440    30A     -0.505150  

    Virtual:                                                              

      31A      0.001850    32A      0.025376    33A      0.035039  
      34A      0.039037    35A      0.050022    36A      0.053634  
      37A      0.059302    38A      0.064560    39A      0.078079  
      40A      0.080093    41A      0.093766    42A      0.098209  
      43A      0.103557    44A      0.119299    45A      0.139273  
      46A      0.141000    47A      0.148761    48A      0.149119  
      49A      0.163634    50A      0.166176    51A      0.171504  
      52A      0.174284    53A      0.181331    54A      0.182263  
      55A      0.188895    56A      0.194015    57A      0.202364  
      58A      0.203994    59A      0.208351    60A      0.212808  
      61A      0.220114    62A      0.225067    63A      0.228104  
      64A      0.236784    65A      0.243528    66A      0.246620  
      67A      0.255449    68A      0.261377    69A      0.268222  
      70A      0.271947    71A      0.277387    72A      0.280769  
      73A      0.289623    74A      0.299852    75A      0.301798  
      76A      0.315731    77A      0.320038    78A      0.327011  
      79A      0.331328    80A      0.338164    81A      0.347971  
      82A      0.354458    83A      0.364409    84A      0.366833  
      85A      0.376303    86A      0.387856    87A      0.390696  
      88A      0.399928    89A      0.404693    90A      0.411196  
      91A      0.416280    92A      0.423030    93A      0.430997  
      94A      0.432846    95A      0.438098    96A      0.443221  
      97A      0.452869    98A      0.457420    99A      0.459009  
     100A      0.466127   101A      0.471013   102A      0.480603  
     103A      0.491213   104A      0.498773   105A      0.500942  
     106A      0.517957   107A      0.525420   108A      0.528207  
     109A      0.531303   110A      0.559070   111A      0.560749  
     112A      0.571566   113A      0.580967   114A      0.592726  
     115A      0.603120   116A      0.607937   117A      0.617115  
     118A      0.624807   119A      0.639722   120A      0.655061  
     121A      0.663914   122A      0.673120   123A      0.682451  
     124A      0.691360   125A      0.698465   126A      0.705429  
     127A      0.713609   128A      0.719016   129A      0.724219  
     130A      0.732107   131A      0.735174   132A      0.740608  
     133A      0.755654   134A      0.759278   135A      0.764115  
     136A      0.771426   137A      0.773652   138A      0.783181  
     139A      0.789132   140A      0.791621   141A      0.797912  
     142A      0.809621   143A      0.816644   144A      0.823630  
     145A      0.833888   146A      0.839094   147A      0.844626  
     148A      0.850405   149A      0.865016   150A      0.873592  
     151A      0.882663   152A      0.886294   153A      0.896637  
     154A      0.906489   155A      0.908051   156A      0.911183  
     157A      0.919675   158A      0.926200   159A      0.937024  
     160A      0.947390   161A      0.949949   162A      0.957676  
     163A      0.965594   164A      0.966658   165A      0.970407  
     166A      0.975684   167A      0.978648   168A      0.985924  
     169A      1.001576   170A      1.005857   171A      1.012607  
     172A      1.015510   173A      1.021940   174A      1.028814  
     175A      1.036239   176A      1.046606   177A      1.050802  
     178A      1.055263   179A      1.059976   180A      1.067074  
     181A      1.068980   182A      1.073933   183A      1.077804  
     184A      1.089310   185A      1.097620   186A      1.102533  
     187A      1.110734   188A      1.118317   189A      1.125832  
     190A      1.130466   191A      1.143579   192A      1.148710  
     193A      1.150903   194A      1.159767   195A      1.168637  
     196A      1.176939   197A      1.188569   198A      1.199569  
     199A      1.202515   200A      1.215166   201A      1.225676  
     202A      1.231341   203A      1.238609   204A      1.240218  
     205A      1.248955   206A      1.262382   207A      1.263419  
     208A      1.275537   209A      1.279268   210A      1.290893  
     211A      1.302841   212A      1.305492   213A      1.320175  
     214A      1.324388   215A      1.342028   216A      1.357644  
     217A      1.365807   218A      1.381216   219A      1.392033  
     220A      1.399784   221A      1.406725   222A      1.409272  
     223A      1.415338   224A      1.433953   225A      1.447915  
     226A      1.459349   227A      1.466972   228A      1.472462  
     229A      1.482251   230A      1.487299   231A      1.493760  
     232A      1.509765   233A      1.522264   234A      1.533820  
     235A      1.541117   236A      1.548694   237A      1.562840  
     238A      1.573236   239A      1.584994   240A      1.592654  
     241A      1.605101   242A      1.617405   243A      1.629705  
     244A      1.640801   245A      1.646347   246A      1.655988  
     247A      1.672957   248A      1.683022   249A      1.698688  
     250A      1.709808   251A      1.720852   252A      1.728236  
     253A      1.747704   254A      1.759021   255A      1.774021  
     256A      1.781014   257A      1.792474   258A      1.808693  
     259A      1.818477   260A      1.826877   261A      1.828996  
     262A      1.866804   263A      1.878958   264A      1.880487  
     265A      1.885979   266A      1.915666   267A      1.919674  
     268A      1.943311   269A      1.953215   270A      1.962765  
     271A      1.982113   272A      1.990663   273A      2.014995  
     274A      2.019728   275A      2.048590   276A      2.069179  
     277A      2.079750   278A      2.084362   279A      2.120739  
     280A      2.127841   281A      2.135184   282A      2.154970  
     283A      2.191655   284A      2.292036   285A      2.315706  
     286A      2.320828   287A      2.330690   288A      2.346658  
     289A      2.350589   290A      2.357543   291A      2.375034  
     292A      2.384175   293A      2.391586   294A      2.415300  
     295A      2.423748   296A      2.434059   297A      2.439133  
     298A      2.451486   299A      2.460281   300A      2.466287  
     301A      2.477040   302A      2.485709   303A      2.489649  
     304A      2.499981   305A      2.504551   306A      2.520005  
     307A      2.525597   308A      2.534603   309A      2.545921  
     310A      2.554557   311A      2.560092   312A      2.569572  
     313A      2.581429   314A      2.585791   315A      2.596814  
     316A      2.610170   317A      2.615733   318A      2.631696  
     319A      2.634602   320A      2.638833   321A      2.658935  
     322A      2.678878   323A      2.686638   324A      2.693054  
     325A      2.708424   326A      2.723333   327A      2.739267  
     328A      2.744591   329A      2.755875   330A      2.766060  
     331A      2.770242   332A      2.779690   333A      2.792471  
     334A      2.794801   335A      2.813789   336A      2.815846  
     337A      2.820557   338A      2.826745   339A      2.833033  
     340A      2.852576   341A      2.862082   342A      2.869529  
     343A      2.885166   344A      2.898477   345A      2.904881  
     346A      2.915732   347A      2.939119   348A      2.948970  
     349A      2.965963   350A      2.979777   351A      2.985294  
     352A      2.989569   353A      3.012102   354A      3.053695  
     355A      3.059542   356A      3.064485   357A      3.084723  
     358A      3.116653   359A      3.133261   360A      3.148876  
     361A      3.188846   362A      3.387045   363A      3.427109  
     364A      3.486391   365A      3.549504   366A      3.575514  
     367A      3.610113   368A      3.629237   369A      3.683098  
     370A      3.724972   371A      3.749740   372A      3.769283  
     373A      3.801755   374A      3.811218   375A      3.824573  
     376A      3.869883   377A      3.886177   378A      3.892123  
     379A      3.978268   380A      3.996714   381A      4.038628  
     382A      4.055563   383A      4.063240   384A      4.082254  
     385A      4.094085   386A      4.097920   387A      4.114400  
     388A      4.120498   389A      4.131378   390A      4.142831  
     391A      4.155185   392A      4.170149   393A      4.204400  
     394A      4.212802   395A      4.232131   396A      4.240582  
     397A      4.245463   398A      4.266157   399A      4.270028  
     400A      4.273629   401A      4.290532   402A      4.303374  
     403A      4.312627   404A      4.318670   405A      4.330276  
     406A      4.343324   407A      4.344385   408A      4.360212  
     409A      4.369111   410A      4.376647   411A      4.380799  
     412A      4.384850   413A      4.393392   414A      4.401350  
     415A      4.412020   416A      4.429178   417A      4.430232  
     418A      4.435281   419A      4.444472   420A      4.451247  
     421A      4.460445   422A      4.473797   423A      4.490814  
     424A      4.495464   425A      4.508214   426A      4.518458  
     427A      4.532105   428A      4.543987   429A      4.555344  
     430A      4.561967   431A      4.568236   432A      4.582563  
     433A      4.600983   434A      4.621838   435A      4.636819  
     436A      4.644012   437A      4.664481   438A      4.677915  
     439A      4.691714   440A      4.699003   441A      4.713315  
     442A      4.750038   443A      4.779233   444A      4.795521  
     445A      4.801316   446A      4.839259   447A      4.850139  
     448A      4.873424   449A      4.888307   450A      4.960380  
     451A      4.980402   452A      4.987309   453A      5.013899  
     454A      5.042503   455A      5.064644   456A      5.102514  
     457A      5.130392   458A      5.135131   459A      5.165845  
     460A      5.184476   461A      5.196875   462A      5.211820  
     463A      5.225243   464A      5.243340   465A      5.259259  
     466A      5.266264   467A      5.301385   468A      5.312966  
     469A      5.324998   470A      5.345529   471A      5.359795  
     472A      5.376806   473A      5.400791   474A      5.420443  
     475A      5.428261   476A      5.434616   477A      5.438760  
     478A      5.454903   479A      5.466127   480A      5.546537  
     481A      5.556965   482A      5.569311   483A      5.588606  
     484A      5.649420   485A      5.655929   486A      5.757132  
     487A      5.781226   488A      5.793339   489A      5.809909  
     490A      5.810376   491A      5.888239   492A      6.200566  
     493A      6.221574   494A      6.245817   495A      6.265043  
     496A      6.312549   497A      6.343212   498A      6.551262  
     499A      6.567805   500A      6.577190   501A      6.580446  
     502A      6.593224   503A      6.630409   504A      6.768045  
     505A      6.801438   506A      6.821600   507A      6.833697  
     508A      6.856202   509A      6.865653   510A      6.897682  
     511A      6.910957   512A      6.935339   513A      6.950836  
     514A      7.009367   515A      7.073628   516A      7.108021  
     517A      7.161028   518A      7.171589   519A      7.191882  
     520A      7.218041   521A      7.246883   522A      7.259829  
     523A      7.276945   524A      7.289449   525A      7.315634  
     526A      7.322702   527A      7.324986   528A      7.332819  
     529A      7.337550   530A      7.341937   531A      7.354876  
     532A      7.357037   533A      7.363298   534A      7.369316  
     535A      7.375978   536A      7.389633   537A      7.393220  
     538A      7.401011   539A      7.408869   540A      7.414374  
     541A      7.422681   542A      7.431796   543A      7.441288  
     544A      7.455447   545A      7.486362   546A      7.492398  
     547A      7.513634   548A      7.523279   549A      7.527741  
     550A      7.555924   551A      7.572668   552A      7.689704  
     553A      7.714682   554A      7.783756   555A      7.791052  
     556A      7.819292   557A      7.826258   558A      7.886602  
     559A      7.944672   560A      7.946313   561A      7.973987  
     562A      7.980272   563A      7.991166   564A      8.002718  
     565A      8.033905   566A      8.038496   567A      8.061107  
     568A      8.072837   569A      8.092509   570A      8.607876  
     571A      8.801748   572A      8.816506   573A      8.828504  
     574A      8.831783   575A      8.899464   576A     10.291376  
     577A     10.332503   578A     10.412209   579A     10.484818  
     580A     10.548328   581A     10.610881   582A     10.689168  
     583A     11.643021   584A     13.155700   585A     13.215816  
     586A     13.316709   587A     13.415601   588A     13.442158  
     589A     14.871182   590A     15.061858   591A     15.218892  
     592A     16.331055   593A     16.493804   594A     16.616538  
     595A     16.984406   596A     17.023465   597A     17.050605  
     598A     73.800910  

    Final Occupation by Irrep:
              A 
    DOCC [    30 ]
    NA   [    30 ]
    NB   [    30 ]

  @DF-RHF Final Energy:  -456.32894061716456

   => Energetics <=

    Nuclear Repulsion Energy =            250.9066467005666254
    One-Electron Energy =               -1128.5191730472802192
    Two-Electron Energy =                 421.2835857295490314
    Total Energy =                       -456.3289406171645624

Computation Completed


Properties will be evaluated at   0.000000,   0.000000,   0.000000 [a0]

Properties computed using the SCF density matrix


 Multipole Moments:

 ------------------------------------------------------------------------------------
     Multipole            Electronic (a.u.)      Nuclear  (a.u.)        Total (a.u.)
 ------------------------------------------------------------------------------------

 L = 1.  Multiply by 2.5417464519 to convert [e a0] to [Debye]
 Dipole X            :         11.5677240          -10.3084485            1.2592755
 Dipole Y            :        -47.8253888           46.8513770           -0.9740118
 Dipole Z            :        -35.8171435           35.7257618           -0.0913816
 Magnitude           :                                                    1.5946236

 ------------------------------------------------------------------------------------

*** tstop() called on moses-razer at Sat Jan  6 22:07:43 2024
Module time:
	user time   =      77.19 seconds =       1.29 minutes
	system time =       2.80 seconds =       0.05 minutes
	total time  =         15 seconds =       0.25 minutes
Total time:
	user time   =      77.19 seconds =       1.29 minutes
	system time =       2.80 seconds =       0.05 minutes
	total time  =         15 seconds =       0.25 minutes

*** tstart() called on moses-razer
*** at Sat Jan  6 22:07:43 2024


  //>>>>>>>>>>>>>>>>>>>>>>>>>>>>>>>>>>>//
  //               DFMP2               //
  //<<<<<<<<<<<<<<<<<<<<<<<<<<<<<<<<<<<//

   => Loading Basis Set <=

    Name: (AUG-CC-PVTZ AUX)
    Role: RIFIT
    Keyword: DF_BASIS_MP2
    atoms 1                                   entry F          line   322 file /home/kchung25/anaconda3/envs/p415env/share/psi4/basis/aug-cc-pvtz-ri.gbs 
    atoms 2, 5, 8, 11, 14, 17                 entry O          line   264 file /home/kchung25/anaconda3/envs/p415env/share/psi4/basis/aug-cc-pvtz-ri.gbs 
    atoms 3-4, 6-7, 9-10, 12-13, 15-16, 18-19 entry H          line    30 file /home/kchung25/anaconda3/envs/p415env/share/psi4/basis/aug-cc-pvtz-ri.gbs 

	 --------------------------------------------------------
	                          DF-MP2                         
	      2nd-Order Density-Fitted Moller-Plesset Theory     
	              RMP2 Wavefunction,   6 Threads             
	                                                         
	        Rob Parrish, Justin Turney, Andy Simmonett,      
	           Ed Hohenstein, and C. David Sherrill          
	 --------------------------------------------------------

   => Auxiliary Basis Set <=

  Basis Set: (AUG-CC-PVTZ AUX)
    Blend: AUG-CC-PVTZ-RI
    Number of shells: 364
    Number of basis functions: 1294
    Number of Cartesian functions: 1612
    Spherical Harmonics?: true
    Max angular momentum: 4

	 --------------------------------------------------------
	                 NBF =   598, NAUX =  1294
	 --------------------------------------------------------
	   CLASS    FOCC     OCC    AOCC    AVIR     VIR    FVIR
	   PAIRS       0      30      30     568     568       0
	 --------------------------------------------------------

	-----------------------------------------------------------
	 ==================> DF-MP2 Energies <==================== 
	-----------------------------------------------------------
	 Reference Energy          =    -456.3289406171645624 [Eh]
	 Singles Energy            =      -0.0000000000000000 [Eh]
	 Same-Spin Energy          =      -0.4155151361362259 [Eh]
	 Opposite-Spin Energy      =      -1.3046780069228643 [Eh]
	 Correlation Energy        =      -1.7201931430590902 [Eh]
	 Total Energy              =    -458.0491337602236399 [Eh]
	-----------------------------------------------------------
	 ================> DF-SCS-MP2 Energies <================== 
	-----------------------------------------------------------
	 SCS Same-Spin Scale       =       0.3333333333333333 [-]
	 SCS Opposite-Spin Scale   =       1.2000000000000000 [-]
	 SCS Same-Spin Energy      =      -0.1385050453787420 [Eh]
	 SCS Opposite-Spin Energy  =      -1.5656136083074370 [Eh]
	 SCS Correlation Energy    =      -1.7041186536861790 [Eh]
	 SCS Total Energy          =    -458.0330592708507425 [Eh]
	-----------------------------------------------------------


*** tstop() called on moses-razer at Sat Jan  6 22:07:49 2024
Module time:
	user time   =      31.78 seconds =       0.53 minutes
	system time =       1.51 seconds =       0.03 minutes
	total time  =          6 seconds =       0.10 minutes
Total time:
	user time   =     108.98 seconds =       1.82 minutes
	system time =       4.31 seconds =       0.07 minutes
	total time  =         21 seconds =       0.35 minutes

    Psi4 stopped on: Saturday, 06 January 2024 10:07PM
    Psi4 wall time for execution: 0:00:21.03


    -----------------------------------------------------------------------
          Psi4: An Open-Source Ab Initio Electronic Structure Package
                               Psi4 1.9 release

                         Git: Rev {} zzzzzzz 


    D. G. A. Smith, L. A. Burns, A. C. Simmonett, R. M. Parrish,
    M. C. Schieber, R. Galvelis, P. Kraus, H. Kruse, R. Di Remigio,
    A. Alenaizan, A. M. James, S. Lehtola, J. P. Misiewicz, M. Scheurer,
    R. A. Shaw, J. B. Schriber, Y. Xie, Z. L. Glick, D. A. Sirianni,
    J. S. O'Brien, J. M. Waldrop, A. Kumar, E. G. Hohenstein,
    B. P. Pritchard, B. R. Brooks, H. F. Schaefer III, A. Yu. Sokolov,
    K. Patkowski, A. E. DePrince III, U. Bozkaya, R. A. King,
    F. A. Evangelista, J. M. Turney, T. D. Crawford, C. D. Sherrill,
    J. Chem. Phys. 152(18) 184108 (2020). https://doi.org/10.1063/5.0006002

                            Additional Code Authors
    E. T. Seidl, C. L. Janssen, E. F. Valeev, M. L. Leininger,
    J. F. Gonthier, R. M. Richard, H. R. McAlexander, M. Saitow, X. Wang,
    P. Verma, M. H. Lechner, A. Jiang, S. Behnle, A. G. Heide,
    M. F. Herbst, and D. L. Poole

             Previous Authors, Complete List of Code Contributors,
                       and Citations for Specific Modules
    https://github.com/psi4/psi4/blob/master/codemeta.json
    https://github.com/psi4/psi4/graphs/contributors
    http://psicode.org/psi4manual/master/introduction.html#citing-psifour

    -----------------------------------------------------------------------


    Psi4 started on: Saturday, 06 January 2024 10:07PM

    Process ID: 557304
    Host:       moses-razer
    PSIDATADIR: /home/kchung25/anaconda3/envs/psi4_19/share/psi4
    Memory:     55.9 GiB
    Threads:    6
    
  ==> Input QCSchema <==

--------------------------------------------------------------------------
{'driver': 'energy',
 'extras': {'psiapi': True, 'wfn_qcvars_only': True},
 'id': None,
 'keywords': {'SCF_TYPE': 'DF', 'function_kwargs': {}},
 'model': {'basis': 'aug-cc-pvtz', 'method': 'mp2'},
 'molecule': {'atom_labels': ['', '', '', '', '', '', '', '', '', '', '', '', '', '', '', '', '', '', ''],
              'atomic_numbers': [9, 8, 1, 1, 8, 1, 1, 8, 1, 1, 8, 1, 1, 8, 1, 1, 8, 1, 1],
              'extras': {},
              'fix_com': True,
              'fix_orientation': True,
              'fix_symmetry': 'c1',
              'fragment_charges': [-1.0, 0.0],
              'fragment_multiplicities': [1, 1],
              'fragments': [[0], [1, 2, 3, 4, 5, 6, 7, 8, 9, 10, 11, 12, 13, 14, 15, 16, 17, 18]],
              'geometry': [0.0, 0.0, 0.0, -2.276394326344507, -0.258486188070749, 5.133726368451135,
                           -1.4439302838316992, 0.11637878343632035, 3.540099539865168, -1.5764983509848167,
                           -1.7880399626469423, 5.77344401534562, -4.650230490622122, 1.2534213239459193,
                           -1.7608316858926005, -2.8409518960511586, 0.8994321569467825, -1.7180123816158517,
                           -5.478508789767041, -0.3433084349380491, -1.9866067147316746, -0.3414262677170931,
                           5.549570050988756, -0.35674060823780335, 1.173036154021194, 6.590329155680154,
                           -0.17818038664329316, 0.34502619598609024, 3.97703634541515, -0.7437073858523046,
                           -3.2051644813890223, -4.07188547910413, -0.6815505141337458, -1.6072347464153884,
                           -3.2389376667032046, -0.35395704165500397, -4.128276796413917, -3.994196948360433,
                           0.8698673917139947, 4.390436612072556, 1.4295022248638287, 3.66077933996303,
                           5.625784595354596, 0.18317304306675275, 3.47233396100625, 3.116596797341065,
                           1.1340435451484974, 2.3349909540427034, 4.6921616236199055, 1.0786159881626938,
                           -2.3795185707368662, 3.067084083127944, 0.5334111037068556, -1.5498154180933523,
                           4.564363225207444, 2.936152518799473, -2.661609327840709],
              'mass_numbers': [19, 16, 1, 1, 16, 1, 1, 16, 1, 1, 16, 1, 1, 16, 1, 1, 16, 1, 1],
              'masses': [18.99840316273, 15.99491461957, 1.00782503223, 1.00782503223, 15.99491461957, 1.00782503223,
                         1.00782503223, 15.99491461957, 1.00782503223, 1.00782503223, 15.99491461957, 1.00782503223,
                         1.00782503223, 15.99491461957, 1.00782503223, 1.00782503223, 15.99491461957, 1.00782503223,
                         1.00782503223],
              'molecular_charge': -1.0,
              'molecular_multiplicity': 1,
              'name': 'dimer',
              'provenance': {'creator': 'QCElemental',
                             'routine': 'qcelemental.molparse.from_string',
                             'version': '0.27.1'},
              'real': [True, False, False, False, False, False, False, False, False, False, False, False, False, False,
                       False, False, False, False, False],
              'schema_name': 'qcschema_molecule',
              'schema_version': 2,
              'symbols': ['F', 'O', 'H', 'H', 'O', 'H', 'H', 'O', 'H', 'H', 'O', 'H', 'H', 'O', 'H', 'H', 'O', 'H',
                          'H'],
              'validated': True},
 'protocols': {'stdout': True},
 'provenance': {'creator': 'QCElemental', 'routine': 'qcelemental.models.results', 'version': '0.27.1'},
 'schema_name': 'qcschema_input',
 'schema_version': 1}
--------------------------------------------------------------------------

Scratch directory: /scratch/
   => Libint2 <=

    Primary   basis highest AM E, G, H:  5, 4, 3
    Auxiliary basis highest AM E, G, H:  6, 5, 4
    Onebody   basis highest AM E, G, H:  6, 5, 4
    Solid Harmonics ordering:            gaussian

*** tstart() called on moses-razer
*** at Sat Jan  6 22:07:49 2024

   => Loading Basis Set <=

    Name: AUG-CC-PVTZ
    Role: ORBITAL
    Keyword: BASIS
    atoms 1                                   entry F          line   377 file /home/kchung25/anaconda3/envs/p415env/share/psi4/basis/aug-cc-pvtz.gbs 
    atoms 2, 5, 8, 11, 14, 17                 entry O          line   331 file /home/kchung25/anaconda3/envs/p415env/share/psi4/basis/aug-cc-pvtz.gbs 
    atoms 3-4, 6-7, 9-10, 12-13, 15-16, 18-19 entry H          line    40 file /home/kchung25/anaconda3/envs/p415env/share/psi4/basis/aug-cc-pvtz.gbs 


         ---------------------------------------------------------
                                   SCF
               by Justin Turney, Rob Parrish, Andy Simmonett
                          and Daniel G. A. Smith
                              RHF Reference
                        6 Threads,  57220 MiB Core
         ---------------------------------------------------------

  ==> Geometry <==

    Molecular point group: c1
    Full point group: C1

    Geometry (in Bohr), charge = -1, multiplicity = 1:

       Center              X                  Y                   Z               Mass       
    ------------   -----------------  -----------------  -----------------  -----------------
         F            0.000000000000     0.000000000000     0.000000000000    18.998403162730
      Gh(O)          -2.276394326345    -0.258486188071     5.133726368451    15.994914619570
      Gh(H)          -1.443930283832     0.116378783436     3.540099539865     1.007825032230
      Gh(H)          -1.576498350985    -1.788039962647     5.773444015346     1.007825032230
      Gh(O)          -4.650230490622     1.253421323946    -1.760831685893    15.994914619570
      Gh(H)          -2.840951896051     0.899432156947    -1.718012381616     1.007825032230
      Gh(H)          -5.478508789767    -0.343308434938    -1.986606714732     1.007825032230
      Gh(O)          -0.341426267717     5.549570050989    -0.356740608238    15.994914619570
      Gh(H)           1.173036154021     6.590329155680    -0.178180386643     1.007825032230
      Gh(H)           0.345026195986     3.977036345415    -0.743707385852     1.007825032230
      Gh(O)          -3.205164481389    -4.071885479104    -0.681550514134    15.994914619570
      Gh(H)          -1.607234746415    -3.238937666703    -0.353957041655     1.007825032230
      Gh(H)          -4.128276796414    -3.994196948360     0.869867391714     1.007825032230
      Gh(O)           4.390436612073     1.429502224864     3.660779339963    15.994914619570
      Gh(H)           5.625784595355     0.183173043067     3.472333961006     1.007825032230
      Gh(H)           3.116596797341     1.134043545148     2.334990954043     1.007825032230
      Gh(O)           4.692161623620     1.078615988163    -2.379518570737    15.994914619570
      Gh(H)           3.067084083128     0.533411103707    -1.549815418093     1.007825032230
      Gh(H)           4.564363225207     2.936152518799    -2.661609327841     1.007825032230

  Running in c1 symmetry.

  Rotational constants: A =      0.03698  B =      0.02607  C =      0.02453 [cm^-1]
  Rotational constants: A =   1108.57299  B =    781.61773  C =    735.49106 [MHz]
  Nuclear repulsion =    0.000000000000000

  Charge       = -1
  Multiplicity = 1
  Electrons    = 10
  Nalpha       = 5
  Nbeta        = 5

  ==> Algorithm <==

  SCF Algorithm Type is DF.
  DIIS enabled.
  MOM disabled.
  Fractional occupation disabled.
  Guess Type is SAD.
  Energy threshold   = 1.00e-08
  Density threshold  = 1.00e-08
  Integral threshold = 1.00e-12

  ==> Primary Basis <==

  Basis Set: AUG-CC-PVTZ
    Blend: AUG-CC-PVTZ
    Number of shells: 206
    Number of basis functions: 598
    Number of Cartesian functions: 685
    Spherical Harmonics?: true
    Max angular momentum: 3

   => Loading Basis Set <=

    Name: (AUG-CC-PVTZ AUX)
    Role: JKFIT
    Keyword: DF_BASIS_SCF
    atoms 1                                   entry F          line   348 file /home/kchung25/anaconda3/envs/p415env/share/psi4/basis/aug-cc-pvtz-jkfit.gbs 
    atoms 2, 5, 8, 11, 14, 17                 entry O          line   286 file /home/kchung25/anaconda3/envs/p415env/share/psi4/basis/aug-cc-pvtz-jkfit.gbs 
    atoms 3-4, 6-7, 9-10, 12-13, 15-16, 18-19 entry H          line    70 file /home/kchung25/anaconda3/envs/p415env/share/psi4/basis/aug-cc-pvtz-jkfit.gbs 

  ==> Integral Setup <==

  DFHelper Memory: AOs need 3.126 GiB; user supplied 41.910 GiB. 
  Using in-core AOs.

  ==> MemDFJK: Density-Fitted J/K Matrices <==

    J tasked:                   Yes
    K tasked:                   Yes
    wK tasked:                   No
    OpenMP threads:               6
    Memory [MiB]:             42915
    Algorithm:                 Core
    Schwarz Cutoff:           1E-12
    Mask sparsity (%):      11.2834
    Fitting Condition:        1E-10

   => Auxiliary Basis Set <=

  Basis Set: (AUG-CC-PVTZ AUX)
    Blend: AUG-CC-PVTZ-JKFIT
    Number of shells: 378
    Number of basis functions: 1280
    Number of Cartesian functions: 1577
    Spherical Harmonics?: true
    Max angular momentum: 4

  Minimum eigenvalue in the overlap matrix is 3.2872191009E-05.
  Reciprocal condition number of the overlap matrix is 2.1391517697E-06.
    Using symmetric orthogonalization.

  ==> Pre-Iterations <==

  SCF Guess: Superposition of Atomic Densities via on-the-fly atomic UHF (no occupation information).

   -------------------------
    Irrep   Nso     Nmo    
   -------------------------
     A        598     598 
   -------------------------
    Total     598     598
   -------------------------

  ==> Iterations <==

                           Total Energy        Delta E     RMS |[F,P]|

   @DF-RHF iter SAD:   -98.82535140146334   -9.88254e+01   0.00000e+00 
   @DF-RHF iter   1:   -99.33803671637853   -5.12685e-01   9.12928e-04 DIIS/ADIIS
   @DF-RHF iter   2:   -99.37298117778329   -3.49445e-02   8.92598e-04 DIIS/ADIIS
   @DF-RHF iter   3:   -99.45104760924056   -7.80664e-02   3.18321e-05 DIIS
   @DF-RHF iter   4:   -99.45112592180402   -7.83126e-05   1.10991e-05 DIIS
   @DF-RHF iter   5:   -99.45113709601706   -1.11742e-05   7.00324e-07 DIIS
   @DF-RHF iter   6:   -99.45113719868323   -1.02666e-07   6.75490e-08 DIIS
   @DF-RHF iter   7:   -99.45113719981502   -1.13180e-09   8.31131e-09 DIIS
  Energy and wave function converged.


  ==> Post-Iterations <==

    Orbital Energies [Eh]
    ---------------------

    Doubly Occupied:                                                      

       1A    -25.833527     2A     -1.075875     3A     -0.180931  
       4A     -0.180891     5A     -0.180873  

    Virtual:                                                              

       6A      0.120827     7A      0.128062     8A      0.133255  
       9A      0.138580    10A      0.145263    11A      0.151659  
      12A      0.165271    13A      0.171304    14A      0.180954  
      15A      0.182292    16A      0.192832    17A      0.208057  
      18A      0.240330    19A      0.252392    20A      0.255652  
      21A      0.259882    22A      0.265424    23A      0.267903  
      24A      0.273408    25A      0.280005    26A      0.283735  
      27A      0.290964    28A      0.295652    29A      0.301562  
      30A      0.303936    31A      0.313440    32A      0.317924  
      33A      0.318385    34A      0.323777    35A      0.329982  
      36A      0.337825    37A      0.344718    38A      0.352395  
      39A      0.367877    40A      0.372021    41A      0.387322  
      42A      0.398585    43A      0.416172    44A      0.423893  
      45A      0.441603    46A      0.446969    47A      0.453382  
      48A      0.458404    49A      0.462891    50A      0.470341  
      51A      0.477388    52A      0.482224    53A      0.483170  
      54A      0.494561    55A      0.496437    56A      0.506939  
      57A      0.510457    58A      0.514437    59A      0.519335  
      60A      0.531226    61A      0.534574    62A      0.539871  
      63A      0.543986    64A      0.553109    65A      0.557198  
      66A      0.560971    67A      0.566881    68A      0.574738  
      69A      0.579268    70A      0.586762    71A      0.593853  
      72A      0.600250    73A      0.602292    74A      0.614340  
      75A      0.618983    76A      0.633382    77A      0.649694  
      78A      0.652936    79A      0.663547    80A      0.664477  
      81A      0.684341    82A      0.709289    83A      0.723487  
      84A      0.731092    85A      0.740578    86A      0.760638  
      87A      0.765525    88A      0.770571    89A      0.785375  
      90A      0.790677    91A      0.817502    92A      0.833443  
      93A      0.862884    94A      0.865308    95A      0.872399  
      96A      0.884468    97A      0.889341    98A      0.894196  
      99A      0.898687   100A      0.912989   101A      0.920084  
     102A      0.927709   103A      0.934639   104A      0.939132  
     105A      0.946151   106A      0.954292   107A      0.963618  
     108A      0.967585   109A      0.971248   110A      0.977052  
     111A      0.984528   112A      0.988895   113A      0.992648  
     114A      0.999504   115A      1.005998   116A      1.015279  
     117A      1.027542   118A      1.032466   119A      1.038051  
     120A      1.040170   121A      1.042555   122A      1.049242  
     123A      1.056463   124A      1.057462   125A      1.067574  
     126A      1.073760   127A      1.075436   128A      1.080484  
     129A      1.088354   130A      1.096556   131A      1.101869  
     132A      1.107808   133A      1.117230   134A      1.125897  
     135A      1.127669   136A      1.138024   137A      1.142883  
     138A      1.143352   139A      1.156196   140A      1.163604  
     141A      1.168343   142A      1.176907   143A      1.183074  
     144A      1.188313   145A      1.192454   146A      1.198385  
     147A      1.208497   148A      1.210995   149A      1.222360  
     150A      1.232614   151A      1.239610   152A      1.243310  
     153A      1.247642   154A      1.258694   155A      1.263068  
     156A      1.270100   157A      1.282968   158A      1.286641  
     159A      1.290996   160A      1.295759   161A      1.308689  
     162A      1.319496   163A      1.327073   164A      1.335554  
     165A      1.341206   166A      1.355898   167A      1.368704  
     168A      1.380317   169A      1.383805   170A      1.393855  
     171A      1.413581   172A      1.420596   173A      1.424045  
     174A      1.433160   175A      1.444483   176A      1.449081  
     177A      1.460677   178A      1.465950   179A      1.484739  
     180A      1.498146   181A      1.498734   182A      1.510632  
     183A      1.525047   184A      1.532258   185A      1.541604  
     186A      1.556053   187A      1.562983   188A      1.571912  
     189A      1.585334   190A      1.601022   191A      1.617925  
     192A      1.624447   193A      1.628241   194A      1.644281  
     195A      1.657069   196A      1.676452   197A      1.676874  
     198A      1.690737   199A      1.697406   200A      1.712592  
     201A      1.722182   202A      1.727176   203A      1.748707  
     204A      1.766751   205A      1.770196   206A      1.772899  
     207A      1.780629   208A      1.795409   209A      1.809320  
     210A      1.816017   211A      1.826631   212A      1.838948  
     213A      1.870150   214A      1.880207   215A      1.887476  
     216A      1.907307   217A      1.916297   218A      1.926153  
     219A      1.934900   220A      1.937228   221A      1.948628  
     222A      1.965189   223A      1.966991   224A      1.983204  
     225A      1.988953   226A      1.998174   227A      2.003612  
     228A      2.012644   229A      2.026642   230A      2.039469  
     231A      2.044054   232A      2.063058   233A      2.072798  
     234A      2.081841   235A      2.085560   236A      2.089003  
     237A      2.093512   238A      2.111601   239A      2.122176  
     240A      2.159611   241A      2.162882   242A      2.171236  
     243A      2.184651   244A      2.196603   245A      2.206229  
     246A      2.217155   247A      2.224895   248A      2.243345  
     249A      2.261089   250A      2.274566   251A      2.297030  
     252A      2.318737   253A      2.339344   254A      2.352132  
     255A      2.369859   256A      2.384278   257A      2.418271  
     258A      2.454412   259A      2.473962   260A      2.511936  
     261A      2.531194   262A      2.577544   263A      2.635398  
     264A      2.641903   265A      2.659258   266A      2.673515  
     267A      2.678624   268A      2.689568   269A      2.697266  
     270A      2.715105   271A      2.722570   272A      2.726057  
     273A      2.743111   274A      2.759712   275A      2.766234  
     276A      2.778696   277A      2.785131   278A      2.790912  
     279A      2.801571   280A      2.802798   281A      2.819835  
     282A      2.827487   283A      2.853750   284A      2.864678  
     285A      2.867359   286A      2.878634   287A      2.906493  
     288A      2.910444   289A      2.917168   290A      2.925113  
     291A      2.932520   292A      2.937140   293A      2.957566  
     294A      2.969674   295A      2.984849   296A      2.989253  
     297A      2.998524   298A      3.013371   299A      3.024634  
     300A      3.029254   301A      3.036549   302A      3.056638  
     303A      3.065628   304A      3.070126   305A      3.092532  
     306A      3.111847   307A      3.151842   308A      3.163862  
     309A      3.176207   310A      3.196305   311A      3.202836  
     312A      3.217369   313A      3.244532   314A      3.248363  
     315A      3.253045   316A      3.277705   317A      3.302314  
     318A      3.372425   319A      3.379088   320A      3.397894  
     321A      3.400039   322A      3.409943   323A      3.411732  
     324A      3.423313   325A      3.429062   326A      3.440238  
     327A      3.443790   328A      3.444735   329A      3.465542  
     330A      3.478021   331A      3.483717   332A      3.495615  
     333A      3.516431   334A      3.531206   335A      3.551986  
     336A      3.572593   337A      3.595632   338A      3.627175  
     339A      3.631617   340A      3.651587   341A      3.670921  
     342A      3.686032   343A      3.701048   344A      3.722078  
     345A      3.740910   346A      3.753925   347A      3.778858  
     348A      3.782050   349A      3.809031   350A      3.819539  
     351A      3.830923   352A      3.840958   353A      3.846274  
     354A      3.869492   355A      3.877418   356A      3.905293  
     357A      3.917234   358A      3.947301   359A      3.961776  
     360A      3.984851   361A      4.006306   362A      4.017139  
     363A      4.040131   364A      4.055565   365A      4.117215  
     366A      4.130342   367A      4.156715   368A      4.186952  
     369A      4.202378   370A      4.348737   371A      4.380262  
     372A      4.425688   373A      4.609651   374A      4.640182  
     375A      4.641674   376A      4.647954   377A      4.656423  
     378A      4.671163   379A      4.673781   380A      4.692283  
     381A      4.698762   382A      4.712579   383A      4.740263  
     384A      4.780604   385A      4.831511   386A      4.841131  
     387A      4.845583   388A      4.859294   389A      4.869473  
     390A      4.876405   391A      4.887357   392A      4.895987  
     393A      4.909667   394A      4.910625   395A      4.911885  
     396A      4.921354   397A      4.924084   398A      4.952064  
     399A      4.960712   400A      4.982104   401A      5.011083  
     402A      5.013781   403A      5.048591   404A      5.087118  
     405A      5.104417   406A      5.106799   407A      5.115347  
     408A      5.155141   409A      5.164520   410A      5.173506  
     411A      5.204792   412A      5.225022   413A      5.237062  
     414A      5.266771   415A      5.283133   416A      5.291931  
     417A      5.303371   418A      5.310510   419A      5.332388  
     420A      5.340269   421A      5.384837   422A      5.395130  
     423A      5.440553   424A      5.466470   425A      5.481820  
     426A      5.502367   427A      5.516969   428A      5.530198  
     429A      5.536991   430A      5.573522   431A      5.614410  
     432A      5.646801   433A      5.684667   434A      5.717189  
     435A      5.740712   436A      5.742951   437A      5.750323  
     438A      5.772659   439A      5.785457   440A      5.806915  
     441A      5.840416   442A      5.860973   443A      5.867703  
     444A      5.880452   445A      5.901574   446A      5.919999  
     447A      5.927439   448A      5.970397   449A      6.016224  
     450A      6.030758   451A      6.038721   452A      6.070010  
     453A      6.106654   454A      6.126729   455A      6.166044  
     456A      6.180601   457A      6.308356   458A      6.352764  
     459A      6.363416   460A      6.403058   461A      6.414046  
     462A      6.461388   463A      6.593283   464A      6.639703  
     465A      6.653456   466A      6.690794   467A      6.702841  
     468A      6.712866   469A      6.740512   470A      6.830831  
     471A      6.841210   472A      6.915403   473A      6.944275  
     474A      6.968535   475A      6.984356   476A      7.006229  
     477A      7.036755   478A      7.203119   479A      7.318600  
     480A      7.333040   481A      7.338181   482A      7.343572  
     483A      7.431801   484A      7.920653   485A      7.926505  
     486A      7.959683   487A      7.983573   488A      7.993769  
     489A      8.003816   490A      8.014736   491A      8.030960  
     492A      8.039287   493A      8.067947   494A      8.106176  
     495A      8.149415   496A      8.256002   497A      8.274042  
     498A      8.316843   499A      8.330569   500A      8.359255  
     501A      8.388413   502A      8.423708   503A      8.437385  
     504A      8.465983   505A      8.467448   506A      8.481851  
     507A      8.492617   508A      8.507548   509A      8.508088  
     510A      8.525167   511A      8.541171   512A      8.543445  
     513A      8.563444   514A      8.837479   515A      8.996151  
     516A      9.007926   517A      9.018374   518A      9.027149  
     519A      9.044075   520A      9.089851   521A      9.135108  
     522A      9.169556   523A      9.231260   524A      9.260463  
     525A      9.339594   526A      9.531563   527A      9.575368  
     528A      9.656498   529A      9.717958   530A      9.749710  
     531A      9.846961   532A      9.890562   533A      9.937291  
     534A      9.964941   535A      9.976809   536A      9.988687  
     537A     10.008651   538A     10.034991   539A     10.082669  
     540A     10.097811   541A     10.105210   542A     10.122879  
     543A     10.129000   544A     10.139846   545A     10.157005  
     546A     10.191800   547A     10.254383   548A     10.274015  
     549A     10.308194   550A     10.318994   551A     10.325125  
     552A     10.342845   553A     10.398957   554A     10.457828  
     555A     10.485631   556A     10.487865   557A     10.521912  
     558A     10.549088   559A     10.565726   560A     10.571399  
     561A     10.681712   562A     11.224054   563A     11.400097  
     564A     11.418212   565A     11.427104   566A     11.436759  
     567A     11.449963   568A     11.959435   569A     11.992204  
     570A     12.029744   571A     12.076081   572A     12.127668  
     573A     12.151203   574A     12.247260   575A     12.418648  
     576A     12.424587   577A     12.461713   578A     12.505473  
     579A     12.585524   580A     13.657814   581A     13.839572  
     582A     13.874300   583A     13.903566   584A     13.933091  
     585A     13.954064   586A     14.136474   587A     14.167149  
     588A     14.195772   589A     14.208373   590A     14.225280  
     591A     14.235623   592A     15.210692   593A     65.923904  
     594A     66.304573   595A     66.571307   596A     67.379845  
     597A     67.416725   598A     67.469970  

    Final Occupation by Irrep:
              A 
    DOCC [     5 ]
    NA   [     5 ]
    NB   [     5 ]

  @DF-RHF Final Energy:   -99.45113719981502

   => Energetics <=

    Nuclear Repulsion Energy =              0.0000000000000000
    One-Electron Energy =                -143.9980724147912383
    Two-Electron Energy =                  44.5469352149762159
    Total Energy =                        -99.4511371998150224

Computation Completed


Properties will be evaluated at   0.000000,   0.000000,   0.000000 [a0]

Properties computed using the SCF density matrix


 Multipole Moments:

 ------------------------------------------------------------------------------------
     Multipole            Electronic (a.u.)      Nuclear  (a.u.)        Total (a.u.)
 ------------------------------------------------------------------------------------

 L = 1.  Multiply by 2.5417464519 to convert [e a0] to [Debye]
 Dipole X            :         -0.0000342            0.0000000           -0.0000342
 Dipole Y            :          0.0001355            0.0000000            0.0001355
 Dipole Z            :          0.0000345            0.0000000            0.0000345
 Magnitude           :                                                    0.0001440

 ------------------------------------------------------------------------------------

*** tstop() called on moses-razer at Sat Jan  6 22:07:59 2024
Module time:
	user time   =      51.48 seconds =       0.86 minutes
	system time =       1.68 seconds =       0.03 minutes
	total time  =         10 seconds =       0.17 minutes
Total time:
	user time   =     160.81 seconds =       2.68 minutes
	system time =       5.99 seconds =       0.10 minutes
	total time  =         31 seconds =       0.52 minutes

*** tstart() called on moses-razer
*** at Sat Jan  6 22:07:59 2024


  //>>>>>>>>>>>>>>>>>>>>>>>>>>>>>>>>>>>//
  //               DFMP2               //
  //<<<<<<<<<<<<<<<<<<<<<<<<<<<<<<<<<<<//

   => Loading Basis Set <=

    Name: (AUG-CC-PVTZ AUX)
    Role: RIFIT
    Keyword: DF_BASIS_MP2
    atoms 1                                   entry F          line   322 file /home/kchung25/anaconda3/envs/p415env/share/psi4/basis/aug-cc-pvtz-ri.gbs 
    atoms 2, 5, 8, 11, 14, 17                 entry O          line   264 file /home/kchung25/anaconda3/envs/p415env/share/psi4/basis/aug-cc-pvtz-ri.gbs 
    atoms 3-4, 6-7, 9-10, 12-13, 15-16, 18-19 entry H          line    30 file /home/kchung25/anaconda3/envs/p415env/share/psi4/basis/aug-cc-pvtz-ri.gbs 

	 --------------------------------------------------------
	                          DF-MP2                         
	      2nd-Order Density-Fitted Moller-Plesset Theory     
	              RMP2 Wavefunction,   6 Threads             
	                                                         
	        Rob Parrish, Justin Turney, Andy Simmonett,      
	           Ed Hohenstein, and C. David Sherrill          
	 --------------------------------------------------------

   => Auxiliary Basis Set <=

  Basis Set: (AUG-CC-PVTZ AUX)
    Blend: AUG-CC-PVTZ-RI
    Number of shells: 364
    Number of basis functions: 1294
    Number of Cartesian functions: 1612
    Spherical Harmonics?: true
    Max angular momentum: 4

	 --------------------------------------------------------
	                 NBF =   598, NAUX =  1294
	 --------------------------------------------------------
	   CLASS    FOCC     OCC    AOCC    AVIR     VIR    FVIR
	   PAIRS       0       5       5     593     593       0
	 --------------------------------------------------------

	-----------------------------------------------------------
	 ==================> DF-MP2 Energies <==================== 
	-----------------------------------------------------------
	 Reference Energy          =     -99.4511371998150224 [Eh]
	 Singles Energy            =      -0.0000000000000000 [Eh]
	 Same-Spin Energy          =      -0.0820413762011218 [Eh]
	 Opposite-Spin Energy      =      -0.2299004246847947 [Eh]
	 Correlation Energy        =      -0.3119418008859164 [Eh]
	 Total Energy              =     -99.7630790007009409 [Eh]
	-----------------------------------------------------------
	 ================> DF-SCS-MP2 Energies <================== 
	-----------------------------------------------------------
	 SCS Same-Spin Scale       =       0.3333333333333333 [-]
	 SCS Opposite-Spin Scale   =       1.2000000000000000 [-]
	 SCS Same-Spin Energy      =      -0.0273471254003739 [Eh]
	 SCS Opposite-Spin Energy  =      -0.2758805096217536 [Eh]
	 SCS Correlation Energy    =      -0.3032276350221275 [Eh]
	 SCS Total Energy          =     -99.7543648348371477 [Eh]
	-----------------------------------------------------------


*** tstop() called on moses-razer at Sat Jan  6 22:08:03 2024
Module time:
	user time   =      16.16 seconds =       0.27 minutes
	system time =       0.99 seconds =       0.02 minutes
	total time  =          4 seconds =       0.07 minutes
Total time:
	user time   =     176.97 seconds =       2.95 minutes
	system time =       6.98 seconds =       0.12 minutes
	total time  =         35 seconds =       0.58 minutes

    Psi4 stopped on: Saturday, 06 January 2024 10:08PM
    Psi4 wall time for execution: 0:00:13.73


    -----------------------------------------------------------------------
          Psi4: An Open-Source Ab Initio Electronic Structure Package
                               Psi4 1.9 release

                         Git: Rev {} zzzzzzz 


    D. G. A. Smith, L. A. Burns, A. C. Simmonett, R. M. Parrish,
    M. C. Schieber, R. Galvelis, P. Kraus, H. Kruse, R. Di Remigio,
    A. Alenaizan, A. M. James, S. Lehtola, J. P. Misiewicz, M. Scheurer,
    R. A. Shaw, J. B. Schriber, Y. Xie, Z. L. Glick, D. A. Sirianni,
    J. S. O'Brien, J. M. Waldrop, A. Kumar, E. G. Hohenstein,
    B. P. Pritchard, B. R. Brooks, H. F. Schaefer III, A. Yu. Sokolov,
    K. Patkowski, A. E. DePrince III, U. Bozkaya, R. A. King,
    F. A. Evangelista, J. M. Turney, T. D. Crawford, C. D. Sherrill,
    J. Chem. Phys. 152(18) 184108 (2020). https://doi.org/10.1063/5.0006002

                            Additional Code Authors
    E. T. Seidl, C. L. Janssen, E. F. Valeev, M. L. Leininger,
    J. F. Gonthier, R. M. Richard, H. R. McAlexander, M. Saitow, X. Wang,
    P. Verma, M. H. Lechner, A. Jiang, S. Behnle, A. G. Heide,
    M. F. Herbst, and D. L. Poole

             Previous Authors, Complete List of Code Contributors,
                       and Citations for Specific Modules
    https://github.com/psi4/psi4/blob/master/codemeta.json
    https://github.com/psi4/psi4/graphs/contributors
    http://psicode.org/psi4manual/master/introduction.html#citing-psifour

    -----------------------------------------------------------------------


    Psi4 started on: Saturday, 06 January 2024 10:07PM

    Process ID: 557304
    Host:       moses-razer
    PSIDATADIR: /home/kchung25/anaconda3/envs/psi4_19/share/psi4
    Memory:     55.9 GiB
    Threads:    6
    
  ==> Input QCSchema <==

--------------------------------------------------------------------------
{'driver': 'energy',
 'extras': {'psiapi': True, 'wfn_qcvars_only': True},
 'id': None,
 'keywords': {'SCF_TYPE': 'DF', 'function_kwargs': {}},
 'model': {'basis': 'aug-cc-pvtz', 'method': 'mp2'},
 'molecule': {'atom_labels': ['', '', '', '', '', '', '', '', '', '', '', '', '', '', '', '', '', '', ''],
              'atomic_numbers': [9, 8, 1, 1, 8, 1, 1, 8, 1, 1, 8, 1, 1, 8, 1, 1, 8, 1, 1],
              'extras': {},
              'fix_com': True,
              'fix_orientation': True,
              'fix_symmetry': 'c1',
              'fragment_charges': [-1.0, 0.0],
              'fragment_multiplicities': [1, 1],
              'fragments': [[0], [1, 2, 3, 4, 5, 6, 7, 8, 9, 10, 11, 12, 13, 14, 15, 16, 17, 18]],
              'geometry': [0.0, 0.0, 0.0, -2.276394326344507, -0.258486188070749, 5.133726368451135,
                           -1.4439302838316992, 0.11637878343632035, 3.540099539865168, -1.5764983509848167,
                           -1.7880399626469423, 5.77344401534562, -4.650230490622122, 1.2534213239459193,
                           -1.7608316858926005, -2.8409518960511586, 0.8994321569467825, -1.7180123816158517,
                           -5.478508789767041, -0.3433084349380491, -1.9866067147316746, -0.3414262677170931,
                           5.549570050988756, -0.35674060823780335, 1.173036154021194, 6.590329155680154,
                           -0.17818038664329316, 0.34502619598609024, 3.97703634541515, -0.7437073858523046,
                           -3.2051644813890223, -4.07188547910413, -0.6815505141337458, -1.6072347464153884,
                           -3.2389376667032046, -0.35395704165500397, -4.128276796413917, -3.994196948360433,
                           0.8698673917139947, 4.390436612072556, 1.4295022248638287, 3.66077933996303,
                           5.625784595354596, 0.18317304306675275, 3.47233396100625, 3.116596797341065,
                           1.1340435451484974, 2.3349909540427034, 4.6921616236199055, 1.0786159881626938,
                           -2.3795185707368662, 3.067084083127944, 0.5334111037068556, -1.5498154180933523,
                           4.564363225207444, 2.936152518799473, -2.661609327840709],
              'mass_numbers': [19, 16, 1, 1, 16, 1, 1, 16, 1, 1, 16, 1, 1, 16, 1, 1, 16, 1, 1],
              'masses': [18.99840316273, 15.99491461957, 1.00782503223, 1.00782503223, 15.99491461957, 1.00782503223,
                         1.00782503223, 15.99491461957, 1.00782503223, 1.00782503223, 15.99491461957, 1.00782503223,
                         1.00782503223, 15.99491461957, 1.00782503223, 1.00782503223, 15.99491461957, 1.00782503223,
                         1.00782503223],
              'molecular_charge': -1.0,
              'molecular_multiplicity': 1,
              'name': 'dimer',
              'provenance': {'creator': 'QCElemental',
                             'routine': 'qcelemental.molparse.from_string',
                             'version': '0.27.1'},
              'real': [True, True, True, True, True, True, True, True, True, True, True, True, True, True, True, True,
                       True, True, True],
              'schema_name': 'qcschema_molecule',
              'schema_version': 2,
              'symbols': ['F', 'O', 'H', 'H', 'O', 'H', 'H', 'O', 'H', 'H', 'O', 'H', 'H', 'O', 'H', 'H', 'O', 'H',
                          'H'],
              'validated': True},
 'protocols': {'stdout': True},
 'provenance': {'creator': 'QCElemental', 'routine': 'qcelemental.models.results', 'version': '0.27.1'},
 'schema_name': 'qcschema_input',
 'schema_version': 1}
--------------------------------------------------------------------------

Scratch directory: /scratch/
   => Libint2 <=

    Primary   basis highest AM E, G, H:  5, 4, 3
    Auxiliary basis highest AM E, G, H:  6, 5, 4
    Onebody   basis highest AM E, G, H:  6, 5, 4
    Solid Harmonics ordering:            gaussian

*** tstart() called on moses-razer
*** at Sat Jan  6 22:08:03 2024

   => Loading Basis Set <=

    Name: AUG-CC-PVTZ
    Role: ORBITAL
    Keyword: BASIS
    atoms 1                                   entry F          line   377 file /home/kchung25/anaconda3/envs/p415env/share/psi4/basis/aug-cc-pvtz.gbs 
    atoms 2, 5, 8, 11, 14, 17                 entry O          line   331 file /home/kchung25/anaconda3/envs/p415env/share/psi4/basis/aug-cc-pvtz.gbs 
    atoms 3-4, 6-7, 9-10, 12-13, 15-16, 18-19 entry H          line    40 file /home/kchung25/anaconda3/envs/p415env/share/psi4/basis/aug-cc-pvtz.gbs 


         ---------------------------------------------------------
                                   SCF
               by Justin Turney, Rob Parrish, Andy Simmonett
                          and Daniel G. A. Smith
                              RHF Reference
                        6 Threads,  57220 MiB Core
         ---------------------------------------------------------

  ==> Geometry <==

    Molecular point group: c1
    Full point group: C1

    Geometry (in Bohr), charge = -1, multiplicity = 1:

       Center              X                  Y                   Z               Mass       
    ------------   -----------------  -----------------  -----------------  -----------------
         F            0.000000000000     0.000000000000     0.000000000000    18.998403162730
         O           -2.276394326345    -0.258486188071     5.133726368451    15.994914619570
         H           -1.443930283832     0.116378783436     3.540099539865     1.007825032230
         H           -1.576498350985    -1.788039962647     5.773444015346     1.007825032230
         O           -4.650230490622     1.253421323946    -1.760831685893    15.994914619570
         H           -2.840951896051     0.899432156947    -1.718012381616     1.007825032230
         H           -5.478508789767    -0.343308434938    -1.986606714732     1.007825032230
         O           -0.341426267717     5.549570050989    -0.356740608238    15.994914619570
         H            1.173036154021     6.590329155680    -0.178180386643     1.007825032230
         H            0.345026195986     3.977036345415    -0.743707385852     1.007825032230
         O           -3.205164481389    -4.071885479104    -0.681550514134    15.994914619570
         H           -1.607234746415    -3.238937666703    -0.353957041655     1.007825032230
         H           -4.128276796414    -3.994196948360     0.869867391714     1.007825032230
         O            4.390436612073     1.429502224864     3.660779339963    15.994914619570
         H            5.625784595355     0.183173043067     3.472333961006     1.007825032230
         H            3.116596797341     1.134043545148     2.334990954043     1.007825032230
         O            4.692161623620     1.078615988163    -2.379518570737    15.994914619570
         H            3.067084083128     0.533411103707    -1.549815418093     1.007825032230
         H            4.564363225207     2.936152518799    -2.661609327841     1.007825032230

  Running in c1 symmetry.

  Rotational constants: A =      0.03698  B =      0.02607  C =      0.02453 [cm^-1]
  Rotational constants: A =   1108.57299  B =    781.61773  C =    735.49106 [MHz]
  Nuclear repulsion =  353.274354128591540

  Charge       = -1
  Multiplicity = 1
  Electrons    = 70
  Nalpha       = 35
  Nbeta        = 35

  ==> Algorithm <==

  SCF Algorithm Type is DF.
  DIIS enabled.
  MOM disabled.
  Fractional occupation disabled.
  Guess Type is SAD.
  Energy threshold   = 1.00e-08
  Density threshold  = 1.00e-08
  Integral threshold = 1.00e-12

  ==> Primary Basis <==

  Basis Set: AUG-CC-PVTZ
    Blend: AUG-CC-PVTZ
    Number of shells: 206
    Number of basis functions: 598
    Number of Cartesian functions: 685
    Spherical Harmonics?: true
    Max angular momentum: 3

   => Loading Basis Set <=

    Name: (AUG-CC-PVTZ AUX)
    Role: JKFIT
    Keyword: DF_BASIS_SCF
    atoms 1                                   entry F          line   348 file /home/kchung25/anaconda3/envs/p415env/share/psi4/basis/aug-cc-pvtz-jkfit.gbs 
    atoms 2, 5, 8, 11, 14, 17                 entry O          line   286 file /home/kchung25/anaconda3/envs/p415env/share/psi4/basis/aug-cc-pvtz-jkfit.gbs 
    atoms 3-4, 6-7, 9-10, 12-13, 15-16, 18-19 entry H          line    70 file /home/kchung25/anaconda3/envs/p415env/share/psi4/basis/aug-cc-pvtz-jkfit.gbs 

  ==> Integral Setup <==

  DFHelper Memory: AOs need 3.126 GiB; user supplied 41.910 GiB. 
  Using in-core AOs.

  ==> MemDFJK: Density-Fitted J/K Matrices <==

    J tasked:                   Yes
    K tasked:                   Yes
    wK tasked:                   No
    OpenMP threads:               6
    Memory [MiB]:             42915
    Algorithm:                 Core
    Schwarz Cutoff:           1E-12
    Mask sparsity (%):      11.2834
    Fitting Condition:        1E-10

   => Auxiliary Basis Set <=

  Basis Set: (AUG-CC-PVTZ AUX)
    Blend: AUG-CC-PVTZ-JKFIT
    Number of shells: 378
    Number of basis functions: 1280
    Number of Cartesian functions: 1577
    Spherical Harmonics?: true
    Max angular momentum: 4

  Minimum eigenvalue in the overlap matrix is 3.2872191009E-05.
  Reciprocal condition number of the overlap matrix is 2.1391517697E-06.
    Using symmetric orthogonalization.

  ==> Pre-Iterations <==

  SCF Guess: Superposition of Atomic Densities via on-the-fly atomic UHF (no occupation information).

   -------------------------
    Irrep   Nso     Nmo    
   -------------------------
     A        598     598 
   -------------------------
    Total     598     598
   -------------------------

  ==> Iterations <==

                           Total Energy        Delta E     RMS |[F,P]|

   @DF-RHF iter SAD:  -552.15220632056935   -5.52152e+02   0.00000e+00 
   @DF-RHF iter   1:  -555.39236385237450   -3.24016e+00   1.98085e-03 DIIS/ADIIS
   @DF-RHF iter   2:  -555.72553171623667   -3.33168e-01   1.33267e-03 DIIS/ADIIS
   @DF-RHF iter   3:  -555.91588406005530   -1.90352e-01   8.88555e-05 DIIS
   @DF-RHF iter   4:  -555.91829418332418   -2.41012e-03   2.15171e-05 DIIS
   @DF-RHF iter   5:  -555.91842296041443   -1.28777e-04   8.20079e-06 DIIS
   @DF-RHF iter   6:  -555.91843873886614   -1.57785e-05   2.87811e-06 DIIS
   @DF-RHF iter   7:  -555.91844114927642   -2.41041e-06   6.52052e-07 DIIS
   @DF-RHF iter   8:  -555.91844134653343   -1.97257e-07   2.18803e-07 DIIS
   @DF-RHF iter   9:  -555.91844135606505   -9.53162e-09   7.46031e-08 DIIS
   @DF-RHF iter  10:  -555.91844135767462   -1.60958e-09   1.21013e-08 DIIS
   @DF-RHF iter  11:  -555.91844135773374   -5.91172e-11   4.37882e-09 DIIS
  Energy and wave function converged.


  ==> Post-Iterations <==

    Orbital Energies [Eh]
    ---------------------

    Doubly Occupied:                                                      

       1A    -26.004449     2A    -20.426822     3A    -20.423570  
       4A    -20.422665     5A    -20.413897     6A    -20.410851  
       7A    -20.376468     8A     -1.269674     9A     -1.214590  
      10A     -1.210608    11A     -1.201236    12A     -1.195634  
      13A     -1.188666    14A     -1.160381    15A     -0.583658  
      16A     -0.574200    17A     -0.571070    18A     -0.569506  
      19A     -0.559557    20A     -0.534011    21A     -0.454650  
      22A     -0.445008    23A     -0.442458    24A     -0.435304  
      25A     -0.428882    26A     -0.414253    27A     -0.377235  
      28A     -0.372139    29A     -0.362796    30A     -0.360909  
      31A     -0.360097    32A     -0.354289    33A     -0.352332  
      34A     -0.349798    35A     -0.320482  

    Virtual:                                                              

      36A      0.114261    37A      0.121219    38A      0.129654  
      39A      0.139145    40A      0.143375    41A      0.152648  
      42A      0.161157    43A      0.174875    44A      0.184125  
      45A      0.192675    46A      0.195724    47A      0.207593  
      48A      0.243818    49A      0.250173    50A      0.261928  
      51A      0.266318    52A      0.270925    53A      0.281997  
      54A      0.283068    55A      0.288725    56A      0.292614  
      57A      0.303094    58A      0.304134    59A      0.314856  
      60A      0.317158    61A      0.321649    62A      0.330901  
      63A      0.333638    64A      0.340797    65A      0.348359  
      66A      0.349588    67A      0.360660    68A      0.365133  
      69A      0.367866    70A      0.371231    71A      0.380094  
      72A      0.385133    73A      0.395379    74A      0.407892  
      75A      0.415388    76A      0.420471    77A      0.427072  
      78A      0.438633    79A      0.446419    80A      0.449465  
      81A      0.460291    82A      0.466209    83A      0.473826  
      84A      0.484570    85A      0.490417    86A      0.504047  
      87A      0.506451    88A      0.518018    89A      0.522804  
      90A      0.529169    91A      0.531654    92A      0.539949  
      93A      0.545636    94A      0.552079    95A      0.554946  
      96A      0.564250    97A      0.568585    98A      0.573179  
      99A      0.580656   100A      0.587699   101A      0.590293  
     102A      0.600104   103A      0.609996   104A      0.615068  
     105A      0.622251   106A      0.631784   107A      0.634150  
     108A      0.647362   109A      0.651030   110A      0.662778  
     111A      0.681134   112A      0.683620   113A      0.696090  
     114A      0.701156   115A      0.711122   116A      0.717538  
     117A      0.730599   118A      0.733916   119A      0.752567  
     120A      0.759151   121A      0.767571   122A      0.773219  
     123A      0.801003   124A      0.806987   125A      0.823410  
     126A      0.829249   127A      0.842273   128A      0.852286  
     129A      0.858022   130A      0.862015   131A      0.869684  
     132A      0.876056   133A      0.885292   134A      0.890524  
     135A      0.892671   136A      0.903062   137A      0.907558  
     138A      0.916849   139A      0.919881   140A      0.923478  
     141A      0.930588   142A      0.933742   143A      0.940804  
     144A      0.946996   145A      0.958830   146A      0.970010  
     147A      0.971519   148A      0.986418   149A      0.987486  
     150A      0.991332   151A      1.008704   152A      1.018642  
     153A      1.032278   154A      1.034349   155A      1.040527  
     156A      1.048649   157A      1.058107   158A      1.061707  
     159A      1.066640   160A      1.075243   161A      1.076315  
     162A      1.087095   163A      1.094298   164A      1.105683  
     165A      1.108418   166A      1.116321   167A      1.123109  
     168A      1.126034   169A      1.128600   170A      1.136843  
     171A      1.141314   172A      1.147581   173A      1.155003  
     174A      1.160160   175A      1.177158   176A      1.184263  
     177A      1.185495   178A      1.191985   179A      1.195608  
     180A      1.204522   181A      1.208817   182A      1.217008  
     183A      1.220622   184A      1.229423   185A      1.237408  
     186A      1.240774   187A      1.246661   188A      1.256637  
     189A      1.273763   190A      1.279983   191A      1.285133  
     192A      1.290438   193A      1.290939   194A      1.303064  
     195A      1.308716   196A      1.319538   197A      1.326049  
     198A      1.337368   199A      1.339001   200A      1.349155  
     201A      1.363370   202A      1.366063   203A      1.367311  
     204A      1.382577   205A      1.388810   206A      1.394468  
     207A      1.397860   208A      1.410742   209A      1.415243  
     210A      1.429462   211A      1.440259   212A      1.450520  
     213A      1.453878   214A      1.458450   215A      1.472317  
     216A      1.480376   217A      1.495804   218A      1.504546  
     219A      1.517820   220A      1.530341   221A      1.532742  
     222A      1.557677   223A      1.560988   224A      1.570097  
     225A      1.580151   226A      1.589149   227A      1.596397  
     228A      1.605088   229A      1.621075   230A      1.626193  
     231A      1.638700   232A      1.649171   233A      1.655297  
     234A      1.661764   235A      1.671581   236A      1.683961  
     237A      1.691868   238A      1.702538   239A      1.707869  
     240A      1.724815   241A      1.730217   242A      1.749280  
     243A      1.759861   244A      1.769591   245A      1.788522  
     246A      1.800547   247A      1.801424   248A      1.809888  
     249A      1.815678   250A      1.844613   251A      1.854432  
     252A      1.872062   253A      1.880402   254A      1.885281  
     255A      1.900447   256A      1.926564   257A      1.930121  
     258A      1.932591   259A      1.952321   260A      1.955789  
     261A      1.972812   262A      1.984396   263A      1.995559  
     264A      2.017721   265A      2.027175   266A      2.043174  
     267A      2.046552   268A      2.073201   269A      2.086809  
     270A      2.094153   271A      2.121057   272A      2.134515  
     273A      2.137773   274A      2.143811   275A      2.179682  
     276A      2.188948   277A      2.206519   278A      2.216173  
     279A      2.222092   280A      2.235680   281A      2.256108  
     282A      2.279848   283A      2.287871   284A      2.320467  
     285A      2.369330   286A      2.405852   287A      2.435379  
     288A      2.469963   289A      2.476877   290A      2.490646  
     291A      2.501579   292A      2.516944   293A      2.525891  
     294A      2.530449   295A      2.542818   296A      2.553074  
     297A      2.562365   298A      2.576708   299A      2.586147  
     300A      2.602974   301A      2.611862   302A      2.624831  
     303A      2.625441   304A      2.633839   305A      2.638231  
     306A      2.645384   307A      2.657211   308A      2.668409  
     309A      2.673013   310A      2.686048   311A      2.697629  
     312A      2.702857   313A      2.715607   314A      2.732695  
     315A      2.733592   316A      2.742397   317A      2.749529  
     318A      2.762575   319A      2.771107   320A      2.780213  
     321A      2.794455   322A      2.804585   323A      2.805586  
     324A      2.812253   325A      2.824671   326A      2.854887  
     327A      2.868318   328A      2.871934   329A      2.887156  
     330A      2.898308   331A      2.904516   332A      2.912983  
     333A      2.925300   334A      2.933930   335A      2.943603  
     336A      2.953949   337A      2.956206   338A      2.974109  
     339A      2.979392   340A      2.982365   341A      2.993891  
     342A      3.000394   343A      3.015738   344A      3.024634  
     345A      3.037541   346A      3.048505   347A      3.058400  
     348A      3.063807   349A      3.083302   350A      3.089526  
     351A      3.107502   352A      3.127770   353A      3.137490  
     354A      3.142762   355A      3.157483   356A      3.175077  
     357A      3.193783   358A      3.220901   359A      3.240297  
     360A      3.249729   361A      3.263798   362A      3.294632  
     363A      3.311653   364A      3.323264   365A      3.357884  
     366A      3.425430   367A      3.530441   368A      3.623010  
     369A      3.666423   370A      3.696520   371A      3.740574  
     372A      3.754977   373A      3.765514   374A      3.773776  
     375A      3.828608   376A      3.902038   377A      3.947430  
     378A      3.953520   379A      3.956430   380A      3.989188  
     381A      4.021562   382A      4.029473   383A      4.046222  
     384A      4.058602   385A      4.176616   386A      4.181206  
     387A      4.231732   388A      4.248189   389A      4.264887  
     390A      4.272603   391A      4.278867   392A      4.285346  
     393A      4.294509   394A      4.328563   395A      4.335365  
     396A      4.347549   397A      4.411321   398A      4.428335  
     399A      4.429829   400A      4.434753   401A      4.443894  
     402A      4.446131   403A      4.465445   404A      4.474750  
     405A      4.483641   406A      4.487956   407A      4.497468  
     408A      4.507685   409A      4.518141   410A      4.521752  
     411A      4.534025   412A      4.544145   413A      4.548663  
     414A      4.555132   415A      4.567516   416A      4.574151  
     417A      4.585738   418A      4.589162   419A      4.596733  
     420A      4.609327   421A      4.611247   422A      4.630708  
     423A      4.632633   424A      4.642670   425A      4.661082  
     426A      4.667127   427A      4.673176   428A      4.694299  
     429A      4.702676   430A      4.718430   431A      4.728566  
     432A      4.734431   433A      4.748136   434A      4.768097  
     435A      4.789803   436A      4.800334   437A      4.803072  
     438A      4.832326   439A      4.840041   440A      4.848413  
     441A      4.857503   442A      4.886444   443A      4.927168  
     444A      4.942476   445A      4.968577   446A      4.969249  
     447A      5.008004   448A      5.014266   449A      5.044902  
     450A      5.059771   451A      5.130484   452A      5.139897  
     453A      5.149982   454A      5.181126   455A      5.200717  
     456A      5.235082   457A      5.275925   458A      5.288751  
     459A      5.305957   460A      5.336293   461A      5.349530  
     462A      5.364592   463A      5.381420   464A      5.397970  
     465A      5.412827   466A      5.420172   467A      5.438444  
     468A      5.445605   469A      5.479344   470A      5.495398  
     471A      5.509871   472A      5.538921   473A      5.547106  
     474A      5.553880   475A      5.586732   476A      5.595232  
     477A      5.608406   478A      5.614774   479A      5.625971  
     480A      5.637056   481A      5.710414   482A      5.719538  
     483A      5.728653   484A      5.744840   485A      5.798883  
     486A      5.802674   487A      5.921784   488A      5.940905  
     489A      5.955908   490A      5.963494   491A      5.967624  
     492A      6.058036   493A      6.346815   494A      6.374612  
     495A      6.393994   496A      6.409945   497A      6.435942  
     498A      6.466259   499A      6.505993   500A      6.584806  
     501A      6.712110   502A      6.718532   503A      6.737845  
     504A      6.742579   505A      6.752339   506A      6.785955  
     507A      6.807032   508A      6.948044   509A      6.968601  
     510A      6.995998   511A      7.001466   512A      7.028868  
     513A      7.049118   514A      7.071761   515A      7.080962  
     516A      7.106653   517A      7.129147   518A      7.189964  
     519A      7.241505   520A      7.284682   521A      7.325621  
     522A      7.341680   523A      7.359553   524A      7.393889  
     525A      7.424219   526A      7.437591   527A      7.454082  
     528A      7.457521   529A      7.487276   530A      7.491747  
     531A      7.492295   532A      7.504381   533A      7.510282  
     534A      7.520342   535A      7.523875   536A      7.529452  
     537A      7.534068   538A      7.541387   539A      7.554092  
     540A      7.561250   541A      7.573455   542A      7.575467  
     543A      7.581552   544A      7.585184   545A      7.598721  
     546A      7.609964   547A      7.616836   548A      7.636473  
     549A      7.660676   550A      7.669443   551A      7.686258  
     552A      7.700573   553A      7.706009   554A      7.732402  
     555A      7.742578   556A      7.869129   557A      7.893730  
     558A      7.955545   559A      7.969754   560A      7.989083  
     561A      7.996272   562A      8.077393   563A      8.115610  
     564A      8.116543   565A      8.144317   566A      8.154851  
     567A      8.164254   568A      8.183127   569A      8.202852  
     570A      8.207818   571A      8.236231   572A      8.246099  
     573A      8.259782   574A      8.780028   575A      8.955355  
     576A      8.977874   577A      8.996610   578A      9.003454  
     579A      9.064615   580A      9.367628   581A      9.405793  
     582A      9.483829   583A      9.577051   584A      9.608704  
     585A      9.730212   586A      9.799338   587A      9.980749  
     588A     10.028065   589A     10.165489   590A     10.272965  
     591A     10.283580   592A     14.558298   593A     16.532446  
     594A     16.660673   595A     16.783251   596A     17.138767  
     597A     17.168261   598A     17.201571  

    Final Occupation by Irrep:
              A 
    DOCC [    35 ]
    NA   [    35 ]
    NB   [    35 ]

  @DF-RHF Final Energy:  -555.91844135773374

   => Energetics <=

    Nuclear Repulsion Energy =            353.2743541285915398
    One-Electron Energy =               -1486.1012911231696307
    Two-Electron Energy =                 576.9084956368443500
    Total Energy =                       -555.9184413577337409

Computation Completed


Properties will be evaluated at   0.000000,   0.000000,   0.000000 [a0]

Properties computed using the SCF density matrix


 Multipole Moments:

 ------------------------------------------------------------------------------------
     Multipole            Electronic (a.u.)      Nuclear  (a.u.)        Total (a.u.)
 ------------------------------------------------------------------------------------

 L = 1.  Multiply by 2.5417464519 to convert [e a0] to [Debye]
 Dipole X            :         11.6125839          -10.3084485            1.3041355
 Dipole Y            :        -48.0521252           46.8513770           -1.2007482
 Dipole Z            :        -35.9303603           35.7257618           -0.2045985
 Magnitude           :                                                    1.7844960

 ------------------------------------------------------------------------------------

*** tstop() called on moses-razer at Sat Jan  6 22:08:18 2024
Module time:
	user time   =      81.33 seconds =       1.36 minutes
	system time =       2.67 seconds =       0.04 minutes
	total time  =         15 seconds =       0.25 minutes
Total time:
	user time   =     258.64 seconds =       4.31 minutes
	system time =       9.66 seconds =       0.16 minutes
	total time  =         50 seconds =       0.83 minutes

*** tstart() called on moses-razer
*** at Sat Jan  6 22:08:18 2024


  //>>>>>>>>>>>>>>>>>>>>>>>>>>>>>>>>>>>//
  //               DFMP2               //
  //<<<<<<<<<<<<<<<<<<<<<<<<<<<<<<<<<<<//

   => Loading Basis Set <=

    Name: (AUG-CC-PVTZ AUX)
    Role: RIFIT
    Keyword: DF_BASIS_MP2
    atoms 1                                   entry F          line   322 file /home/kchung25/anaconda3/envs/p415env/share/psi4/basis/aug-cc-pvtz-ri.gbs 
    atoms 2, 5, 8, 11, 14, 17                 entry O          line   264 file /home/kchung25/anaconda3/envs/p415env/share/psi4/basis/aug-cc-pvtz-ri.gbs 
    atoms 3-4, 6-7, 9-10, 12-13, 15-16, 18-19 entry H          line    30 file /home/kchung25/anaconda3/envs/p415env/share/psi4/basis/aug-cc-pvtz-ri.gbs 

	 --------------------------------------------------------
	                          DF-MP2                         
	      2nd-Order Density-Fitted Moller-Plesset Theory     
	              RMP2 Wavefunction,   6 Threads             
	                                                         
	        Rob Parrish, Justin Turney, Andy Simmonett,      
	           Ed Hohenstein, and C. David Sherrill          
	 --------------------------------------------------------

   => Auxiliary Basis Set <=

  Basis Set: (AUG-CC-PVTZ AUX)
    Blend: AUG-CC-PVTZ-RI
    Number of shells: 364
    Number of basis functions: 1294
    Number of Cartesian functions: 1612
    Spherical Harmonics?: true
    Max angular momentum: 4

	 --------------------------------------------------------
	                 NBF =   598, NAUX =  1294
	 --------------------------------------------------------
	   CLASS    FOCC     OCC    AOCC    AVIR     VIR    FVIR
	   PAIRS       0      35      35     563     563       0
	 --------------------------------------------------------

	-----------------------------------------------------------
	 ==================> DF-MP2 Energies <==================== 
	-----------------------------------------------------------
	 Reference Energy          =    -555.9184413577337409 [Eh]
	 Singles Energy            =      -0.0000000000000000 [Eh]
	 Same-Spin Energy          =      -0.5028502444036677 [Eh]
	 Opposite-Spin Energy      =      -1.5335639955225242 [Eh]
	 Correlation Energy        =      -2.0364142399261920 [Eh]
	 Total Energy              =    -557.9548555976599573 [Eh]
	-----------------------------------------------------------
	 ================> DF-SCS-MP2 Energies <================== 
	-----------------------------------------------------------
	 SCS Same-Spin Scale       =       0.3333333333333333 [-]
	 SCS Opposite-Spin Scale   =       1.2000000000000000 [-]
	 SCS Same-Spin Energy      =      -0.1676167481345559 [Eh]
	 SCS Opposite-Spin Energy  =      -1.8402767946270289 [Eh]
	 SCS Correlation Energy    =      -2.0078935427615847 [Eh]
	 SCS Total Energy          =    -557.9263349004953625 [Eh]
	-----------------------------------------------------------


*** tstop() called on moses-razer at Sat Jan  6 22:08:26 2024
Module time:
	user time   =      37.09 seconds =       0.62 minutes
	system time =       1.68 seconds =       0.03 minutes
	total time  =          8 seconds =       0.13 minutes
Total time:
	user time   =     295.73 seconds =       4.93 minutes
	system time =      11.34 seconds =       0.19 minutes
	total time  =         58 seconds =       0.97 minutes

    Psi4 stopped on: Saturday, 06 January 2024 10:08PM
    Psi4 wall time for execution: 0:00:22.57


  //>>>>>>>>>>>>>>>>>>>>>>>>>>>>>>>>>>>//
  //          ManyBody Results         //
  //<<<<<<<<<<<<<<<<<<<<<<<<<<<<<<<<<<<//


   ==> N-Body: Counterpoise Corrected (CP) energies <==

        n-Body     Total Energy            Interaction Energy                          N-body Contribution to Interaction Energy
                   [Eh]                    [Eh]                  [kcal/mol]            [Eh]                  [kcal/mol]
             1  N/A                         0.000000000000        0.000000000000        0.000000000000        0.000000000000
  FULL/RTN   2  N/A                        -0.142642836735      -89.509731417951       -0.142642836735      -89.509731417951


    Psi4 stopped on: Saturday, 06 January 2024 10:08PM
    Psi4 wall time for execution: 0:00:59.02

*** Psi4 exiting successfully. Buy a developer a beer!
