
    -----------------------------------------------------------------------
          Psi4: An Open-Source Ab Initio Electronic Structure Package
                               Psi4 1.8.2 release

                         Git: Rev {} zzzzzzz 


    D. G. A. Smith, L. A. Burns, A. C. Simmonett, R. M. Parrish,
    M. C. Schieber, R. Galvelis, P. Kraus, H. Kruse, R. Di Remigio,
    A. Alenaizan, A. M. James, S. Lehtola, J. P. Misiewicz, M. Scheurer,
    R. A. Shaw, J. B. Schriber, Y. Xie, Z. L. Glick, D. A. Sirianni,
    J. S. O'Brien, J. M. Waldrop, A. Kumar, E. G. Hohenstein,
    B. P. Pritchard, B. R. Brooks, H. F. Schaefer III, A. Yu. Sokolov,
    K. Patkowski, A. E. DePrince III, U. Bozkaya, R. A. King,
    F. A. Evangelista, J. M. Turney, T. D. Crawford, C. D. Sherrill,
    J. Chem. Phys. 152(18) 184108 (2020). https://doi.org/10.1063/5.0006002

                            Additional Code Authors
    E. T. Seidl, C. L. Janssen, E. F. Valeev, M. L. Leininger,
    J. F. Gonthier, R. M. Richard, H. R. McAlexander, M. Saitow, X. Wang,
    P. Verma, M. H. Lechner, A. Jiang, S. Behnle, A. G. Heide,
    M. F. Herbst, and D. L. Poole

             Previous Authors, Complete List of Code Contributors,
                       and Citations for Specific Modules
    https://github.com/psi4/psi4/blob/master/codemeta.json
    https://github.com/psi4/psi4/graphs/contributors
    http://psicode.org/psi4manual/master/introduction.html#citing-psifour

    -----------------------------------------------------------------------


    Psi4 started on: Monday, 22 January 2024 06:27PM

    Process ID: 90550
    Host:       ddmfs1
    PSIDATADIR: /ddmfs1b/softs/psi4conda/share/psi4
    Memory:     500.0 MiB
    Threads:    20
    
  ==> Input File <==

--------------------------------------------------------------------------
MEMORY 60 GB

molecule dimer {
0 1
Gh(F)      0.000000     0.000000     0.000000
O          2.168807     1.707714    -0.355893
H          2.073389     2.313978     0.418100
H          1.432893     1.055999    -0.259639
Gh(O)     -0.026158     0.744940     2.521287
Gh(H)      0.010483     0.423758     1.592003
Gh(H)     -0.458684     1.649632     2.480823
Gh(O)      1.794697    -1.829527    -1.647068
Gh(H)      1.108505    -1.229676    -1.232109
Gh(H)      2.212978    -2.403178    -0.980161
Gh(O)     -1.647590     2.228935    -0.142764
Gh(H)     -1.627566     2.508274    -1.084550
Gh(H)     -1.043895     1.472816    -0.082986
Gh(O)     -1.812943    -1.946993    -0.037439
Gh(H)     -1.220264    -1.242475    -0.256203
Gh(H)     -2.477282    -2.005238    -0.795925

units ang
no_reorient
no_com
symmetry c1
}

set {
basis        aug-cc-pVTZ
scf_type     df
}

energy("mp2")
--------------------------------------------------------------------------

  Memory set to  55.879 GiB by Python driver.

Scratch directory: /ddmfs1a/scratch/
   => Libint2 <=

    Primary   basis highest AM E, G, H:  5, 4, 3
    Auxiliary basis highest AM E, G, H:  6, 5, 4
    Onebody   basis highest AM E, G, H:  6, 5, 4
    Solid Harmonics ordering:            gaussian

*** tstart() called on ddmfs1
*** at Mon Jan 22 18:27:44 2024

   => Loading Basis Set <=

    Name: AUG-CC-PVTZ
    Role: ORBITAL
    Keyword: BASIS
    atoms 1                            entry F          line   377 file /ddmfs1b/softs/psi4conda/share/psi4/basis/aug-cc-pvtz.gbs 
    atoms 2, 5, 8, 11, 14              entry O          line   331 file /ddmfs1b/softs/psi4conda/share/psi4/basis/aug-cc-pvtz.gbs 
    atoms 3-4, 6-7, 9-10, 12-13, 15-16 entry H          line    40 file /ddmfs1b/softs/psi4conda/share/psi4/basis/aug-cc-pvtz.gbs 


         ---------------------------------------------------------
                                   SCF
               by Justin Turney, Rob Parrish, Andy Simmonett
                          and Daniel G. A. Smith
                              RHF Reference
                       20 Threads,  57220 MiB Core
         ---------------------------------------------------------

  ==> Geometry <==

    Molecular point group: c1
    Full point group: C1

    Geometry (in Angstrom), charge = 0, multiplicity = 1:

       Center              X                  Y                   Z               Mass       
    ------------   -----------------  -----------------  -----------------  -----------------
      Gh(F)           0.000000000000     0.000000000000     0.000000000000    18.998403162730
         O            2.168807000000     1.707714000000    -0.355893000000    15.994914619570
         H            2.073389000000     2.313978000000     0.418100000000     1.007825032230
         H            1.432893000000     1.055999000000    -0.259639000000     1.007825032230
      Gh(O)          -0.026158000000     0.744940000000     2.521287000000    15.994914619570
      Gh(H)           0.010483000000     0.423758000000     1.592003000000     1.007825032230
      Gh(H)          -0.458684000000     1.649632000000     2.480823000000     1.007825032230
      Gh(O)           1.794697000000    -1.829527000000    -1.647068000000    15.994914619570
      Gh(H)           1.108505000000    -1.229676000000    -1.232109000000     1.007825032230
      Gh(H)           2.212978000000    -2.403178000000    -0.980161000000     1.007825032230
      Gh(O)          -1.647590000000     2.228935000000    -0.142764000000    15.994914619570
      Gh(H)          -1.627566000000     2.508274000000    -1.084550000000     1.007825032230
      Gh(H)          -1.043895000000     1.472816000000    -0.082986000000     1.007825032230
      Gh(O)          -1.812943000000    -1.946993000000    -0.037439000000    15.994914619570
      Gh(H)          -1.220264000000    -1.242475000000    -0.256203000000     1.007825032230
      Gh(H)          -2.477282000000    -2.005238000000    -0.795925000000     1.007825032230

  Running in c1 symmetry.

  Rotational constants: A =      0.04603  B =      0.03937  C =      0.02900 [cm^-1]
  Rotational constants: A =   1379.81020  B =   1180.27317  C =    869.27189 [MHz]
  Nuclear repulsion =    8.909792960757700

  Charge       = 0
  Multiplicity = 1
  Electrons    = 10
  Nalpha       = 5
  Nbeta        = 5

  ==> Algorithm <==

  SCF Algorithm Type is DF.
  DIIS enabled.
  MOM disabled.
  Fractional occupation disabled.
  Guess Type is SAD.
  Energy threshold   = 1.00e-08
  Density threshold  = 1.00e-08
  Integral threshold = 1.00e-12

  ==> Primary Basis <==

  Basis Set: AUG-CC-PVTZ
    Blend: AUG-CC-PVTZ
    Number of shells: 174
    Number of basis functions: 506
    Number of Cartesian functions: 580
    Spherical Harmonics?: true
    Max angular momentum: 3

   => Loading Basis Set <=

    Name: (AUG-CC-PVTZ AUX)
    Role: JKFIT
    Keyword: DF_BASIS_SCF
    atoms 1                            entry F          line   348 file /ddmfs1b/softs/psi4conda/share/psi4/basis/aug-cc-pvtz-jkfit.gbs 
    atoms 2, 5, 8, 11, 14              entry O          line   286 file /ddmfs1b/softs/psi4conda/share/psi4/basis/aug-cc-pvtz-jkfit.gbs 
    atoms 3-4, 6-7, 9-10, 12-13, 15-16 entry H          line    70 file /ddmfs1b/softs/psi4conda/share/psi4/basis/aug-cc-pvtz-jkfit.gbs 

  ==> Integral Setup <==

  DFHelper Memory: AOs need 1.961 GiB; user supplied 41.910 GiB. 
  Using in-core AOs.

  ==> MemDFJK: Density-Fitted J/K Matrices <==

    J tasked:                   Yes
    K tasked:                   Yes
    wK tasked:                   No
    OpenMP threads:              20
    Memory [MiB]:             42915
    Algorithm:                 Core
    Schwarz Cutoff:           1E-12
    Mask sparsity (%):       9.9236
    Fitting Condition:        1E-10

   => Auxiliary Basis Set <=

  Basis Set: (AUG-CC-PVTZ AUX)
    Blend: AUG-CC-PVTZ-JKFIT
    Number of shells: 320
    Number of basis functions: 1084
    Number of Cartesian functions: 1336
    Spherical Harmonics?: true
    Max angular momentum: 4

  Minimum eigenvalue in the overlap matrix is 4.9851377063E-05.
  Reciprocal condition number of the overlap matrix is 3.5781459626E-06.
    Using symmetric orthogonalization.

  ==> Pre-Iterations <==

  SCF Guess: Superposition of Atomic Densities via on-the-fly atomic UHF (no occupation information).

   -------------------------
    Irrep   Nso     Nmo    
   -------------------------
     A        506     506 
   -------------------------
    Total     506     506
   -------------------------

  ==> Iterations <==

                           Total Energy        Delta E     RMS |[F,P]|

   @DF-RHF iter SAD:   -75.44193607383285   -7.54419e+01   0.00000e+00 
   @DF-RHF iter   1:   -75.97132467617479   -5.29389e-01   9.21698e-04 ADIIS/DIIS
   @DF-RHF iter   2:   -76.02288031948463   -5.15556e-02   6.48456e-04 ADIIS/DIIS
   @DF-RHF iter   3:   -76.05652878121735   -3.36485e-02   4.42787e-05 DIIS
   @DF-RHF iter   4:   -76.05696055557510   -4.31774e-04   1.12631e-05 DIIS
   @DF-RHF iter   5:   -76.05699159207931   -3.10365e-05   2.62339e-06 DIIS
   @DF-RHF iter   6:   -76.05699423972116   -2.64764e-06   5.77162e-07 DIIS
   @DF-RHF iter   7:   -76.05699437852094   -1.38800e-07   1.02387e-07 DIIS
   @DF-RHF iter   8:   -76.05699438229641   -3.77547e-09   1.78573e-08 DIIS
   @DF-RHF iter   9:   -76.05699438239054   -9.41327e-11   4.64642e-09 DIIS
  Energy and wave function converged.


  ==> Post-Iterations <==

    Orbital Energies [Eh]
    ---------------------

    Doubly Occupied:                                                      

       1A    -20.572234     2A     -1.338079     3A     -0.702012  
       4A     -0.578331     5A     -0.507790  

    Virtual:                                                              

       6A      0.014791     7A      0.031937     8A      0.037184  
       9A      0.042975    10A      0.053584    11A      0.058767  
      12A      0.062490    13A      0.070499    14A      0.080258  
      15A      0.092193    16A      0.107127    17A      0.121895  
      18A      0.125490    19A      0.133000    20A      0.146663  
      21A      0.149122    22A      0.150093    23A      0.156269  
      24A      0.159853    25A      0.173405    26A      0.177173  
      27A      0.184908    28A      0.185651    29A      0.195085  
      30A      0.198248    31A      0.203437    32A      0.212905  
      33A      0.220739    34A      0.231188    35A      0.237327  
      36A      0.241119    37A      0.247184    38A      0.264814  
      39A      0.268937    40A      0.278007    41A      0.291578  
      42A      0.298519    43A      0.314443    44A      0.321499  
      45A      0.323893    46A      0.333107    47A      0.335854  
      48A      0.339057    49A      0.344510    50A      0.350278  
      51A      0.356915    52A      0.361514    53A      0.368438  
      54A      0.373411    55A      0.378534    56A      0.382746  
      57A      0.398610    58A      0.405698    59A      0.410543  
      60A      0.423570    61A      0.430215    62A      0.436225  
      63A      0.442689    64A      0.445889    65A      0.456680  
      66A      0.462099    67A      0.471949    68A      0.481906  
      69A      0.490690    70A      0.515736    71A      0.518774  
      72A      0.534487    73A      0.546877    74A      0.557792  
      75A      0.567098    76A      0.580820    77A      0.593868  
      78A      0.628173    79A      0.644664    80A      0.672278  
      81A      0.676209    82A      0.686474    83A      0.693250  
      84A      0.709203    85A      0.712176    86A      0.724605  
      87A      0.738130    88A      0.740139    89A      0.755027  
      90A      0.761741    91A      0.767514    92A      0.775994  
      93A      0.795997    94A      0.803620    95A      0.805729  
      96A      0.807671    97A      0.814314    98A      0.827735  
      99A      0.832722   100A      0.835777   101A      0.838645  
     102A      0.845554   103A      0.852683   104A      0.859165  
     105A      0.861027   106A      0.869832   107A      0.881601  
     108A      0.886066   109A      0.891100   110A      0.896197  
     111A      0.903279   112A      0.907813   113A      0.912446  
     114A      0.923252   115A      0.928863   116A      0.935129  
     117A      0.940907   118A      0.946366   119A      0.962437  
     120A      0.966622   121A      0.972072   122A      0.976022  
     123A      0.986830   124A      1.002933   125A      1.011104  
     126A      1.014766   127A      1.022106   128A      1.028665  
     129A      1.030637   130A      1.037890   131A      1.047870  
     132A      1.054370   133A      1.058033   134A      1.065249  
     135A      1.078413   136A      1.087451   137A      1.094042  
     138A      1.099922   139A      1.104532   140A      1.109960  
     141A      1.120496   142A      1.126994   143A      1.129820  
     144A      1.138734   145A      1.147022   146A      1.148173  
     147A      1.164887   148A      1.176213   149A      1.192623  
     150A      1.208392   151A      1.213101   152A      1.223809  
     153A      1.236325   154A      1.250108   155A      1.255622  
     156A      1.278012   157A      1.291975   158A      1.309222  
     159A      1.323476   160A      1.346892   161A      1.351948  
     162A      1.368671   163A      1.376406   164A      1.393714  
     165A      1.396153   166A      1.416044   167A      1.424151  
     168A      1.427540   169A      1.434977   170A      1.442831  
     171A      1.454211   172A      1.477032   173A      1.493487  
     174A      1.501571   175A      1.519194   176A      1.525427  
     177A      1.542616   178A      1.569151   179A      1.578811  
     180A      1.584389   181A      1.611771   182A      1.631992  
     183A      1.647026   184A      1.658572   185A      1.672938  
     186A      1.709052   187A      1.711382   188A      1.730318  
     189A      1.738755   190A      1.757410   191A      1.764587  
     192A      1.769597   193A      1.785943   194A      1.805113  
     195A      1.809899   196A      1.818952   197A      1.820168  
     198A      1.825382   199A      1.838696   200A      1.851624  
     201A      1.864070   202A      1.885060   203A      1.903757  
     204A      1.921429   205A      1.943870   206A      1.952324  
     207A      1.957056   208A      1.985376   209A      1.992813  
     210A      2.006298   211A      2.025709   212A      2.035657  
     213A      2.060738   214A      2.085595   215A      2.128172  
     216A      2.145784   217A      2.162967   218A      2.180763  
     219A      2.213665   220A      2.239669   221A      2.293489  
     222A      2.321649   223A      2.349064   224A      2.456341  
     225A      2.461875   226A      2.467391   227A      2.474603  
     228A      2.488674   229A      2.492249   230A      2.499216  
     231A      2.513959   232A      2.519611   233A      2.526057  
     234A      2.553902   235A      2.555771   236A      2.562010  
     237A      2.572560   238A      2.576954   239A      2.596000  
     240A      2.619789   241A      2.632334   242A      2.643902  
     243A      2.649322   244A      2.674167   245A      2.680944  
     246A      2.687238   247A      2.697101   248A      2.715763  
     249A      2.716281   250A      2.729153   251A      2.752820  
     252A      2.762789   253A      2.769048   254A      2.776780  
     255A      2.795210   256A      2.805191   257A      2.805581  
     258A      2.830160   259A      2.837702   260A      2.853151  
     261A      2.874076   262A      2.892836   263A      2.904342  
     264A      2.926444   265A      2.947651   266A      2.991197  
     267A      3.018906   268A      3.034095   269A      3.048283  
     270A      3.071414   271A      3.109029   272A      3.167278  
     273A      3.174278   274A      3.182583   275A      3.202147  
     276A      3.211403   277A      3.215727   278A      3.227869  
     279A      3.242210   280A      3.262428   281A      3.293690  
     282A      3.301332   283A      3.329006   284A      3.353940  
     285A      3.378592   286A      3.398093   287A      3.427401  
     288A      3.469890   289A      3.480519   290A      3.525449  
     291A      3.549971   292A      3.583675   293A      3.596032  
     294A      3.614847   295A      3.636427   296A      3.644078  
     297A      3.695580   298A      3.706016   299A      3.722287  
     300A      3.727863   301A      3.737334   302A      3.793307  
     303A      3.806044   304A      3.816714   305A      3.840199  
     306A      3.908527   307A      3.936992   308A      4.037781  
     309A      4.077352   310A      4.117131   311A      4.140921  
     312A      4.168475   313A      4.193880   314A      4.221417  
     315A      4.260496   316A      4.277935   317A      4.317856  
     318A      4.344504   319A      4.359114   320A      4.388339  
     321A      4.398691   322A      4.403956   323A      4.413175  
     324A      4.427410   325A      4.435412   326A      4.437368  
     327A      4.456166   328A      4.479915   329A      4.487595  
     330A      4.511058   331A      4.528013   332A      4.538331  
     333A      4.566416   334A      4.596262   335A      4.600951  
     336A      4.619561   337A      4.623649   338A      4.635255  
     339A      4.647444   340A      4.657039   341A      4.675828  
     342A      4.709085   343A      4.721030   344A      4.736828  
     345A      4.777022   346A      4.791102   347A      4.842274  
     348A      4.887830   349A      4.905811   350A      4.919144  
     351A      4.942757   352A      4.952259   353A      4.962092  
     354A      4.983989   355A      4.997218   356A      5.014898  
     357A      5.029008   358A      5.043956   359A      5.053304  
     360A      5.087700   361A      5.099771   362A      5.118279  
     363A      5.144102   364A      5.152960   365A      5.196892  
     366A      5.229757   367A      5.248777   368A      5.305986  
     369A      5.341443   370A      5.347673   371A      5.396873  
     372A      5.427941   373A      5.454674   374A      5.482154  
     375A      5.493043   376A      5.503234   377A      5.509172  
     378A      5.539845   379A      5.570614   380A      5.592393  
     381A      5.602102   382A      5.625765   383A      5.688646  
     384A      5.699759   385A      5.748902   386A      5.787391  
     387A      5.832090   388A      5.872258   389A      5.889545  
     390A      5.945698   391A      6.163102   392A      6.238389  
     393A      6.246563   394A      6.258011   395A      6.303522  
     396A      6.380884   397A      6.487914   398A      6.518750  
     399A      6.544742   400A      6.589144   401A      6.621715  
     402A      6.667174   403A      6.706688   404A      6.763182  
     405A      6.831679   406A      6.967756   407A      7.011032  
     408A      7.020722   409A      7.088341   410A      7.115497  
     411A      7.157929   412A      7.282821   413A      7.320432  
     414A      7.352469   415A      7.445545   416A      7.524404  
     417A      7.671344   418A      7.712701   419A      7.728139  
     420A      7.743020   421A      7.750282   422A      7.769283  
     423A      7.825106   424A      7.832625   425A      7.877180  
     426A      7.939474   427A      8.032928   428A      8.040353  
     429A      8.045094   430A      8.074534   431A      8.106143  
     432A      8.188221   433A      8.223647   434A      8.232188  
     435A      8.252196   436A      8.269226   437A      8.284797  
     438A      8.298660   439A      8.334623   440A      8.662936  
     441A      8.686073   442A      8.724563   443A      8.779988  
     444A      8.807181   445A      8.878193   446A      8.921618  
     447A      9.013138   448A      9.026047   449A      9.700559  
     450A      9.744333   451A      9.767100   452A      9.787765  
     453A      9.858944   454A      9.873739   455A      9.892624  
     456A      9.917483   457A     10.081075   458A     10.107438  
     459A     10.120399   460A     10.190771   461A     10.262666  
     462A     10.298439   463A     10.344016   464A     10.352568  
     465A     10.377359   466A     10.509352   467A     10.566071  
     468A     10.664755   469A     10.707686   470A     10.774681  
     471A     10.933440   472A     11.032269   473A     11.039896  
     474A     11.128378   475A     11.203497   476A     11.689648  
     477A     11.718644   478A     11.783604   479A     11.847778  
     480A     11.893284   481A     12.023905   482A     12.222993  
     483A     12.360625   484A     12.842654   485A     13.289826  
     486A     13.319686   487A     13.329010   488A     13.410653  
     489A     13.465102   490A     13.577542   491A     13.637029  
     492A     13.664793   493A     13.716740   494A     13.986133  
     495A     14.039844   496A     14.048462   497A     14.066881  
     498A     15.187547   499A     15.265426   500A     15.477134  
     501A     16.592677   502A     65.450340   503A     65.839235  
     504A     66.258819   505A     66.888111   506A     76.332914  

    Final Occupation by Irrep:
              A 
    DOCC [     5 ]
    NA   [     5 ]
    NB   [     5 ]

  @DF-RHF Final Energy:   -76.05699438239054

   => Energetics <=

    Nuclear Repulsion Energy =              8.9097929607577004
    One-Electron Energy =                -122.5366796145439707
    Two-Electron Energy =                  37.5698922713957444
    Total Energy =                        -76.0569943823905277

Computation Completed


Properties will be evaluated at   0.000000,   0.000000,   0.000000 [a0]

Properties computed using the SCF density matrix


 Multipole Moments:

 ------------------------------------------------------------------------------------
     Multipole            Electronic (a.u.)      Nuclear  (a.u.)        Total (a.u.)
 ------------------------------------------------------------------------------------

 L = 1.  Multiply by 2.5417464519 to convert [e a0] to [Debye]
 Dipole X            :        -39.9570235           39.4135227           -0.5435008
 Dipole Y            :        -32.2151739           32.1852277           -0.0299462
 Dipole Z            :          5.6494096           -5.0808745            0.5685351
 Magnitude           :                                                    0.7870972

 ------------------------------------------------------------------------------------

*** tstop() called on ddmfs1 at Mon Jan 22 18:27:50 2024
Module time:
	user time   =      84.38 seconds =       1.41 minutes
	system time =       3.72 seconds =       0.06 minutes
	total time  =          6 seconds =       0.10 minutes
Total time:
	user time   =      84.38 seconds =       1.41 minutes
	system time =       3.72 seconds =       0.06 minutes
	total time  =          6 seconds =       0.10 minutes

*** tstart() called on ddmfs1
*** at Mon Jan 22 18:27:50 2024


  //>>>>>>>>>>>>>>>>>>>>>>>>>>>>>>>>>>>//
  //               DFMP2               //
  //<<<<<<<<<<<<<<<<<<<<<<<<<<<<<<<<<<<//

   => Loading Basis Set <=

    Name: (AUG-CC-PVTZ AUX)
    Role: RIFIT
    Keyword: DF_BASIS_MP2
    atoms 1                            entry F          line   322 file /ddmfs1b/softs/psi4conda/share/psi4/basis/aug-cc-pvtz-ri.gbs 
    atoms 2, 5, 8, 11, 14              entry O          line   264 file /ddmfs1b/softs/psi4conda/share/psi4/basis/aug-cc-pvtz-ri.gbs 
    atoms 3-4, 6-7, 9-10, 12-13, 15-16 entry H          line    30 file /ddmfs1b/softs/psi4conda/share/psi4/basis/aug-cc-pvtz-ri.gbs 

	 --------------------------------------------------------
	                          DF-MP2                         
	      2nd-Order Density-Fitted Moller-Plesset Theory     
	              RMP2 Wavefunction,  20 Threads             
	                                                         
	        Rob Parrish, Justin Turney, Andy Simmonett,      
	           Ed Hohenstein, and C. David Sherrill          
	 --------------------------------------------------------

   => Auxiliary Basis Set <=

  Basis Set: (AUG-CC-PVTZ AUX)
    Blend: AUG-CC-PVTZ-RI
    Number of shells: 308
    Number of basis functions: 1096
    Number of Cartesian functions: 1366
    Spherical Harmonics?: true
    Max angular momentum: 4

	 --------------------------------------------------------
	                 NBF =   506, NAUX =  1096
	 --------------------------------------------------------
	   CLASS    FOCC     OCC    AOCC    AVIR     VIR    FVIR
	   PAIRS       0       5       5     501     501       0
	 --------------------------------------------------------

	-----------------------------------------------------------
	 ==================> DF-MP2 Energies <==================== 
	-----------------------------------------------------------
	 Reference Energy          =     -76.0569943823905419 [Eh]
	 Singles Energy            =      -0.0000000000000000 [Eh]
	 Same-Spin Energy          =      -0.0689334385930351 [Eh]
	 Opposite-Spin Energy      =      -0.2177924455058401 [Eh]
	 Correlation Energy        =      -0.2867258840988752 [Eh]
	 Total Energy              =     -76.3437202664894130 [Eh]
	-----------------------------------------------------------
	 ================> DF-SCS-MP2 Energies <================== 
	-----------------------------------------------------------
	 SCS Same-Spin Scale       =       0.3333333333333333 [-]
	 SCS Opposite-Spin Scale   =       1.2000000000000000 [-]
	 SCS Same-Spin Energy      =      -0.0229778128643450 [Eh]
	 SCS Opposite-Spin Energy  =      -0.2613509346070081 [Eh]
	 SCS Correlation Energy    =      -0.2843287474713531 [Eh]
	 SCS Total Energy          =     -76.3413231298618911 [Eh]
	-----------------------------------------------------------


*** tstop() called on ddmfs1 at Mon Jan 22 18:27:53 2024
Module time:
	user time   =      23.67 seconds =       0.39 minutes
	system time =       1.37 seconds =       0.02 minutes
	total time  =          3 seconds =       0.05 minutes
Total time:
	user time   =     108.07 seconds =       1.80 minutes
	system time =       5.09 seconds =       0.08 minutes
	total time  =          9 seconds =       0.15 minutes

    Psi4 stopped on: Monday, 22 January 2024 06:27PM
    Psi4 wall time for execution: 0:00:08.84

*** Psi4 exiting successfully. Buy a developer a beer!
