
    -----------------------------------------------------------------------
          Psi4: An Open-Source Ab Initio Electronic Structure Package
                               Psi4 1.8.2 release

                         Git: Rev {} zzzzzzz 


    D. G. A. Smith, L. A. Burns, A. C. Simmonett, R. M. Parrish,
    M. C. Schieber, R. Galvelis, P. Kraus, H. Kruse, R. Di Remigio,
    A. Alenaizan, A. M. James, S. Lehtola, J. P. Misiewicz, M. Scheurer,
    R. A. Shaw, J. B. Schriber, Y. Xie, Z. L. Glick, D. A. Sirianni,
    J. S. O'Brien, J. M. Waldrop, A. Kumar, E. G. Hohenstein,
    B. P. Pritchard, B. R. Brooks, H. F. Schaefer III, A. Yu. Sokolov,
    K. Patkowski, A. E. DePrince III, U. Bozkaya, R. A. King,
    F. A. Evangelista, J. M. Turney, T. D. Crawford, C. D. Sherrill,
    J. Chem. Phys. 152(18) 184108 (2020). https://doi.org/10.1063/5.0006002

                            Additional Code Authors
    E. T. Seidl, C. L. Janssen, E. F. Valeev, M. L. Leininger,
    J. F. Gonthier, R. M. Richard, H. R. McAlexander, M. Saitow, X. Wang,
    P. Verma, M. H. Lechner, A. Jiang, S. Behnle, A. G. Heide,
    M. F. Herbst, and D. L. Poole

             Previous Authors, Complete List of Code Contributors,
                       and Citations for Specific Modules
    https://github.com/psi4/psi4/blob/master/codemeta.json
    https://github.com/psi4/psi4/graphs/contributors
    http://psicode.org/psi4manual/master/introduction.html#citing-psifour

    -----------------------------------------------------------------------


    Psi4 started on: Monday, 22 January 2024 06:38PM

    Process ID: 91749
    Host:       ddmfs1
    PSIDATADIR: /ddmfs1b/softs/psi4conda/share/psi4
    Memory:     500.0 MiB
    Threads:    20
    
  ==> Input File <==

--------------------------------------------------------------------------
MEMORY 60 GB

molecule dimer {
0 1
Gh(F)      0.000000     0.000000     0.000000
Gh(O)     -2.498532    -0.881431    -0.464596
Gh(H)     -3.244844    -0.373050    -0.742977
Gh(H)     -1.787443    -0.231783    -0.439473
Gh(O)      0.821961    -0.941013    -2.487806
Gh(H)      0.553219    -0.751966    -1.546993
Gh(H)      0.984333    -1.880222    -2.681248
Gh(O)      2.741876     1.268113     0.623068
Gh(H)      1.805546     0.967787     0.731277
Gh(H)      2.912001     1.778305     1.404663
O          0.039880    -2.040644     1.862439
H         -0.844297    -2.487575     1.683009
H          0.092425    -1.237739     1.280131
Gh(O)     -0.422554     1.200836     2.437095
Gh(H)     -0.724798     2.111332     2.489843
Gh(H)     -0.282246     0.936943     1.519701

units ang
no_reorient
no_com
symmetry c1
}

set {
basis        aug-cc-pVTZ
scf_type     df
}

energy("mp2")
--------------------------------------------------------------------------

  Memory set to  55.879 GiB by Python driver.

Scratch directory: /ddmfs1a/scratch/
   => Libint2 <=

    Primary   basis highest AM E, G, H:  5, 4, 3
    Auxiliary basis highest AM E, G, H:  6, 5, 4
    Onebody   basis highest AM E, G, H:  6, 5, 4
    Solid Harmonics ordering:            gaussian

*** tstart() called on ddmfs1
*** at Mon Jan 22 18:38:45 2024

   => Loading Basis Set <=

    Name: AUG-CC-PVTZ
    Role: ORBITAL
    Keyword: BASIS
    atoms 1                            entry F          line   377 file /ddmfs1b/softs/psi4conda/share/psi4/basis/aug-cc-pvtz.gbs 
    atoms 2, 5, 8, 11, 14              entry O          line   331 file /ddmfs1b/softs/psi4conda/share/psi4/basis/aug-cc-pvtz.gbs 
    atoms 3-4, 6-7, 9-10, 12-13, 15-16 entry H          line    40 file /ddmfs1b/softs/psi4conda/share/psi4/basis/aug-cc-pvtz.gbs 


         ---------------------------------------------------------
                                   SCF
               by Justin Turney, Rob Parrish, Andy Simmonett
                          and Daniel G. A. Smith
                              RHF Reference
                       20 Threads,  57220 MiB Core
         ---------------------------------------------------------

  ==> Geometry <==

    Molecular point group: c1
    Full point group: C1

    Geometry (in Angstrom), charge = 0, multiplicity = 1:

       Center              X                  Y                   Z               Mass       
    ------------   -----------------  -----------------  -----------------  -----------------
      Gh(F)           0.000000000000     0.000000000000     0.000000000000    18.998403162730
      Gh(O)          -2.498532000000    -0.881431000000    -0.464596000000    15.994914619570
      Gh(H)          -3.244844000000    -0.373050000000    -0.742977000000     1.007825032230
      Gh(H)          -1.787443000000    -0.231783000000    -0.439473000000     1.007825032230
      Gh(O)           0.821961000000    -0.941013000000    -2.487806000000    15.994914619570
      Gh(H)           0.553219000000    -0.751966000000    -1.546993000000     1.007825032230
      Gh(H)           0.984333000000    -1.880222000000    -2.681248000000     1.007825032230
      Gh(O)           2.741876000000     1.268113000000     0.623068000000    15.994914619570
      Gh(H)           1.805546000000     0.967787000000     0.731277000000     1.007825032230
      Gh(H)           2.912001000000     1.778305000000     1.404663000000     1.007825032230
         O            0.039880000000    -2.040644000000     1.862439000000    15.994914619570
         H           -0.844297000000    -2.487575000000     1.683009000000     1.007825032230
         H            0.092425000000    -1.237739000000     1.280131000000     1.007825032230
      Gh(O)          -0.422554000000     1.200836000000     2.437095000000    15.994914619570
      Gh(H)          -0.724798000000     2.111332000000     2.489843000000     1.007825032230
      Gh(H)          -0.282246000000     0.936943000000     1.519701000000     1.007825032230

  Running in c1 symmetry.

  Rotational constants: A =      0.04368  B =      0.03879  C =      0.02804 [cm^-1]
  Rotational constants: A =   1309.37263  B =   1163.00626  C =    840.70325 [MHz]
  Nuclear repulsion =    8.795040692115728

  Charge       = 0
  Multiplicity = 1
  Electrons    = 10
  Nalpha       = 5
  Nbeta        = 5

  ==> Algorithm <==

  SCF Algorithm Type is DF.
  DIIS enabled.
  MOM disabled.
  Fractional occupation disabled.
  Guess Type is SAD.
  Energy threshold   = 1.00e-08
  Density threshold  = 1.00e-08
  Integral threshold = 1.00e-12

  ==> Primary Basis <==

  Basis Set: AUG-CC-PVTZ
    Blend: AUG-CC-PVTZ
    Number of shells: 174
    Number of basis functions: 506
    Number of Cartesian functions: 580
    Spherical Harmonics?: true
    Max angular momentum: 3

   => Loading Basis Set <=

    Name: (AUG-CC-PVTZ AUX)
    Role: JKFIT
    Keyword: DF_BASIS_SCF
    atoms 1                            entry F          line   348 file /ddmfs1b/softs/psi4conda/share/psi4/basis/aug-cc-pvtz-jkfit.gbs 
    atoms 2, 5, 8, 11, 14              entry O          line   286 file /ddmfs1b/softs/psi4conda/share/psi4/basis/aug-cc-pvtz-jkfit.gbs 
    atoms 3-4, 6-7, 9-10, 12-13, 15-16 entry H          line    70 file /ddmfs1b/softs/psi4conda/share/psi4/basis/aug-cc-pvtz-jkfit.gbs 

  ==> Integral Setup <==

  DFHelper Memory: AOs need 1.945 GiB; user supplied 41.910 GiB. 
  Using in-core AOs.

  ==> MemDFJK: Density-Fitted J/K Matrices <==

    J tasked:                   Yes
    K tasked:                   Yes
    wK tasked:                   No
    OpenMP threads:              20
    Memory [MiB]:             42915
    Algorithm:                 Core
    Schwarz Cutoff:           1E-12
    Mask sparsity (%):      10.7008
    Fitting Condition:        1E-10

   => Auxiliary Basis Set <=

  Basis Set: (AUG-CC-PVTZ AUX)
    Blend: AUG-CC-PVTZ-JKFIT
    Number of shells: 320
    Number of basis functions: 1084
    Number of Cartesian functions: 1336
    Spherical Harmonics?: true
    Max angular momentum: 4

  Minimum eigenvalue in the overlap matrix is 5.5516025013E-05.
  Reciprocal condition number of the overlap matrix is 4.1408407760E-06.
    Using symmetric orthogonalization.

  ==> Pre-Iterations <==

  SCF Guess: Superposition of Atomic Densities via on-the-fly atomic UHF (no occupation information).

   -------------------------
    Irrep   Nso     Nmo    
   -------------------------
     A        506     506 
   -------------------------
    Total     506     506
   -------------------------

  ==> Iterations <==

                           Total Energy        Delta E     RMS |[F,P]|

   @DF-RHF iter SAD:   -75.42467034065410   -7.54247e+01   0.00000e+00 
   @DF-RHF iter   1:   -75.96816872742070   -5.43498e-01   9.20676e-04 DIIS/ADIIS
   @DF-RHF iter   2:   -76.01927864673505   -5.11099e-02   6.55152e-04 DIIS/ADIIS
   @DF-RHF iter   3:   -76.05379957919357   -3.45209e-02   4.48544e-05 DIIS
   @DF-RHF iter   4:   -76.05425508190470   -4.55503e-04   1.17185e-05 DIIS
   @DF-RHF iter   5:   -76.05428964870350   -3.45668e-05   2.74890e-06 DIIS
   @DF-RHF iter   6:   -76.05429265234963   -3.00365e-06   6.11954e-07 DIIS
   @DF-RHF iter   7:   -76.05429281336305   -1.61013e-07   1.11301e-07 DIIS
   @DF-RHF iter   8:   -76.05429281796677   -4.60372e-09   1.98535e-08 DIIS
   @DF-RHF iter   9:   -76.05429281809015   -1.23379e-10   5.33865e-09 DIIS
  Energy and wave function converged.


  ==> Post-Iterations <==

    Orbital Energies [Eh]
    ---------------------

    Doubly Occupied:                                                      

       1A    -20.572957     2A     -1.330597     3A     -0.700161  
       4A     -0.570923     5A     -0.506025  

    Virtual:                                                              

       6A      0.014685     7A      0.031733     8A      0.034729  
       9A      0.044529    10A      0.050409    11A      0.055940  
      12A      0.070234    13A      0.076310    14A      0.085745  
      15A      0.091772    16A      0.107523    17A      0.115380  
      18A      0.128431    19A      0.138940    20A      0.141631  
      21A      0.144242    22A      0.148436    23A      0.153660  
      24A      0.159068    25A      0.162892    26A      0.169904  
      27A      0.181360    28A      0.185796    29A      0.190440  
      30A      0.201382    31A      0.211019    32A      0.212194  
      33A      0.221059    34A      0.226304    35A      0.233790  
      36A      0.243255    37A      0.256366    38A      0.265070  
      39A      0.285790    40A      0.290483    41A      0.292279  
      42A      0.303865    43A      0.310319    44A      0.313310  
      45A      0.320898    46A      0.328789    47A      0.331469  
      48A      0.342631    49A      0.351958    50A      0.355995  
      51A      0.357556    52A      0.363931    53A      0.367526  
      54A      0.374003    55A      0.380439    56A      0.385166  
      57A      0.392809    58A      0.399735    59A      0.401447  
      60A      0.405791    61A      0.425628    62A      0.428096  
      63A      0.444328    64A      0.448673    65A      0.451440  
      66A      0.461760    67A      0.472102    68A      0.483653  
      69A      0.491221    70A      0.493504    71A      0.530616  
      72A      0.538280    73A      0.556191    74A      0.559571  
      75A      0.574737    76A      0.601419    77A      0.611456  
      78A      0.618959    79A      0.643786    80A      0.659011  
      81A      0.666289    82A      0.674663    83A      0.691053  
      84A      0.697593    85A      0.709260    86A      0.724733  
      87A      0.728555    88A      0.733598    89A      0.744908  
      90A      0.762813    91A      0.767141    92A      0.774079  
      93A      0.779497    94A      0.787176    95A      0.797356  
      96A      0.805045    97A      0.805719    98A      0.809553  
      99A      0.819986   100A      0.828446   101A      0.835319  
     102A      0.838396   103A      0.847860   104A      0.851271  
     105A      0.857588   106A      0.864076   107A      0.868017  
     108A      0.876037   109A      0.878827   110A      0.889215  
     111A      0.900888   112A      0.911639   113A      0.913201  
     114A      0.916978   115A      0.921491   116A      0.932999  
     117A      0.941506   118A      0.952530   119A      0.959705  
     120A      0.967389   121A      0.970994   122A      0.977586  
     123A      0.984606   124A      0.990873   125A      0.998871  
     126A      1.010788   127A      1.015422   128A      1.019213  
     129A      1.026261   130A      1.030976   131A      1.036242  
     132A      1.040546   133A      1.050339   134A      1.055945  
     135A      1.065045   136A      1.071108   137A      1.078874  
     138A      1.085691   139A      1.101477   140A      1.107043  
     141A      1.112567   142A      1.117312   143A      1.129809  
     144A      1.131468   145A      1.148130   146A      1.157109  
     147A      1.166592   148A      1.178049   149A      1.185665  
     150A      1.201981   151A      1.204665   152A      1.220447  
     153A      1.240074   154A      1.244721   155A      1.252092  
     156A      1.264071   157A      1.270443   158A      1.300876  
     159A      1.305155   160A      1.316795   161A      1.328259  
     162A      1.331297   163A      1.351266   164A      1.358179  
     165A      1.375852   166A      1.397686   167A      1.407022  
     168A      1.414010   169A      1.445960   170A      1.459606  
     171A      1.479537   172A      1.488696   173A      1.501817  
     174A      1.507350   175A      1.527265   176A      1.532740  
     177A      1.554099   178A      1.568434   179A      1.585987  
     180A      1.589245   181A      1.617182   182A      1.625873  
     183A      1.637073   184A      1.674583   185A      1.687632  
     186A      1.692037   187A      1.709624   188A      1.725598  
     189A      1.730153   190A      1.747300   191A      1.754284  
     192A      1.762944   193A      1.767922   194A      1.778324  
     195A      1.811323   196A      1.815535   197A      1.823326  
     198A      1.833911   199A      1.838043   200A      1.860124  
     201A      1.872565   202A      1.888108   203A      1.890895  
     204A      1.895337   205A      1.914737   206A      1.925825  
     207A      1.938734   208A      1.960864   209A      1.976180  
     210A      2.005809   211A      2.011268   212A      2.017723  
     213A      2.022824   214A      2.041672   215A      2.069906  
     216A      2.099844   217A      2.145180   218A      2.187221  
     219A      2.237550   220A      2.276287   221A      2.325431  
     222A      2.346941   223A      2.388484   224A      2.408032  
     225A      2.430295   226A      2.437686   227A      2.465892  
     228A      2.471782   229A      2.480544   230A      2.481848  
     231A      2.488238   232A      2.504456   233A      2.506270  
     234A      2.521242   235A      2.538038   236A      2.546835  
     237A      2.550118   238A      2.554611   239A      2.565412  
     240A      2.577952   241A      2.590418   242A      2.595728  
     243A      2.609664   244A      2.633046   245A      2.642510  
     246A      2.651401   247A      2.658373   248A      2.680509  
     249A      2.692099   250A      2.696196   251A      2.722705  
     252A      2.734363   253A      2.738389   254A      2.742318  
     255A      2.780377   256A      2.792157   257A      2.811441  
     258A      2.823226   259A      2.839604   260A      2.840790  
     261A      2.868807   262A      2.902775   263A      2.933629  
     264A      2.940699   265A      2.955761   266A      2.990017  
     267A      3.017830   268A      3.055428   269A      3.061849  
     270A      3.085836   271A      3.125749   272A      3.171180  
     273A      3.179900   274A      3.204293   275A      3.215681  
     276A      3.226421   277A      3.247389   278A      3.249678  
     279A      3.259668   280A      3.271538   281A      3.299086  
     282A      3.330716   283A      3.338419   284A      3.379312  
     285A      3.408979   286A      3.418177   287A      3.449650  
     288A      3.455257   289A      3.479015   290A      3.500757  
     291A      3.533417   292A      3.541487   293A      3.553298  
     294A      3.577393   295A      3.595980   296A      3.608726  
     297A      3.642140   298A      3.658478   299A      3.671661  
     300A      3.693632   301A      3.717906   302A      3.739951  
     303A      3.754558   304A      3.810919   305A      3.828315  
     306A      3.850748   307A      3.861833   308A      3.932679  
     309A      4.042802   310A      4.056065   311A      4.114744  
     312A      4.127555   313A      4.173146   314A      4.202408  
     315A      4.237330   316A      4.273266   317A      4.295640  
     318A      4.336330   319A      4.345871   320A      4.365707  
     321A      4.391776   322A      4.404891   323A      4.424407  
     324A      4.431271   325A      4.440005   326A      4.459948  
     327A      4.480306   328A      4.490253   329A      4.505814  
     330A      4.513046   331A      4.525451   332A      4.532119  
     333A      4.546166   334A      4.560246   335A      4.598443  
     336A      4.617131   337A      4.619528   338A      4.638941  
     339A      4.662512   340A      4.684206   341A      4.694029  
     342A      4.704120   343A      4.722108   344A      4.752759  
     345A      4.779833   346A      4.787069   347A      4.804979  
     348A      4.879710   349A      4.883735   350A      4.900336  
     351A      4.911886   352A      4.938006   353A      4.951606  
     354A      4.959824   355A      4.969067   356A      4.985568  
     357A      4.994242   358A      5.018402   359A      5.043597  
     360A      5.059786   361A      5.115511   362A      5.121714  
     363A      5.147203   364A      5.156192   365A      5.180215  
     366A      5.200912   367A      5.210064   368A      5.339023  
     369A      5.361299   370A      5.366107   371A      5.405270  
     372A      5.451883   373A      5.507866   374A      5.524510  
     375A      5.525921   376A      5.550086   377A      5.564764  
     378A      5.624296   379A      5.637638   380A      5.659866  
     381A      5.666759   382A      5.680834   383A      5.682797  
     384A      5.722477   385A      5.741821   386A      5.758616  
     387A      5.821993   388A      5.881568   389A      5.933255  
     390A      5.941411   391A      6.167402   392A      6.185023  
     393A      6.204937   394A      6.222033   395A      6.272148  
     396A      6.390464   397A      6.477477   398A      6.560580  
     399A      6.571945   400A      6.618674   401A      6.680542  
     402A      6.726833   403A      6.795491   404A      6.832506  
     405A      6.909066   406A      6.956601   407A      7.043380  
     408A      7.089338   409A      7.127249   410A      7.135023  
     411A      7.156425   412A      7.265873   413A      7.333384  
     414A      7.368668   415A      7.425033   416A      7.584860  
     417A      7.672447   418A      7.707615   419A      7.724670  
     420A      7.737134   421A      7.757792   422A      7.772353  
     423A      7.832637   424A      7.867252   425A      7.884726  
     426A      7.926272   427A      8.014484   428A      8.045771  
     429A      8.075118   430A      8.114170   431A      8.135017  
     432A      8.185662   433A      8.207954   434A      8.239506  
     435A      8.283448   436A      8.308262   437A      8.322069  
     438A      8.339445   439A      8.361898   440A      8.647791  
     441A      8.690180   442A      8.799700   443A      8.839312  
     444A      8.879752   445A      8.933962   446A      8.968131  
     447A      8.994240   448A      9.111142   449A      9.685351  
     450A      9.696294   451A      9.714466   452A      9.820607  
     453A      9.835443   454A      9.863561   455A      9.896537  
     456A      9.900331   457A     10.046193   458A     10.073419  
     459A     10.099660   460A     10.168229   461A     10.224158  
     462A     10.280979   463A     10.312849   464A     10.336729  
     465A     10.396881   466A     10.489645   467A     10.523433  
     468A     10.561310   469A     10.625618   470A     10.729370  
     471A     10.871880   472A     11.073654   473A     11.174096  
     474A     11.319879   475A     11.327077   476A     11.705775  
     477A     11.708182   478A     11.741592   479A     11.846916  
     480A     11.902769   481A     12.119655   482A     12.258122  
     483A     12.287373   484A     12.468763   485A     13.244430  
     486A     13.286775   487A     13.337820   488A     13.381248  
     489A     13.506409   490A     13.561883   491A     13.600611  
     492A     13.707552   493A     13.744718   494A     13.923468  
     495A     13.967686   496A     14.034063   497A     14.084406  
     498A     15.117868   499A     15.215038   500A     15.501254  
     501A     16.125414   502A     65.605172   503A     65.652647  
     504A     66.241030   505A     67.236990   506A     75.334428  

    Final Occupation by Irrep:
              A 
    DOCC [     5 ]
    NA   [     5 ]
    NB   [     5 ]

  @DF-RHF Final Energy:   -76.05429281809015

   => Energetics <=

    Nuclear Repulsion Energy =              8.7950406921157285
    One-Electron Energy =                -122.3373371679794843
    Two-Electron Energy =                  37.4880036577736035
    Total Energy =                        -76.0542928180901470

Computation Completed


Properties will be evaluated at   0.000000,   0.000000,   0.000000 [a0]

Properties computed using the SCF density matrix


 Multipole Moments:

 ------------------------------------------------------------------------------------
     Multipole            Electronic (a.u.)      Nuclear  (a.u.)        Total (a.u.)
 ------------------------------------------------------------------------------------

 L = 1.  Multiply by 2.5417464519 to convert [e a0] to [Debye]
 Dipole X            :          0.2759217           -0.8179339           -0.5420123
 Dipole Y            :         38.1245453          -37.8898894            0.2346559
 Dipole Z            :        -34.2541314           33.7555202           -0.4986112
 Magnitude           :                                                    0.7729514

 ------------------------------------------------------------------------------------

*** tstop() called on ddmfs1 at Mon Jan 22 18:38:50 2024
Module time:
	user time   =      85.76 seconds =       1.43 minutes
	system time =       4.03 seconds =       0.07 minutes
	total time  =          5 seconds =       0.08 minutes
Total time:
	user time   =      85.76 seconds =       1.43 minutes
	system time =       4.03 seconds =       0.07 minutes
	total time  =          5 seconds =       0.08 minutes

*** tstart() called on ddmfs1
*** at Mon Jan 22 18:38:50 2024


  //>>>>>>>>>>>>>>>>>>>>>>>>>>>>>>>>>>>//
  //               DFMP2               //
  //<<<<<<<<<<<<<<<<<<<<<<<<<<<<<<<<<<<//

   => Loading Basis Set <=

    Name: (AUG-CC-PVTZ AUX)
    Role: RIFIT
    Keyword: DF_BASIS_MP2
    atoms 1                            entry F          line   322 file /ddmfs1b/softs/psi4conda/share/psi4/basis/aug-cc-pvtz-ri.gbs 
    atoms 2, 5, 8, 11, 14              entry O          line   264 file /ddmfs1b/softs/psi4conda/share/psi4/basis/aug-cc-pvtz-ri.gbs 
    atoms 3-4, 6-7, 9-10, 12-13, 15-16 entry H          line    30 file /ddmfs1b/softs/psi4conda/share/psi4/basis/aug-cc-pvtz-ri.gbs 

	 --------------------------------------------------------
	                          DF-MP2                         
	      2nd-Order Density-Fitted Moller-Plesset Theory     
	              RMP2 Wavefunction,  20 Threads             
	                                                         
	        Rob Parrish, Justin Turney, Andy Simmonett,      
	           Ed Hohenstein, and C. David Sherrill          
	 --------------------------------------------------------

   => Auxiliary Basis Set <=

  Basis Set: (AUG-CC-PVTZ AUX)
    Blend: AUG-CC-PVTZ-RI
    Number of shells: 308
    Number of basis functions: 1096
    Number of Cartesian functions: 1366
    Spherical Harmonics?: true
    Max angular momentum: 4

	 --------------------------------------------------------
	                 NBF =   506, NAUX =  1096
	 --------------------------------------------------------
	   CLASS    FOCC     OCC    AOCC    AVIR     VIR    FVIR
	   PAIRS       0       5       5     501     501       0
	 --------------------------------------------------------

	-----------------------------------------------------------
	 ==================> DF-MP2 Energies <==================== 
	-----------------------------------------------------------
	 Reference Energy          =     -76.0542928180901470 [Eh]
	 Singles Energy            =      -0.0000000000000000 [Eh]
	 Same-Spin Energy          =      -0.0691088708098389 [Eh]
	 Opposite-Spin Energy      =      -0.2183327367895810 [Eh]
	 Correlation Energy        =      -0.2874416075994198 [Eh]
	 Total Energy              =     -76.3417344256895660 [Eh]
	-----------------------------------------------------------
	 ================> DF-SCS-MP2 Energies <================== 
	-----------------------------------------------------------
	 SCS Same-Spin Scale       =       0.3333333333333333 [-]
	 SCS Opposite-Spin Scale   =       1.2000000000000000 [-]
	 SCS Same-Spin Energy      =      -0.0230362902699463 [Eh]
	 SCS Opposite-Spin Energy  =      -0.2619992841474972 [Eh]
	 SCS Correlation Energy    =      -0.2850355744174435 [Eh]
	 SCS Total Energy          =     -76.3393283925075963 [Eh]
	-----------------------------------------------------------


*** tstop() called on ddmfs1 at Mon Jan 22 18:38:54 2024
Module time:
	user time   =      24.13 seconds =       0.40 minutes
	system time =       1.25 seconds =       0.02 minutes
	total time  =          4 seconds =       0.07 minutes
Total time:
	user time   =     109.92 seconds =       1.83 minutes
	system time =       5.28 seconds =       0.09 minutes
	total time  =          9 seconds =       0.15 minutes

    Psi4 stopped on: Monday, 22 January 2024 06:38PM
    Psi4 wall time for execution: 0:00:08.96

*** Psi4 exiting successfully. Buy a developer a beer!
