
    -----------------------------------------------------------------------
          Psi4: An Open-Source Ab Initio Electronic Structure Package
                               Psi4 1.8.2 release

                         Git: Rev {} zzzzzzz 


    D. G. A. Smith, L. A. Burns, A. C. Simmonett, R. M. Parrish,
    M. C. Schieber, R. Galvelis, P. Kraus, H. Kruse, R. Di Remigio,
    A. Alenaizan, A. M. James, S. Lehtola, J. P. Misiewicz, M. Scheurer,
    R. A. Shaw, J. B. Schriber, Y. Xie, Z. L. Glick, D. A. Sirianni,
    J. S. O'Brien, J. M. Waldrop, A. Kumar, E. G. Hohenstein,
    B. P. Pritchard, B. R. Brooks, H. F. Schaefer III, A. Yu. Sokolov,
    K. Patkowski, A. E. DePrince III, U. Bozkaya, R. A. King,
    F. A. Evangelista, J. M. Turney, T. D. Crawford, C. D. Sherrill,
    J. Chem. Phys. 152(18) 184108 (2020). https://doi.org/10.1063/5.0006002

                            Additional Code Authors
    E. T. Seidl, C. L. Janssen, E. F. Valeev, M. L. Leininger,
    J. F. Gonthier, R. M. Richard, H. R. McAlexander, M. Saitow, X. Wang,
    P. Verma, M. H. Lechner, A. Jiang, S. Behnle, A. G. Heide,
    M. F. Herbst, and D. L. Poole

             Previous Authors, Complete List of Code Contributors,
                       and Citations for Specific Modules
    https://github.com/psi4/psi4/blob/master/codemeta.json
    https://github.com/psi4/psi4/graphs/contributors
    http://psicode.org/psi4manual/master/introduction.html#citing-psifour

    -----------------------------------------------------------------------


    Psi4 started on: Monday, 22 January 2024 06:16PM

    Process ID: 89484
    Host:       ddmfs1
    PSIDATADIR: /ddmfs1b/softs/psi4conda/share/psi4
    Memory:     500.0 MiB
    Threads:    20
    
  ==> Input File <==

--------------------------------------------------------------------------
MEMORY 60 GB

molecule dimer {
-1 1
F          0.000000     0.000000     0.000000
O         -0.504269     2.615845     0.858712
H         -0.368841     1.747318     0.502742
H         -0.320597     2.565113     1.799174
O         -1.503618    -1.315665    -1.986342
H         -2.280667    -0.801501    -2.366013
H         -1.171011    -0.825309    -1.270502
O          2.723573    -0.791721     0.593434
H          1.984339    -0.306086     0.872898
H          2.496015    -1.256115    -0.252519
O         -0.166216    -0.566886     2.722248
H         -0.104215    -0.470380     1.811756
H          0.267185    -1.405528     2.999724
O          1.430300     1.446224    -1.905269
H          2.087411     1.977584    -1.375924
H          0.975354     0.908102    -1.325386

units ang
no_reorient
no_com
symmetry c1
}

set {
basis        aug-cc-pVTZ
scf_type     df
}

energy("mp2")
--------------------------------------------------------------------------

  Memory set to  55.879 GiB by Python driver.

Scratch directory: /ddmfs1a/scratch/
   => Libint2 <=

    Primary   basis highest AM E, G, H:  5, 4, 3
    Auxiliary basis highest AM E, G, H:  6, 5, 4
    Onebody   basis highest AM E, G, H:  6, 5, 4
    Solid Harmonics ordering:            gaussian

*** tstart() called on ddmfs1
*** at Mon Jan 22 18:16:35 2024

   => Loading Basis Set <=

    Name: AUG-CC-PVTZ
    Role: ORBITAL
    Keyword: BASIS
    atoms 1                            entry F          line   377 file /ddmfs1b/softs/psi4conda/share/psi4/basis/aug-cc-pvtz.gbs 
    atoms 2, 5, 8, 11, 14              entry O          line   331 file /ddmfs1b/softs/psi4conda/share/psi4/basis/aug-cc-pvtz.gbs 
    atoms 3-4, 6-7, 9-10, 12-13, 15-16 entry H          line    40 file /ddmfs1b/softs/psi4conda/share/psi4/basis/aug-cc-pvtz.gbs 


         ---------------------------------------------------------
                                   SCF
               by Justin Turney, Rob Parrish, Andy Simmonett
                          and Daniel G. A. Smith
                              RHF Reference
                       20 Threads,  57220 MiB Core
         ---------------------------------------------------------

  ==> Geometry <==

    Molecular point group: c1
    Full point group: C1

    Geometry (in Angstrom), charge = -1, multiplicity = 1:

       Center              X                  Y                   Z               Mass       
    ------------   -----------------  -----------------  -----------------  -----------------
         F            0.000000000000     0.000000000000     0.000000000000    18.998403162730
         O           -0.504269000000     2.615845000000     0.858712000000    15.994914619570
         H           -0.368841000000     1.747318000000     0.502742000000     1.007825032230
         H           -0.320597000000     2.565113000000     1.799174000000     1.007825032230
         O           -1.503618000000    -1.315665000000    -1.986342000000    15.994914619570
         H           -2.280667000000    -0.801501000000    -2.366013000000     1.007825032230
         H           -1.171011000000    -0.825309000000    -1.270502000000     1.007825032230
         O            2.723573000000    -0.791721000000     0.593434000000    15.994914619570
         H            1.984339000000    -0.306086000000     0.872898000000     1.007825032230
         H            2.496015000000    -1.256115000000    -0.252519000000     1.007825032230
         O           -0.166216000000    -0.566886000000     2.722248000000    15.994914619570
         H           -0.104215000000    -0.470380000000     1.811756000000     1.007825032230
         H            0.267185000000    -1.405528000000     2.999724000000     1.007825032230
         O            1.430300000000     1.446224000000    -1.905269000000    15.994914619570
         H            2.087411000000     1.977584000000    -1.375924000000     1.007825032230
         H            0.975354000000     0.908102000000    -1.325386000000     1.007825032230

  Running in c1 symmetry.

  Rotational constants: A =      0.04064  B =      0.03476  C =      0.03306 [cm^-1]
  Rotational constants: A =   1218.49466  B =   1041.94897  C =    991.07995 [MHz]
  Nuclear repulsion =  261.628840518069126

  Charge       = -1
  Multiplicity = 1
  Electrons    = 60
  Nalpha       = 30
  Nbeta        = 30

  ==> Algorithm <==

  SCF Algorithm Type is DF.
  DIIS enabled.
  MOM disabled.
  Fractional occupation disabled.
  Guess Type is SAD.
  Energy threshold   = 1.00e-08
  Density threshold  = 1.00e-08
  Integral threshold = 1.00e-12

  ==> Primary Basis <==

  Basis Set: AUG-CC-PVTZ
    Blend: AUG-CC-PVTZ
    Number of shells: 174
    Number of basis functions: 506
    Number of Cartesian functions: 580
    Spherical Harmonics?: true
    Max angular momentum: 3

   => Loading Basis Set <=

    Name: (AUG-CC-PVTZ AUX)
    Role: JKFIT
    Keyword: DF_BASIS_SCF
    atoms 1                            entry F          line   348 file /ddmfs1b/softs/psi4conda/share/psi4/basis/aug-cc-pvtz-jkfit.gbs 
    atoms 2, 5, 8, 11, 14              entry O          line   286 file /ddmfs1b/softs/psi4conda/share/psi4/basis/aug-cc-pvtz-jkfit.gbs 
    atoms 3-4, 6-7, 9-10, 12-13, 15-16 entry H          line    70 file /ddmfs1b/softs/psi4conda/share/psi4/basis/aug-cc-pvtz-jkfit.gbs 

  ==> Integral Setup <==

  DFHelper Memory: AOs need 1.955 GiB; user supplied 41.910 GiB. 
  Using in-core AOs.

  ==> MemDFJK: Density-Fitted J/K Matrices <==

    J tasked:                   Yes
    K tasked:                   Yes
    wK tasked:                   No
    OpenMP threads:              20
    Memory [MiB]:             42915
    Algorithm:                 Core
    Schwarz Cutoff:           1E-12
    Mask sparsity (%):      10.2361
    Fitting Condition:        1E-10

   => Auxiliary Basis Set <=

  Basis Set: (AUG-CC-PVTZ AUX)
    Blend: AUG-CC-PVTZ-JKFIT
    Number of shells: 320
    Number of basis functions: 1084
    Number of Cartesian functions: 1336
    Spherical Harmonics?: true
    Max angular momentum: 4

  Minimum eigenvalue in the overlap matrix is 7.7353448078E-05.
  Reciprocal condition number of the overlap matrix is 5.6451429310E-06.
    Using symmetric orthogonalization.

  ==> Pre-Iterations <==

  SCF Guess: Superposition of Atomic Densities via on-the-fly atomic UHF (no occupation information).

   -------------------------
    Irrep   Nso     Nmo    
   -------------------------
     A        506     506 
   -------------------------
    Total     506     506
   -------------------------

  ==> Iterations <==

                           Total Energy        Delta E     RMS |[F,P]|

   @DF-RHF iter SAD:  -476.57456025087760   -4.76575e+02   0.00000e+00 
   @DF-RHF iter   1:  -479.40210040568769   -2.82754e+00   2.18335e-03 DIIS/ADIIS
   @DF-RHF iter   2:  -479.69139210595648   -2.89292e-01   1.46658e-03 DIIS/ADIIS
   @DF-RHF iter   3:  -479.85359171180909   -1.62200e-01   9.64545e-05 DIIS
   @DF-RHF iter   4:  -479.85564771230537   -2.05600e-03   2.24126e-05 DIIS
   @DF-RHF iter   5:  -479.85576018255847   -1.12470e-04   8.23300e-06 DIIS
   @DF-RHF iter   6:  -479.85577230021164   -1.21177e-05   3.36735e-06 DIIS
   @DF-RHF iter   7:  -479.85577431225659   -2.01204e-06   7.46970e-07 DIIS
   @DF-RHF iter   8:  -479.85577452262459   -2.10368e-07   2.45110e-07 DIIS
   @DF-RHF iter   9:  -479.85577453273771   -1.01131e-08   8.58202e-08 DIIS
   @DF-RHF iter  10:  -479.85577453413669   -1.39897e-09   1.32927e-08 DIIS
   @DF-RHF iter  11:  -479.85577453419205   -5.53655e-11   3.86378e-09 DIIS
  Energy and wave function converged.


  ==> Post-Iterations <==

    Orbital Energies [Eh]
    ---------------------

    Doubly Occupied:                                                      

       1A    -25.981026     2A    -20.412319     3A    -20.409701  
       4A    -20.405998     5A    -20.394662     6A    -20.393156  
       7A     -1.247163     8A     -1.202028     9A     -1.198439  
      10A     -1.187510    11A     -1.185282    12A     -1.183929  
      13A     -0.584171    14A     -0.574257    15A     -0.562327  
      16A     -0.560264    17A     -0.557282    18A     -0.435761  
      19A     -0.430441    20A     -0.424093    21A     -0.421032  
      22A     -0.416572    23A     -0.362968    24A     -0.358865  
      25A     -0.352899    26A     -0.348004    27A     -0.343344  
      28A     -0.337191    29A     -0.334951    30A     -0.333424  

    Virtual:                                                              

      31A      0.121411    32A      0.126295    33A      0.135101  
      34A      0.140116    35A      0.150595    36A      0.166426  
      37A      0.180651    38A      0.182908    39A      0.192286  
      40A      0.192848    41A      0.257013    42A      0.261015  
      43A      0.264334    44A      0.271915    45A      0.280119  
      46A      0.282329    47A      0.288950    48A      0.292229  
      49A      0.295919    50A      0.297555    51A      0.311251  
      52A      0.325197    53A      0.332698    54A      0.334986  
      55A      0.338235    56A      0.344232    57A      0.354174  
      58A      0.364864    59A      0.369646    60A      0.373866  
      61A      0.379978    62A      0.387726    63A      0.396604  
      64A      0.404670    65A      0.409456    66A      0.420632  
      67A      0.434947    68A      0.439457    69A      0.452884  
      70A      0.460114    71A      0.467118    72A      0.478141  
      73A      0.487031    74A      0.495797    75A      0.503774  
      76A      0.514338    77A      0.517761    78A      0.527401  
      79A      0.543327    80A      0.544426    81A      0.549803  
      82A      0.560929    83A      0.568807    84A      0.574262  
      85A      0.582693    86A      0.590842    87A      0.597498  
      88A      0.609253    89A      0.616486    90A      0.618728  
      91A      0.638625    92A      0.665392    93A      0.669690  
      94A      0.673536    95A      0.679144    96A      0.697164  
      97A      0.709847    98A      0.721319    99A      0.731732  
     100A      0.732431   101A      0.752666   102A      0.759605  
     103A      0.775753   104A      0.788713   105A      0.799297  
     106A      0.815422   107A      0.833001   108A      0.840577  
     109A      0.856522   110A      0.862251   111A      0.866948  
     112A      0.877800   113A      0.880474   114A      0.891298  
     115A      0.898493   116A      0.903318   117A      0.906051  
     118A      0.916870   119A      0.918682   120A      0.924644  
     121A      0.930546   122A      0.935646   123A      0.946270  
     124A      0.954483   125A      0.971725   126A      0.977969  
     127A      0.984114   128A      1.003728   129A      1.013107  
     130A      1.014839   131A      1.023950   132A      1.037017  
     133A      1.042493   134A      1.047483   135A      1.060850  
     136A      1.063123   137A      1.077612   138A      1.078391  
     139A      1.086250   140A      1.094004   141A      1.102356  
     142A      1.104833   143A      1.109897   144A      1.112153  
     145A      1.124860   146A      1.132232   147A      1.133314  
     148A      1.138985   149A      1.152850   150A      1.155100  
     151A      1.171409   152A      1.178271   153A      1.184823  
     154A      1.185762   155A      1.197919   156A      1.203837  
     157A      1.208885   158A      1.218993   159A      1.228036  
     160A      1.231686   161A      1.242179   162A      1.247869  
     163A      1.257236   164A      1.269492   165A      1.288160  
     166A      1.298768   167A      1.314820   168A      1.320583  
     169A      1.327871   170A      1.336371   171A      1.351813  
     172A      1.354540   173A      1.372139   174A      1.374851  
     175A      1.386556   176A      1.399427   177A      1.403028  
     178A      1.418984   179A      1.423315   180A      1.435399  
     181A      1.442685   182A      1.445669   183A      1.461286  
     184A      1.470273   185A      1.479426   186A      1.506437  
     187A      1.515232   188A      1.529502   189A      1.538656  
     190A      1.544607   191A      1.554375   192A      1.565212  
     193A      1.581995   194A      1.588045   195A      1.613129  
     196A      1.624899   197A      1.633869   198A      1.651504  
     199A      1.653255   200A      1.677676   201A      1.694780  
     202A      1.698352   203A      1.702831   204A      1.706701  
     205A      1.716687   206A      1.731786   207A      1.739603  
     208A      1.760794   209A      1.773411   210A      1.794881  
     211A      1.797916   212A      1.813536   213A      1.822883  
     214A      1.846232   215A      1.859157   216A      1.885383  
     217A      1.894044   218A      1.905624   219A      1.913228  
     220A      1.933469   221A      1.934844   222A      1.974523  
     223A      1.988369   224A      2.003438   225A      2.012815  
     226A      2.041973   227A      2.050621   228A      2.059951  
     229A      2.097502   230A      2.106541   231A      2.125712  
     232A      2.143525   233A      2.150775   234A      2.169579  
     235A      2.184103   236A      2.195051   237A      2.221400  
     238A      2.241149   239A      2.278374   240A      2.366135  
     241A      2.411842   242A      2.428324   243A      2.448355  
     244A      2.463492   245A      2.482849   246A      2.492181  
     247A      2.516056   248A      2.530128   249A      2.541122  
     250A      2.555277   251A      2.559969   252A      2.572305  
     253A      2.583708   254A      2.587745   255A      2.600875  
     256A      2.603139   257A      2.614347   258A      2.617040  
     259A      2.644794   260A      2.647636   261A      2.661620  
     262A      2.671770   263A      2.679355   264A      2.687875  
     265A      2.691264   266A      2.702324   267A      2.711068  
     268A      2.729996   269A      2.749353   270A      2.775504  
     271A      2.789442   272A      2.798459   273A      2.806548  
     274A      2.812335   275A      2.818546   276A      2.834257  
     277A      2.851730   278A      2.865001   279A      2.872788  
     280A      2.896960   281A      2.906350   282A      2.918872  
     283A      2.942923   284A      2.949007   285A      2.958106  
     286A      2.973288   287A      2.983956   288A      2.990387  
     289A      3.011738   290A      3.018685   291A      3.031032  
     292A      3.043998   293A      3.057254   294A      3.076187  
     295A      3.088684   296A      3.105474   297A      3.136975  
     298A      3.143061   299A      3.166370   300A      3.178670  
     301A      3.191420   302A      3.214829   303A      3.220933  
     304A      3.251772   305A      3.272535   306A      3.283496  
     307A      3.323527   308A      3.386387   309A      3.491853  
     310A      3.579673   311A      3.616483   312A      3.658894  
     313A      3.713110   314A      3.749456   315A      3.765431  
     316A      3.774560   317A      3.856750   318A      3.884802  
     319A      3.904521   320A      3.914712   321A      3.929540  
     322A      3.941828   323A      3.986480   324A      4.061878  
     325A      4.121860   326A      4.172039   327A      4.202924  
     328A      4.221298   329A      4.238674   330A      4.243000  
     331A      4.258524   332A      4.265542   333A      4.281795  
     334A      4.304571   335A      4.308286   336A      4.396823  
     337A      4.415140   338A      4.422386   339A      4.431131  
     340A      4.442310   341A      4.466841   342A      4.475815  
     343A      4.478487   344A      4.487350   345A      4.500934  
     346A      4.506194   347A      4.517195   348A      4.520969  
     349A      4.531860   350A      4.545582   351A      4.549588  
     352A      4.563703   353A      4.573331   354A      4.586678  
     355A      4.590993   356A      4.597122   357A      4.603444  
     358A      4.611557   359A      4.626101   360A      4.630269  
     361A      4.638789   362A      4.661933   363A      4.680584  
     364A      4.690808   365A      4.701862   366A      4.724329  
     367A      4.738067   368A      4.744947   369A      4.759304  
     370A      4.783815   371A      4.801106   372A      4.806816  
     373A      4.824979   374A      4.869823   375A      4.886166  
     376A      4.923988   377A      4.941233   378A      4.956443  
     379A      5.009192   380A      5.029568   381A      5.071044  
     382A      5.128485   383A      5.151393   384A      5.186166  
     385A      5.237862   386A      5.287417   387A      5.307123  
     388A      5.322631   389A      5.335061   390A      5.357887  
     391A      5.369900   392A      5.376548   393A      5.382845  
     394A      5.392960   395A      5.428865   396A      5.492301  
     397A      5.512985   398A      5.525490   399A      5.555218  
     400A      5.569102   401A      5.627020   402A      5.661937  
     403A      5.691129   404A      5.717148   405A      5.723279  
     406A      5.747059   407A      5.766314   408A      5.788622  
     409A      5.797941   410A      5.836505   411A      5.963817  
     412A      5.983244   413A      6.001946   414A      6.039005  
     415A      6.053793   416A      6.342476   417A      6.371207  
     418A      6.401330   419A      6.419614   420A      6.478447  
     421A      6.490360   422A      6.625060   423A      6.655242  
     424A      6.736610   425A      6.742524   426A      6.751278  
     427A      6.758306   428A      6.770997   429A      6.928034  
     430A      6.948338   431A      6.982296   432A      6.991620  
     433A      7.007266   434A      7.066494   435A      7.075257  
     436A      7.105343   437A      7.133242   438A      7.159982  
     439A      7.282351   440A      7.311181   441A      7.349517  
     442A      7.350248   443A      7.375044   444A      7.415206  
     445A      7.436452   446A      7.452130   447A      7.463242  
     448A      7.476996   449A      7.493348   450A      7.512450  
     451A      7.522134   452A      7.530823   453A      7.538043  
     454A      7.547185   455A      7.562112   456A      7.564198  
     457A      7.570099   458A      7.593016   459A      7.610077  
     460A      7.629458   461A      7.646137   462A      7.665455  
     463A      7.685711   464A      7.687779   465A      7.706643  
     466A      7.723078   467A      7.730108   468A      7.759634  
     469A      7.901215   470A      7.931794   471A      7.985133  
     472A      8.009495   473A      8.029593   474A      8.111657  
     475A      8.129136   476A      8.148500   477A      8.185266  
     478A      8.193988   479A      8.235386   480A      8.238036  
     481A      8.261858   482A      8.332985   483A      8.370952  
     484A      8.906535   485A      8.951993   486A      8.972112  
     487A      8.991343   488A      9.041276   489A      9.319604  
     490A      9.418853   491A      9.493409   492A      9.534454  
     493A      9.635221   494A      9.786403   495A      9.825399  
     496A      9.962829   497A     10.026942   498A     10.120927  
     499A     10.172663   500A     10.231232   501A     14.705038  
     502A     16.849148   503A     17.155514   504A     17.824535  
     505A     18.082211   506A     18.210938  

    Final Occupation by Irrep:
              A 
    DOCC [    30 ]
    NA   [    30 ]
    NB   [    30 ]

  @DF-RHF Final Energy:  -479.85577453419205

   => Energetics <=

    Nuclear Repulsion Energy =            261.6288405180691257
    One-Electron Energy =               -1197.0911088408311116
    Two-Electron Energy =                 455.6064937885698782
    Total Energy =                       -479.8557745341920509

Computation Completed


Properties will be evaluated at   0.000000,   0.000000,   0.000000 [a0]

Properties computed using the SCF density matrix


 Multipole Moments:

 ------------------------------------------------------------------------------------
     Multipole            Electronic (a.u.)      Nuclear  (a.u.)        Total (a.u.)
 ------------------------------------------------------------------------------------

 L = 1.  Multiply by 2.5417464519 to convert [e a0] to [Debye]
 Dipole X            :        -37.0868353           36.6666073           -0.4202280
 Dipole Y            :        -25.6730833           25.0116100           -0.6614733
 Dipole Z            :         -6.4246363            6.9130226            0.4883863
 Magnitude           :                                                    0.9233957

 ------------------------------------------------------------------------------------

*** tstop() called on ddmfs1 at Mon Jan 22 18:16:43 2024
Module time:
	user time   =     124.57 seconds =       2.08 minutes
	system time =       6.43 seconds =       0.11 minutes
	total time  =          8 seconds =       0.13 minutes
Total time:
	user time   =     124.57 seconds =       2.08 minutes
	system time =       6.43 seconds =       0.11 minutes
	total time  =          8 seconds =       0.13 minutes

*** tstart() called on ddmfs1
*** at Mon Jan 22 18:16:43 2024


  //>>>>>>>>>>>>>>>>>>>>>>>>>>>>>>>>>>>//
  //               DFMP2               //
  //<<<<<<<<<<<<<<<<<<<<<<<<<<<<<<<<<<<//

   => Loading Basis Set <=

    Name: (AUG-CC-PVTZ AUX)
    Role: RIFIT
    Keyword: DF_BASIS_MP2
    atoms 1                            entry F          line   322 file /ddmfs1b/softs/psi4conda/share/psi4/basis/aug-cc-pvtz-ri.gbs 
    atoms 2, 5, 8, 11, 14              entry O          line   264 file /ddmfs1b/softs/psi4conda/share/psi4/basis/aug-cc-pvtz-ri.gbs 
    atoms 3-4, 6-7, 9-10, 12-13, 15-16 entry H          line    30 file /ddmfs1b/softs/psi4conda/share/psi4/basis/aug-cc-pvtz-ri.gbs 

	 --------------------------------------------------------
	                          DF-MP2                         
	      2nd-Order Density-Fitted Moller-Plesset Theory     
	              RMP2 Wavefunction,  20 Threads             
	                                                         
	        Rob Parrish, Justin Turney, Andy Simmonett,      
	           Ed Hohenstein, and C. David Sherrill          
	 --------------------------------------------------------

   => Auxiliary Basis Set <=

  Basis Set: (AUG-CC-PVTZ AUX)
    Blend: AUG-CC-PVTZ-RI
    Number of shells: 308
    Number of basis functions: 1096
    Number of Cartesian functions: 1366
    Spherical Harmonics?: true
    Max angular momentum: 4

	 --------------------------------------------------------
	                 NBF =   506, NAUX =  1096
	 --------------------------------------------------------
	   CLASS    FOCC     OCC    AOCC    AVIR     VIR    FVIR
	   PAIRS       0      30      30     476     476       0
	 --------------------------------------------------------

	-----------------------------------------------------------
	 ==================> DF-MP2 Energies <==================== 
	-----------------------------------------------------------
	 Reference Energy          =    -479.8557745341920509 [Eh]
	 Singles Energy            =      -0.0000000000000000 [Eh]
	 Same-Spin Energy          =      -0.4298376371408992 [Eh]
	 Opposite-Spin Energy      =      -1.3110170008547934 [Eh]
	 Correlation Energy        =      -1.7408546379956926 [Eh]
	 Total Energy              =    -481.5966291721877610 [Eh]
	-----------------------------------------------------------
	 ================> DF-SCS-MP2 Energies <================== 
	-----------------------------------------------------------
	 SCS Same-Spin Scale       =       0.3333333333333333 [-]
	 SCS Opposite-Spin Scale   =       1.2000000000000000 [-]
	 SCS Same-Spin Energy      =      -0.1432792123802997 [Eh]
	 SCS Opposite-Spin Energy  =      -1.5732204010257520 [Eh]
	 SCS Correlation Energy    =      -1.7164996134060517 [Eh]
	 SCS Total Energy          =    -481.5722741475980797 [Eh]
	-----------------------------------------------------------


*** tstop() called on ddmfs1 at Mon Jan 22 18:16:47 2024
Module time:
	user time   =      39.67 seconds =       0.66 minutes
	system time =       1.69 seconds =       0.03 minutes
	total time  =          4 seconds =       0.07 minutes
Total time:
	user time   =     164.24 seconds =       2.74 minutes
	system time =       8.13 seconds =       0.14 minutes
	total time  =         12 seconds =       0.20 minutes

    Psi4 stopped on: Monday, 22 January 2024 06:16PM
    Psi4 wall time for execution: 0:00:12.01

*** Psi4 exiting successfully. Buy a developer a beer!
