
    -----------------------------------------------------------------------
          Psi4: An Open-Source Ab Initio Electronic Structure Package
                               Psi4 1.8.2 release

                         Git: Rev {} zzzzzzz 


    D. G. A. Smith, L. A. Burns, A. C. Simmonett, R. M. Parrish,
    M. C. Schieber, R. Galvelis, P. Kraus, H. Kruse, R. Di Remigio,
    A. Alenaizan, A. M. James, S. Lehtola, J. P. Misiewicz, M. Scheurer,
    R. A. Shaw, J. B. Schriber, Y. Xie, Z. L. Glick, D. A. Sirianni,
    J. S. O'Brien, J. M. Waldrop, A. Kumar, E. G. Hohenstein,
    B. P. Pritchard, B. R. Brooks, H. F. Schaefer III, A. Yu. Sokolov,
    K. Patkowski, A. E. DePrince III, U. Bozkaya, R. A. King,
    F. A. Evangelista, J. M. Turney, T. D. Crawford, C. D. Sherrill,
    J. Chem. Phys. 152(18) 184108 (2020). https://doi.org/10.1063/5.0006002

                            Additional Code Authors
    E. T. Seidl, C. L. Janssen, E. F. Valeev, M. L. Leininger,
    J. F. Gonthier, R. M. Richard, H. R. McAlexander, M. Saitow, X. Wang,
    P. Verma, M. H. Lechner, A. Jiang, S. Behnle, A. G. Heide,
    M. F. Herbst, and D. L. Poole

             Previous Authors, Complete List of Code Contributors,
                       and Citations for Specific Modules
    https://github.com/psi4/psi4/blob/master/codemeta.json
    https://github.com/psi4/psi4/graphs/contributors
    http://psicode.org/psi4manual/master/introduction.html#citing-psifour

    -----------------------------------------------------------------------


    Psi4 started on: Monday, 22 January 2024 06:45PM

    Process ID: 92654
    Host:       ddmfs1
    PSIDATADIR: /ddmfs1b/softs/psi4conda/share/psi4
    Memory:     500.0 MiB
    Threads:    20
    
  ==> Input File <==

--------------------------------------------------------------------------
MEMORY 60 GB

molecule dimer {
0 1
Gh(F)      0.000000     0.000000     0.000000
Gh(O)     -1.926510    -0.488905     1.828209
Gh(H)     -1.218437    -0.291512     1.216095
Gh(H)     -1.943797     0.253946     2.436303
Gh(O)     -1.465982     2.344386    -0.959195
Gh(H)     -1.258918     1.474742    -0.673609
Gh(H)     -0.760802     2.572151    -1.640564
Gh(O)      1.781208     1.993985     0.947440
Gh(H)      2.722858     1.834958     1.158027
Gh(H)      1.404065     1.156182     0.633208
O          0.920742    -0.070805    -2.597380
H          0.201064     0.162434    -3.173783
H          0.557053     0.093415    -1.736858
Gh(O)      1.502065    -2.307810     0.115819
Gh(H)      1.299950    -2.782798    -0.663331
Gh(H)      1.063706    -1.409643     0.038071

units ang
no_reorient
no_com
symmetry c1
}

set {
basis        aug-cc-pVTZ
scf_type     df
}

energy("mp2")
--------------------------------------------------------------------------

  Memory set to  55.879 GiB by Python driver.

Scratch directory: /ddmfs1a/scratch/
   => Libint2 <=

    Primary   basis highest AM E, G, H:  5, 4, 3
    Auxiliary basis highest AM E, G, H:  6, 5, 4
    Onebody   basis highest AM E, G, H:  6, 5, 4
    Solid Harmonics ordering:            gaussian

*** tstart() called on ddmfs1
*** at Mon Jan 22 18:45:16 2024

   => Loading Basis Set <=

    Name: AUG-CC-PVTZ
    Role: ORBITAL
    Keyword: BASIS
    atoms 1                            entry F          line   377 file /ddmfs1b/softs/psi4conda/share/psi4/basis/aug-cc-pvtz.gbs 
    atoms 2, 5, 8, 11, 14              entry O          line   331 file /ddmfs1b/softs/psi4conda/share/psi4/basis/aug-cc-pvtz.gbs 
    atoms 3-4, 6-7, 9-10, 12-13, 15-16 entry H          line    40 file /ddmfs1b/softs/psi4conda/share/psi4/basis/aug-cc-pvtz.gbs 


         ---------------------------------------------------------
                                   SCF
               by Justin Turney, Rob Parrish, Andy Simmonett
                          and Daniel G. A. Smith
                              RHF Reference
                       20 Threads,  57220 MiB Core
         ---------------------------------------------------------

  ==> Geometry <==

    Molecular point group: c1
    Full point group: C1

    Geometry (in Angstrom), charge = 0, multiplicity = 1:

       Center              X                  Y                   Z               Mass       
    ------------   -----------------  -----------------  -----------------  -----------------
      Gh(F)           0.000000000000     0.000000000000     0.000000000000    18.998403162730
      Gh(O)          -1.926510000000    -0.488905000000     1.828209000000    15.994914619570
      Gh(H)          -1.218437000000    -0.291512000000     1.216095000000     1.007825032230
      Gh(H)          -1.943797000000     0.253946000000     2.436303000000     1.007825032230
      Gh(O)          -1.465982000000     2.344386000000    -0.959195000000    15.994914619570
      Gh(H)          -1.258918000000     1.474742000000    -0.673609000000     1.007825032230
      Gh(H)          -0.760802000000     2.572151000000    -1.640564000000     1.007825032230
      Gh(O)           1.781208000000     1.993985000000     0.947440000000    15.994914619570
      Gh(H)           2.722858000000     1.834958000000     1.158027000000     1.007825032230
      Gh(H)           1.404065000000     1.156182000000     0.633208000000     1.007825032230
         O            0.920742000000    -0.070805000000    -2.597380000000    15.994914619570
         H            0.201064000000     0.162434000000    -3.173783000000     1.007825032230
         H            0.557053000000     0.093415000000    -1.736858000000     1.007825032230
      Gh(O)           1.502065000000    -2.307810000000     0.115819000000    15.994914619570
      Gh(H)           1.299950000000    -2.782798000000    -0.663331000000     1.007825032230
      Gh(H)           1.063706000000    -1.409643000000     0.038071000000     1.007825032230

  Running in c1 symmetry.

  Rotational constants: A =      0.04143  B =      0.03831  C =      0.03102 [cm^-1]
  Rotational constants: A =   1241.92372  B =   1148.55161  C =    930.08658 [MHz]
  Nuclear repulsion =    9.271254264365647

  Charge       = 0
  Multiplicity = 1
  Electrons    = 10
  Nalpha       = 5
  Nbeta        = 5

  ==> Algorithm <==

  SCF Algorithm Type is DF.
  DIIS enabled.
  MOM disabled.
  Fractional occupation disabled.
  Guess Type is SAD.
  Energy threshold   = 1.00e-08
  Density threshold  = 1.00e-08
  Integral threshold = 1.00e-12

  ==> Primary Basis <==

  Basis Set: AUG-CC-PVTZ
    Blend: AUG-CC-PVTZ
    Number of shells: 174
    Number of basis functions: 506
    Number of Cartesian functions: 580
    Spherical Harmonics?: true
    Max angular momentum: 3

   => Loading Basis Set <=

    Name: (AUG-CC-PVTZ AUX)
    Role: JKFIT
    Keyword: DF_BASIS_SCF
    atoms 1                            entry F          line   348 file /ddmfs1b/softs/psi4conda/share/psi4/basis/aug-cc-pvtz-jkfit.gbs 
    atoms 2, 5, 8, 11, 14              entry O          line   286 file /ddmfs1b/softs/psi4conda/share/psi4/basis/aug-cc-pvtz-jkfit.gbs 
    atoms 3-4, 6-7, 9-10, 12-13, 15-16 entry H          line    70 file /ddmfs1b/softs/psi4conda/share/psi4/basis/aug-cc-pvtz-jkfit.gbs 

  ==> Integral Setup <==

  DFHelper Memory: AOs need 1.962 GiB; user supplied 41.910 GiB. 
  Using in-core AOs.

  ==> MemDFJK: Density-Fitted J/K Matrices <==

    J tasked:                   Yes
    K tasked:                   Yes
    wK tasked:                   No
    OpenMP threads:              20
    Memory [MiB]:             42915
    Algorithm:                 Core
    Schwarz Cutoff:           1E-12
    Mask sparsity (%):       9.8939
    Fitting Condition:        1E-10

   => Auxiliary Basis Set <=

  Basis Set: (AUG-CC-PVTZ AUX)
    Blend: AUG-CC-PVTZ-JKFIT
    Number of shells: 320
    Number of basis functions: 1084
    Number of Cartesian functions: 1336
    Spherical Harmonics?: true
    Max angular momentum: 4

  Minimum eigenvalue in the overlap matrix is 5.3105944516E-05.
  Reciprocal condition number of the overlap matrix is 3.8935194146E-06.
    Using symmetric orthogonalization.

  ==> Pre-Iterations <==

  SCF Guess: Superposition of Atomic Densities via on-the-fly atomic UHF (no occupation information).

   -------------------------
    Irrep   Nso     Nmo    
   -------------------------
     A        506     506 
   -------------------------
    Total     506     506
   -------------------------

  ==> Iterations <==

                           Total Energy        Delta E     RMS |[F,P]|

   @DF-RHF iter SAD:   -75.48857869740917   -7.54886e+01   0.00000e+00 
   @DF-RHF iter   1:   -75.97660624259018   -4.88028e-01   9.28150e-04 DIIS/ADIIS
   @DF-RHF iter   2:   -76.02951882884787   -5.29126e-02   6.26993e-04 DIIS/ADIIS
   @DF-RHF iter   3:   -76.06040574459551   -3.08869e-02   4.24986e-05 DIIS
   @DF-RHF iter   4:   -76.06078071180549   -3.74967e-04   9.94578e-06 DIIS
   @DF-RHF iter   5:   -76.06080306301727   -2.23512e-05   2.24715e-06 DIIS
   @DF-RHF iter   6:   -76.06080486641741   -1.80340e-06   4.88507e-07 DIIS
   @DF-RHF iter   7:   -76.06080496051331   -9.40959e-08   8.78517e-08 DIIS
   @DF-RHF iter   8:   -76.06080496320216   -2.68885e-09   1.45134e-08 DIIS
   @DF-RHF iter   9:   -76.06080496325845   -5.62892e-11   3.44351e-09 DIIS
  Energy and wave function converged.


  ==> Post-Iterations <==

    Orbital Energies [Eh]
    ---------------------

    Doubly Occupied:                                                      

       1A    -20.566619     2A     -1.358873     3A     -0.717934  
       4A     -0.590183     5A     -0.511522  

    Virtual:                                                              

       6A      0.015503     7A      0.034681     8A      0.038422  
       9A      0.038799    10A      0.056801    11A      0.060223  
      12A      0.064747    13A      0.068514    14A      0.072754  
      15A      0.084569    16A      0.117656    17A      0.126060  
      18A      0.130197    19A      0.133290    20A      0.139303  
      21A      0.144160    22A      0.154751    23A      0.159611  
      24A      0.165710    25A      0.174146    26A      0.176111  
      27A      0.179397    28A      0.185511    29A      0.189789  
      30A      0.194123    31A      0.206934    32A      0.210559  
      33A      0.214181    34A      0.223278    35A      0.227218  
      36A      0.241825    37A      0.257304    38A      0.266210  
      39A      0.277473    40A      0.291895    41A      0.293500  
      42A      0.303905    43A      0.307498    44A      0.317432  
      45A      0.320623    46A      0.331023    47A      0.335254  
      48A      0.339923    49A      0.347502    50A      0.353429  
      51A      0.355144    52A      0.370780    53A      0.372692  
      54A      0.380755    55A      0.386770    56A      0.388337  
      57A      0.394073    58A      0.408462    59A      0.412802  
      60A      0.417775    61A      0.419980    62A      0.432300  
      63A      0.440584    64A      0.451206    65A      0.454450  
      66A      0.475825    67A      0.477612    68A      0.494025  
      69A      0.497449    70A      0.512503    71A      0.519316  
      72A      0.527382    73A      0.539107    74A      0.555058  
      75A      0.559854    76A      0.574113    77A      0.599202  
      78A      0.620962    79A      0.634056    80A      0.669738  
      81A      0.675239    82A      0.687468    83A      0.693602  
      84A      0.716805    85A      0.721085    86A      0.725724  
      87A      0.741441    88A      0.743892    89A      0.756752  
      90A      0.759700    91A      0.766268    92A      0.773452  
      93A      0.786914    94A      0.788729    95A      0.792024  
      96A      0.800322    97A      0.806246    98A      0.814272  
      99A      0.824332   100A      0.832403   101A      0.839400  
     102A      0.841694   103A      0.847400   104A      0.853897  
     105A      0.859998   106A      0.865007   107A      0.867966  
     108A      0.875627   109A      0.884504   110A      0.898302  
     111A      0.900408   112A      0.906635   113A      0.911505  
     114A      0.921724   115A      0.927543   116A      0.932428  
     117A      0.936669   118A      0.942564   119A      0.949976  
     120A      0.958526   121A      0.970970   122A      0.982996  
     123A      0.993912   124A      0.996393   125A      1.003048  
     126A      1.013706   127A      1.018058   128A      1.023926  
     129A      1.026544   130A      1.040132   131A      1.041183  
     132A      1.049372   133A      1.055272   134A      1.058704  
     135A      1.065543   136A      1.070972   137A      1.084781  
     138A      1.087057   139A      1.103708   140A      1.109133  
     141A      1.118582   142A      1.124456   143A      1.132321  
     144A      1.136717   145A      1.150356   146A      1.162654  
     147A      1.176940   148A      1.185582   149A      1.190722  
     150A      1.207264   151A      1.219523   152A      1.235127  
     153A      1.239942   154A      1.252783   155A      1.268569  
     156A      1.272572   157A      1.286403   158A      1.296160  
     159A      1.304437   160A      1.316918   161A      1.329543  
     162A      1.341558   163A      1.356187   164A      1.370240  
     165A      1.393618   166A      1.407842   167A      1.423538  
     168A      1.437069   169A      1.447432   170A      1.452497  
     171A      1.459429   172A      1.473301   173A      1.481907  
     174A      1.484665   175A      1.505728   176A      1.533174  
     177A      1.562744   178A      1.566214   179A      1.583082  
     180A      1.603343   181A      1.636832   182A      1.650555  
     183A      1.666441   184A      1.684055   185A      1.693091  
     186A      1.698520   187A      1.714100   188A      1.717184  
     189A      1.734680   190A      1.742856   191A      1.762561  
     192A      1.770199   193A      1.774013   194A      1.786285  
     195A      1.791519   196A      1.807433   197A      1.810792  
     198A      1.816362   199A      1.830988   200A      1.856937  
     201A      1.870779   202A      1.878851   203A      1.896903  
     204A      1.916116   205A      1.926204   206A      1.928697  
     207A      1.946889   208A      1.960442   209A      1.979219  
     210A      1.989235   211A      2.019367   212A      2.021358  
     213A      2.037551   214A      2.059355   215A      2.102168  
     216A      2.130734   217A      2.165006   218A      2.205771  
     219A      2.222409   220A      2.229624   221A      2.265145  
     222A      2.317826   223A      2.373858   224A      2.439603  
     225A      2.451646   226A      2.470214   227A      2.474720  
     228A      2.480313   229A      2.486815   230A      2.501357  
     231A      2.506322   232A      2.512035   233A      2.530518  
     234A      2.532670   235A      2.549200   236A      2.562202  
     237A      2.582482   238A      2.585280   239A      2.594200  
     240A      2.612927   241A      2.625669   242A      2.634764  
     243A      2.656454   244A      2.664194   245A      2.668310  
     246A      2.676301   247A      2.688355   248A      2.700469  
     249A      2.702729   250A      2.708203   251A      2.713375  
     252A      2.740488   253A      2.767753   254A      2.783511  
     255A      2.794025   256A      2.799514   257A      2.810571  
     258A      2.825379   259A      2.844316   260A      2.850460  
     261A      2.872949   262A      2.890729   263A      2.908926  
     264A      2.941503   265A      2.955060   266A      2.963739  
     267A      3.000311   268A      3.019822   269A      3.064874  
     270A      3.073808   271A      3.080157   272A      3.172491  
     273A      3.181623   274A      3.197508   275A      3.215452  
     276A      3.223505   277A      3.226958   278A      3.239717  
     279A      3.246415   280A      3.261870   281A      3.279177  
     282A      3.323830   283A      3.348494   284A      3.351586  
     285A      3.414155   286A      3.443158   287A      3.455224  
     288A      3.462496   289A      3.471483   290A      3.484678  
     291A      3.510941   292A      3.541761   293A      3.588404  
     294A      3.599488   295A      3.600062   296A      3.620234  
     297A      3.633923   298A      3.651027   299A      3.710259  
     300A      3.720784   301A      3.771159   302A      3.787750  
     303A      3.802834   304A      3.825261   305A      3.841205  
     306A      3.907439   307A      3.948721   308A      3.986732  
     309A      4.076760   310A      4.133023   311A      4.168976  
     312A      4.189477   313A      4.213583   314A      4.248356  
     315A      4.252579   316A      4.285655   317A      4.315563  
     318A      4.353645   319A      4.388840   320A      4.401097  
     321A      4.405054   322A      4.418316   323A      4.424055  
     324A      4.440966   325A      4.442439   326A      4.463250  
     327A      4.467835   328A      4.493260   329A      4.503191  
     330A      4.514517   331A      4.534032   332A      4.539936  
     333A      4.572160   334A      4.584455   335A      4.601036  
     336A      4.625560   337A      4.629582   338A      4.639009  
     339A      4.652533   340A      4.666893   341A      4.710229  
     342A      4.722699   343A      4.744040   344A      4.747626  
     345A      4.763548   346A      4.786285   347A      4.861665  
     348A      4.872813   349A      4.895553   350A      4.899247  
     351A      4.919652   352A      4.920847   353A      4.930854  
     354A      4.963981   355A      4.978022   356A      4.990377  
     357A      4.995804   358A      5.019620   359A      5.048130  
     360A      5.071757   361A      5.089789   362A      5.120258  
     363A      5.153199   364A      5.196052   365A      5.230400  
     366A      5.274708   367A      5.306280   368A      5.316768  
     369A      5.334381   370A      5.373225   371A      5.391921  
     372A      5.483433   373A      5.506173   374A      5.525529  
     375A      5.533301   376A      5.579527   377A      5.591707  
     378A      5.612861   379A      5.622117   380A      5.642475  
     381A      5.650801   382A      5.655723   383A      5.732290  
     384A      5.741212   385A      5.749663   386A      5.821415  
     387A      5.836210   388A      5.868064   389A      5.950617  
     390A      5.981643   391A      6.166197   392A      6.204446  
     393A      6.261044   394A      6.303547   395A      6.366694  
     396A      6.480685   397A      6.497050   398A      6.523274  
     399A      6.563318   400A      6.577049   401A      6.598368  
     402A      6.724780   403A      6.749829   404A      6.766875  
     405A      6.902800   406A      7.057273   407A      7.073643  
     408A      7.126220   409A      7.142775   410A      7.163182  
     411A      7.219464   412A      7.343088   413A      7.374697  
     414A      7.417243   415A      7.471760   416A      7.544696  
     417A      7.715161   418A      7.723068   419A      7.760075  
     420A      7.766556   421A      7.812430   422A      7.829265  
     423A      7.835007   424A      7.852242   425A      7.868729  
     426A      8.043074   427A      8.056197   428A      8.058609  
     429A      8.077611   430A      8.091938   431A      8.121737  
     432A      8.240995   433A      8.248149   434A      8.261985  
     435A      8.275067   436A      8.293956   437A      8.297217  
     438A      8.317818   439A      8.333551   440A      8.734675  
     441A      8.772491   442A      8.821753   443A      8.862746  
     444A      8.942030   445A      8.957697   446A      8.993755  
     447A      9.026005   448A      9.113922   449A      9.703647  
     450A      9.732416   451A      9.735826   452A      9.757924  
     453A      9.851048   454A      9.879621   455A      9.891947  
     456A      9.902338   457A     10.068349   458A     10.080118  
     459A     10.104191   460A     10.145535   461A     10.296258  
     462A     10.316894   463A     10.343768   464A     10.362647  
     465A     10.376947   466A     10.492553   467A     10.528081  
     468A     10.612542   469A     10.713204   470A     10.760034  
     471A     10.800294   472A     11.053520   473A     11.152283  
     474A     11.238609   475A     11.310389   476A     11.728840  
     477A     11.762023   478A     11.801900   479A     11.883924  
     480A     11.923884   481A     12.113056   482A     12.227999  
     483A     12.350799   484A     12.725464   485A     13.290146  
     486A     13.312421   487A     13.383491   488A     13.415082  
     489A     13.477977   490A     13.540976   491A     13.614320  
     492A     13.715465   493A     13.789578   494A     13.974903  
     495A     13.993373   496A     14.023847   497A     14.097213  
     498A     15.225596   499A     15.242601   500A     15.414988  
     501A     17.494576   502A     65.670327   503A     65.961357  
     504A     66.458778   505A     67.917297   506A     75.618543  

    Final Occupation by Irrep:
              A 
    DOCC [     5 ]
    NA   [     5 ]
    NB   [     5 ]

  @DF-RHF Final Energy:   -76.06080496325845

   => Energetics <=

    Nuclear Repulsion Energy =              9.2712542643656466
    One-Electron Energy =                -123.1738569856466938
    Two-Electron Energy =                  37.8417977580225866
    Total Energy =                        -76.0608049632584482

Computation Completed


Properties will be evaluated at   0.000000,   0.000000,   0.000000 [a0]

Properties computed using the SCF density matrix


 Multipole Moments:

 ------------------------------------------------------------------------------------
     Multipole            Electronic (a.u.)      Nuclear  (a.u.)        Total (a.u.)
 ------------------------------------------------------------------------------------

 L = 1.  Multiply by 2.5417464519 to convert [e a0] to [Debye]
 Dipole X            :        -16.0721976           15.3522352           -0.7199624
 Dipole Y            :          0.8512475           -0.5869319            0.2643155
 Dipole Z            :         48.7359451          -48.5464613            0.1894838
 Magnitude           :                                                    0.7900080

 ------------------------------------------------------------------------------------

*** tstop() called on ddmfs1 at Mon Jan 22 18:45:21 2024
Module time:
	user time   =      85.39 seconds =       1.42 minutes
	system time =       3.96 seconds =       0.07 minutes
	total time  =          5 seconds =       0.08 minutes
Total time:
	user time   =      85.39 seconds =       1.42 minutes
	system time =       3.96 seconds =       0.07 minutes
	total time  =          5 seconds =       0.08 minutes

*** tstart() called on ddmfs1
*** at Mon Jan 22 18:45:21 2024


  //>>>>>>>>>>>>>>>>>>>>>>>>>>>>>>>>>>>//
  //               DFMP2               //
  //<<<<<<<<<<<<<<<<<<<<<<<<<<<<<<<<<<<//

   => Loading Basis Set <=

    Name: (AUG-CC-PVTZ AUX)
    Role: RIFIT
    Keyword: DF_BASIS_MP2
    atoms 1                            entry F          line   322 file /ddmfs1b/softs/psi4conda/share/psi4/basis/aug-cc-pvtz-ri.gbs 
    atoms 2, 5, 8, 11, 14              entry O          line   264 file /ddmfs1b/softs/psi4conda/share/psi4/basis/aug-cc-pvtz-ri.gbs 
    atoms 3-4, 6-7, 9-10, 12-13, 15-16 entry H          line    30 file /ddmfs1b/softs/psi4conda/share/psi4/basis/aug-cc-pvtz-ri.gbs 

	 --------------------------------------------------------
	                          DF-MP2                         
	      2nd-Order Density-Fitted Moller-Plesset Theory     
	              RMP2 Wavefunction,  20 Threads             
	                                                         
	        Rob Parrish, Justin Turney, Andy Simmonett,      
	           Ed Hohenstein, and C. David Sherrill          
	 --------------------------------------------------------

   => Auxiliary Basis Set <=

  Basis Set: (AUG-CC-PVTZ AUX)
    Blend: AUG-CC-PVTZ-RI
    Number of shells: 308
    Number of basis functions: 1096
    Number of Cartesian functions: 1366
    Spherical Harmonics?: true
    Max angular momentum: 4

	 --------------------------------------------------------
	                 NBF =   506, NAUX =  1096
	 --------------------------------------------------------
	   CLASS    FOCC     OCC    AOCC    AVIR     VIR    FVIR
	   PAIRS       0       5       5     501     501       0
	 --------------------------------------------------------

	-----------------------------------------------------------
	 ==================> DF-MP2 Energies <==================== 
	-----------------------------------------------------------
	 Reference Energy          =     -76.0608049632584482 [Eh]
	 Singles Energy            =      -0.0000000000000000 [Eh]
	 Same-Spin Energy          =      -0.0683242831129488 [Eh]
	 Opposite-Spin Energy      =      -0.2158541792608708 [Eh]
	 Correlation Energy        =      -0.2841784623738196 [Eh]
	 Total Energy              =     -76.3449834256322646 [Eh]
	-----------------------------------------------------------
	 ================> DF-SCS-MP2 Energies <================== 
	-----------------------------------------------------------
	 SCS Same-Spin Scale       =       0.3333333333333333 [-]
	 SCS Opposite-Spin Scale   =       1.2000000000000000 [-]
	 SCS Same-Spin Energy      =      -0.0227747610376496 [Eh]
	 SCS Opposite-Spin Energy  =      -0.2590250151130449 [Eh]
	 SCS Correlation Energy    =      -0.2817997761506945 [Eh]
	 SCS Total Energy          =     -76.3426047394091398 [Eh]
	-----------------------------------------------------------


*** tstop() called on ddmfs1 at Mon Jan 22 18:45:25 2024
Module time:
	user time   =      24.52 seconds =       0.41 minutes
	system time =       1.24 seconds =       0.02 minutes
	total time  =          4 seconds =       0.07 minutes
Total time:
	user time   =     109.92 seconds =       1.83 minutes
	system time =       5.20 seconds =       0.09 minutes
	total time  =          9 seconds =       0.15 minutes

    Psi4 stopped on: Monday, 22 January 2024 06:45PM
    Psi4 wall time for execution: 0:00:08.97

*** Psi4 exiting successfully. Buy a developer a beer!
