
    -----------------------------------------------------------------------
          Psi4: An Open-Source Ab Initio Electronic Structure Package
                               Psi4 1.9 release

                         Git: Rev {} zzzzzzz 


    D. G. A. Smith, L. A. Burns, A. C. Simmonett, R. M. Parrish,
    M. C. Schieber, R. Galvelis, P. Kraus, H. Kruse, R. Di Remigio,
    A. Alenaizan, A. M. James, S. Lehtola, J. P. Misiewicz, M. Scheurer,
    R. A. Shaw, J. B. Schriber, Y. Xie, Z. L. Glick, D. A. Sirianni,
    J. S. O'Brien, J. M. Waldrop, A. Kumar, E. G. Hohenstein,
    B. P. Pritchard, B. R. Brooks, H. F. Schaefer III, A. Yu. Sokolov,
    K. Patkowski, A. E. DePrince III, U. Bozkaya, R. A. King,
    F. A. Evangelista, J. M. Turney, T. D. Crawford, C. D. Sherrill,
    J. Chem. Phys. 152(18) 184108 (2020). https://doi.org/10.1063/5.0006002

                            Additional Code Authors
    E. T. Seidl, C. L. Janssen, E. F. Valeev, M. L. Leininger,
    J. F. Gonthier, R. M. Richard, H. R. McAlexander, M. Saitow, X. Wang,
    P. Verma, M. H. Lechner, A. Jiang, S. Behnle, A. G. Heide,
    M. F. Herbst, and D. L. Poole

             Previous Authors, Complete List of Code Contributors,
                       and Citations for Specific Modules
    https://github.com/psi4/psi4/blob/master/codemeta.json
    https://github.com/psi4/psi4/graphs/contributors
    http://psicode.org/psi4manual/master/introduction.html#citing-psifour

    -----------------------------------------------------------------------


    Psi4 started on: Saturday, 06 January 2024 09:45PM

    Process ID: 556567
    Host:       moses-razer
    PSIDATADIR: /home/kchung25/anaconda3/envs/psi4_19/share/psi4
    Memory:     500.0 MiB
    Threads:    6
    
  ==> Input File <==

--------------------------------------------------------------------------
MEMORY 60 GB

molecule dimer {
-1 1
F      0.000000     0.000000     0.000000
--
0 1
O     -0.533187     2.775168     0.632670
H      0.295886     3.282857     0.735170
H     -0.295187     1.845584     0.468372
O      1.234959     1.939079    -1.505495
H      0.841673     1.153378    -1.117670
H      1.897476     2.286047    -0.880775
O     -0.240420    -2.398413     1.233884
H     -0.215194    -1.544907     0.708591
H     -0.201083    -3.097122     0.599028
O     -2.770068     0.194255    -0.484586
H     -1.879200     0.202821    -0.161510
H     -3.260491    -0.522595    -0.053105
O     -0.063457    -1.551951    -2.197817
H      0.007654    -0.846794    -1.528243
H     -0.969421    -2.020789    -2.142271

units ang
no_reorient
no_com
symmetry c1
}

set {
basis        aug-cc-pVTZ
scf_type     df
}

energy("mp2", bsse_type="cp")
--------------------------------------------------------------------------

  Memory set to  55.879 GiB by Python driver.

Scratch directory: /scratch/

  //>>>>>>>>>>>>>>>>>>>>>>>>>>>>>>>>>>>>>//
  // ManyBody Setup: N-Body Levels [1, 2]//
  //<<<<<<<<<<<<<<<<<<<<<<<<<<<<<<<<<<<<<//

        Number of 1-body computations:     2
        Number of 2-body computations:     1

    -----------------------------------------------------------------------
          Psi4: An Open-Source Ab Initio Electronic Structure Package
                               Psi4 1.9 release

                         Git: Rev {} zzzzzzz 


    D. G. A. Smith, L. A. Burns, A. C. Simmonett, R. M. Parrish,
    M. C. Schieber, R. Galvelis, P. Kraus, H. Kruse, R. Di Remigio,
    A. Alenaizan, A. M. James, S. Lehtola, J. P. Misiewicz, M. Scheurer,
    R. A. Shaw, J. B. Schriber, Y. Xie, Z. L. Glick, D. A. Sirianni,
    J. S. O'Brien, J. M. Waldrop, A. Kumar, E. G. Hohenstein,
    B. P. Pritchard, B. R. Brooks, H. F. Schaefer III, A. Yu. Sokolov,
    K. Patkowski, A. E. DePrince III, U. Bozkaya, R. A. King,
    F. A. Evangelista, J. M. Turney, T. D. Crawford, C. D. Sherrill,
    J. Chem. Phys. 152(18) 184108 (2020). https://doi.org/10.1063/5.0006002

                            Additional Code Authors
    E. T. Seidl, C. L. Janssen, E. F. Valeev, M. L. Leininger,
    J. F. Gonthier, R. M. Richard, H. R. McAlexander, M. Saitow, X. Wang,
    P. Verma, M. H. Lechner, A. Jiang, S. Behnle, A. G. Heide,
    M. F. Herbst, and D. L. Poole

             Previous Authors, Complete List of Code Contributors,
                       and Citations for Specific Modules
    https://github.com/psi4/psi4/blob/master/codemeta.json
    https://github.com/psi4/psi4/graphs/contributors
    http://psicode.org/psi4manual/master/introduction.html#citing-psifour

    -----------------------------------------------------------------------


    Psi4 started on: Saturday, 06 January 2024 09:45PM

    Process ID: 556567
    Host:       moses-razer
    PSIDATADIR: /home/kchung25/anaconda3/envs/psi4_19/share/psi4
    Memory:     55.9 GiB
    Threads:    6
    
  ==> Input QCSchema <==

--------------------------------------------------------------------------
{'driver': 'energy',
 'extras': {'psiapi': True, 'wfn_qcvars_only': True},
 'id': None,
 'keywords': {'SCF_TYPE': 'DF', 'function_kwargs': {}},
 'model': {'basis': 'aug-cc-pvtz', 'method': 'mp2'},
 'molecule': {'atom_labels': ['', '', '', '', '', '', '', '', '', '', '', '', '', '', '', ''],
              'atomic_numbers': [9, 8, 1, 1, 8, 1, 1, 8, 1, 1, 8, 1, 1, 8, 1, 1],
              'extras': {},
              'fix_com': True,
              'fix_orientation': True,
              'fix_symmetry': 'c1',
              'fragment_charges': [0.0, 0.0],
              'fragment_multiplicities': [1, 1],
              'fragments': [[0], [1, 2, 3, 4, 5, 6, 7, 8, 9, 10, 11, 12, 13, 14, 15]],
              'geometry': [0.0, 0.0, 0.0, -1.007577403654483, 5.24430747213455, 1.195573027793404, 0.5591435043572149,
                           6.203700639042109, 1.3892699556528312, -0.5578225857955199, 3.48764830152696,
                           0.8850948048329339, 2.333734286169274, 3.6643282456266397, -2.844973233246133,
                           1.5905314571924667, 2.179568539128299, -2.1120901986404506, 3.585709969629218,
                           4.320002739924491, -1.6644235281501185, -0.454327955082571, -4.532343705737686,
                           2.331702830584407, -0.40665772384177185, -2.919451119302677, 1.339042924964288,
                           -0.37999179848543646, -5.8527123571301995, 1.131998861480752, -5.2346698688947155,
                           0.3670887485008104, -0.9157348242311072, -3.5511733349603505, 0.3832761424914822,
                           -0.3052096665226938, -6.161435024520119, -0.9875614245336337, -0.10035390589243796,
                           -0.1199163507431774, -2.932762350130402, -4.153272203875348, 0.014463963764254217,
                           -1.6002087446809363, -2.8879607231480477, -1.8319401902674533, -3.8187377673377996,
                           -4.048305476510667],
              'mass_numbers': [19, 16, 1, 1, 16, 1, 1, 16, 1, 1, 16, 1, 1, 16, 1, 1],
              'masses': [18.99840316273, 15.99491461957, 1.00782503223, 1.00782503223, 15.99491461957, 1.00782503223,
                         1.00782503223, 15.99491461957, 1.00782503223, 1.00782503223, 15.99491461957, 1.00782503223,
                         1.00782503223, 15.99491461957, 1.00782503223, 1.00782503223],
              'molecular_charge': 0.0,
              'molecular_multiplicity': 1,
              'name': 'dimer',
              'provenance': {'creator': 'QCElemental',
                             'routine': 'qcelemental.molparse.from_string',
                             'version': '0.27.1'},
              'real': [False, True, True, True, True, True, True, True, True, True, True, True, True, True, True, True],
              'schema_name': 'qcschema_molecule',
              'schema_version': 2,
              'symbols': ['F', 'O', 'H', 'H', 'O', 'H', 'H', 'O', 'H', 'H', 'O', 'H', 'H', 'O', 'H', 'H'],
              'validated': True},
 'protocols': {'stdout': True},
 'provenance': {'creator': 'QCElemental', 'routine': 'qcelemental.models.results', 'version': '0.27.1'},
 'schema_name': 'qcschema_input',
 'schema_version': 1}
--------------------------------------------------------------------------

Scratch directory: /scratch/
   => Libint2 <=

    Primary   basis highest AM E, G, H:  5, 4, 3
    Auxiliary basis highest AM E, G, H:  6, 5, 4
    Onebody   basis highest AM E, G, H:  6, 5, 4
    Solid Harmonics ordering:            gaussian

*** tstart() called on moses-razer
*** at Sat Jan  6 21:45:19 2024

   => Loading Basis Set <=

    Name: AUG-CC-PVTZ
    Role: ORBITAL
    Keyword: BASIS
    atoms 1                            entry F          line   377 file /home/kchung25/anaconda3/envs/p415env/share/psi4/basis/aug-cc-pvtz.gbs 
    atoms 2, 5, 8, 11, 14              entry O          line   331 file /home/kchung25/anaconda3/envs/p415env/share/psi4/basis/aug-cc-pvtz.gbs 
    atoms 3-4, 6-7, 9-10, 12-13, 15-16 entry H          line    40 file /home/kchung25/anaconda3/envs/p415env/share/psi4/basis/aug-cc-pvtz.gbs 


         ---------------------------------------------------------
                                   SCF
               by Justin Turney, Rob Parrish, Andy Simmonett
                          and Daniel G. A. Smith
                              RHF Reference
                        6 Threads,  57220 MiB Core
         ---------------------------------------------------------

  ==> Geometry <==

    Molecular point group: c1
    Full point group: C1

    Geometry (in Bohr), charge = 0, multiplicity = 1:

       Center              X                  Y                   Z               Mass       
    ------------   -----------------  -----------------  -----------------  -----------------
      Gh(F)           0.000000000000     0.000000000000     0.000000000000    18.998403162730
         O           -1.007577403654     5.244307472135     1.195573027793    15.994914619570
         H            0.559143504357     6.203700639042     1.389269955653     1.007825032230
         H           -0.557822585796     3.487648301527     0.885094804833     1.007825032230
         O            2.333734286169     3.664328245627    -2.844973233246    15.994914619570
         H            1.590531457192     2.179568539128    -2.112090198640     1.007825032230
         H            3.585709969629     4.320002739924    -1.664423528150     1.007825032230
         O           -0.454327955083    -4.532343705738     2.331702830584    15.994914619570
         H           -0.406657723842    -2.919451119303     1.339042924964     1.007825032230
         H           -0.379991798485    -5.852712357130     1.131998861481     1.007825032230
         O           -5.234669868895     0.367088748501    -0.915734824231    15.994914619570
         H           -3.551173334960     0.383276142491    -0.305209666523     1.007825032230
         H           -6.161435024520    -0.987561424534    -0.100353905892     1.007825032230
         O           -0.119916350743    -2.932762350130    -4.153272203875    15.994914619570
         H            0.014463963764    -1.600208744681    -2.887960723148     1.007825032230
         H           -1.831940190267    -3.818737767338    -4.048305476511     1.007825032230

  Running in c1 symmetry.

  Rotational constants: A =      0.05163  B =      0.03339  C =      0.03144 [cm^-1]
  Rotational constants: A =   1547.95130  B =   1001.03519  C =    942.44525 [MHz]
  Nuclear repulsion =  180.093587593984466

  Charge       = 0
  Multiplicity = 1
  Electrons    = 50
  Nalpha       = 25
  Nbeta        = 25

  ==> Algorithm <==

  SCF Algorithm Type is DF.
  DIIS enabled.
  MOM disabled.
  Fractional occupation disabled.
  Guess Type is SAD.
  Energy threshold   = 1.00e-08
  Density threshold  = 1.00e-08
  Integral threshold = 1.00e-12

  ==> Primary Basis <==

  Basis Set: AUG-CC-PVTZ
    Blend: AUG-CC-PVTZ
    Number of shells: 174
    Number of basis functions: 506
    Number of Cartesian functions: 580
    Spherical Harmonics?: true
    Max angular momentum: 3

   => Loading Basis Set <=

    Name: (AUG-CC-PVTZ AUX)
    Role: JKFIT
    Keyword: DF_BASIS_SCF
    atoms 1                            entry F          line   348 file /home/kchung25/anaconda3/envs/p415env/share/psi4/basis/aug-cc-pvtz-jkfit.gbs 
    atoms 2, 5, 8, 11, 14              entry O          line   286 file /home/kchung25/anaconda3/envs/p415env/share/psi4/basis/aug-cc-pvtz-jkfit.gbs 
    atoms 3-4, 6-7, 9-10, 12-13, 15-16 entry H          line    70 file /home/kchung25/anaconda3/envs/p415env/share/psi4/basis/aug-cc-pvtz-jkfit.gbs 

  ==> Integral Setup <==

  DFHelper Memory: AOs need 1.947 GiB; user supplied 41.910 GiB. 
  Using in-core AOs.

  ==> MemDFJK: Density-Fitted J/K Matrices <==

    J tasked:                   Yes
    K tasked:                   Yes
    wK tasked:                   No
    OpenMP threads:               6
    Memory [MiB]:             42915
    Algorithm:                 Core
    Schwarz Cutoff:           1E-12
    Mask sparsity (%):       9.3221
    Fitting Condition:        1E-10

   => Auxiliary Basis Set <=

  Basis Set: (AUG-CC-PVTZ AUX)
    Blend: AUG-CC-PVTZ-JKFIT
    Number of shells: 320
    Number of basis functions: 1084
    Number of Cartesian functions: 1336
    Spherical Harmonics?: true
    Max angular momentum: 4

  Minimum eigenvalue in the overlap matrix is 4.7842479823E-05.
  Reciprocal condition number of the overlap matrix is 3.3338815620E-06.
    Using symmetric orthogonalization.

  ==> Pre-Iterations <==

  SCF Guess: Superposition of Atomic Densities via on-the-fly atomic UHF (no occupation information).

   -------------------------
    Irrep   Nso     Nmo    
   -------------------------
     A        506     506 
   -------------------------
    Total     506     506
   -------------------------

  ==> Iterations <==

                           Total Energy        Delta E     RMS |[F,P]|

   @DF-RHF iter SAD:  -377.48901980242863   -3.77489e+02   0.00000e+00 
   @DF-RHF iter   1:  -379.83770863969113   -2.34869e+00   2.05368e-03 ADIIS/DIIS
   @DF-RHF iter   2:  -380.10034162400137   -2.62633e-01   1.41309e-03 ADIIS/DIIS
   @DF-RHF iter   3:  -380.26073835804550   -1.60397e-01   1.03122e-04 ADIIS/DIIS
   @DF-RHF iter   4:  -380.26312499681069   -2.38664e-03   2.60153e-05 DIIS
   @DF-RHF iter   5:  -380.26327777184895   -1.52775e-04   8.05185e-06 DIIS
   @DF-RHF iter   6:  -380.26329270354290   -1.49317e-05   3.62384e-06 DIIS
   @DF-RHF iter   7:  -380.26329491125904   -2.20772e-06   7.72292e-07 DIIS
   @DF-RHF iter   8:  -380.26329513616525   -2.24906e-07   1.55984e-07 DIIS
   @DF-RHF iter   9:  -380.26329514485525   -8.68999e-09   4.37973e-08 DIIS
   @DF-RHF iter  10:  -380.26329514532142   -4.66173e-10   1.91934e-08 DIIS
   @DF-RHF iter  11:  -380.26329514540146   -8.00355e-11   6.06978e-09 DIIS
  Energy and wave function converged.


  ==> Post-Iterations <==

    Orbital Energies [Eh]
    ---------------------

    Doubly Occupied:                                                      

       1A    -20.596986     2A    -20.593255     3A    -20.590936  
       4A    -20.585651     5A    -20.579268     6A     -1.372697  
       7A     -1.370202     8A     -1.368715     9A     -1.355752  
      10A     -1.352403    11A     -0.752683    12A     -0.745470  
      13A     -0.737409    14A     -0.731130    15A     -0.722921  
      16A     -0.606305    17A     -0.604221    18A     -0.593557  
      19A     -0.587521    20A     -0.583065    21A     -0.539705  
      22A     -0.532621    23A     -0.530667    24A     -0.526726  
      25A     -0.507590  

    Virtual:                                                              

      26A      0.007568    27A      0.023626    28A      0.042217  
      29A      0.043698    30A      0.050138    31A      0.053359  
      32A      0.069554    33A      0.080683    34A      0.091726  
      35A      0.093702    36A      0.096401    37A      0.131627  
      38A      0.133649    39A      0.139173    40A      0.152033  
      41A      0.153608    42A      0.157539    43A      0.162743  
      44A      0.177120    45A      0.183536    46A      0.187219  
      47A      0.190375    48A      0.193595    49A      0.197692  
      50A      0.203214    51A      0.213919    52A      0.220427  
      53A      0.225975    54A      0.226857    55A      0.236252  
      56A      0.243651    57A      0.254763    58A      0.261529  
      59A      0.268763    60A      0.278026    61A      0.286146  
      62A      0.291903    63A      0.294085    64A      0.302756  
      65A      0.314300    66A      0.320370    67A      0.323259  
      68A      0.330140    69A      0.348310    70A      0.353100  
      71A      0.358423    72A      0.373169    73A      0.379030  
      74A      0.384184    75A      0.395162    76A      0.408327  
      77A      0.410109    78A      0.421462    79A      0.429467  
      80A      0.433527    81A      0.438567    82A      0.444630  
      83A      0.453420    84A      0.455493    85A      0.456199  
      86A      0.464107    87A      0.475999    88A      0.477929  
      89A      0.515072    90A      0.520253    91A      0.541167  
      92A      0.547512    93A      0.556413    94A      0.570256  
      95A      0.573732    96A      0.583939    97A      0.601618  
      98A      0.603368    99A      0.627687   100A      0.653909  
     101A      0.660552   102A      0.665870   103A      0.675980  
     104A      0.681946   105A      0.687803   106A      0.694190  
     107A      0.702742   108A      0.713046   109A      0.718218  
     110A      0.732216   111A      0.745263   112A      0.750631  
     113A      0.753492   114A      0.765756   115A      0.769855  
     116A      0.773658   117A      0.782006   118A      0.782597  
     119A      0.796405   120A      0.802170   121A      0.808068  
     122A      0.829615   123A      0.832612   124A      0.843269  
     125A      0.861030   126A      0.862646   127A      0.871900  
     128A      0.884653   129A      0.891353   130A      0.894377  
     131A      0.902818   132A      0.909854   133A      0.917168  
     134A      0.931175   135A      0.938192   136A      0.942630  
     137A      0.952573   138A      0.959023   139A      0.972537  
     140A      0.980533   141A      0.981086   142A      0.987678  
     143A      0.993380   144A      0.997333   145A      1.008786  
     146A      1.016135   147A      1.019477   148A      1.030018  
     149A      1.038179   150A      1.042420   151A      1.048929  
     152A      1.060507   153A      1.068158   154A      1.068679  
     155A      1.077722   156A      1.086501   157A      1.100664  
     158A      1.106133   159A      1.112065   160A      1.122207  
     161A      1.135126   162A      1.138941   163A      1.149109  
     164A      1.154929   165A      1.170070   166A      1.183776  
     167A      1.187259   168A      1.206721   169A      1.214325  
     170A      1.218899   171A      1.223655   172A      1.239982  
     173A      1.248739   174A      1.259306   175A      1.261852  
     176A      1.278159   177A      1.292136   178A      1.304531  
     179A      1.314874   180A      1.330276   181A      1.347388  
     182A      1.352510   183A      1.368588   184A      1.386990  
     185A      1.390666   186A      1.397903   187A      1.406738  
     188A      1.422784   189A      1.433242   190A      1.446742  
     191A      1.463784   192A      1.477407   193A      1.482556  
     194A      1.514529   195A      1.527151   196A      1.528938  
     197A      1.539318   198A      1.548859   199A      1.554243  
     200A      1.572576   201A      1.586430   202A      1.591098  
     203A      1.599814   204A      1.614572   205A      1.627575  
     206A      1.629226   207A      1.638735   208A      1.658868  
     209A      1.677937   210A      1.688081   211A      1.707364  
     212A      1.712355   213A      1.728082   214A      1.736256  
     215A      1.757283   216A      1.764400   217A      1.779501  
     218A      1.791024   219A      1.794063   220A      1.811480  
     221A      1.834716   222A      1.868725   223A      1.885838  
     224A      1.913657   225A      1.944086   226A      1.955315  
     227A      1.975354   228A      1.994944   229A      2.005518  
     230A      2.013834   231A      2.035403   232A      2.059697  
     233A      2.069282   234A      2.104450   235A      2.132838  
     236A      2.170500   237A      2.185455   238A      2.231391  
     239A      2.291248   240A      2.313165   241A      2.327379  
     242A      2.346275   243A      2.365932   244A      2.381702  
     245A      2.394084   246A      2.401663   247A      2.415570  
     248A      2.421569   249A      2.434357   250A      2.446436  
     251A      2.450500   252A      2.457025   253A      2.471060  
     254A      2.483088   255A      2.490213   256A      2.499498  
     257A      2.507768   258A      2.524489   259A      2.539412  
     260A      2.550748   261A      2.556769   262A      2.565927  
     263A      2.579570   264A      2.588075   265A      2.602544  
     266A      2.612093   267A      2.634337   268A      2.640299  
     269A      2.652399   270A      2.679724   271A      2.683948  
     272A      2.699547   273A      2.715452   274A      2.738601  
     275A      2.744993   276A      2.762576   277A      2.769537  
     278A      2.772923   279A      2.783643   280A      2.792143  
     281A      2.802722   282A      2.813442   283A      2.816451  
     284A      2.839980   285A      2.845689   286A      2.857940  
     287A      2.871048   288A      2.885178   289A      2.890758  
     290A      2.918571   291A      2.930447   292A      2.967554  
     293A      2.985210   294A      3.005590   295A      3.014604  
     296A      3.024042   297A      3.040926   298A      3.057244  
     299A      3.090762   300A      3.115147   301A      3.143863  
     302A      3.149890   303A      3.202668   304A      3.337802  
     305A      3.446391   306A      3.508588   307A      3.525777  
     308A      3.543703   309A      3.618713   310A      3.638770  
     311A      3.712579   312A      3.735219   313A      3.749659  
     314A      3.787880   315A      3.809681   316A      3.843727  
     317A      3.859017   318A      3.872277   319A      3.957414  
     320A      4.007670   321A      4.017694   322A      4.042030  
     323A      4.051287   324A      4.072418   325A      4.080665  
     326A      4.089540   327A      4.119246   328A      4.127430  
     329A      4.143495   330A      4.172965   331A      4.184217  
     332A      4.200202   333A      4.216943   334A      4.236363  
     335A      4.258653   336A      4.267269   337A      4.272407  
     338A      4.278851   339A      4.286310   340A      4.306551  
     341A      4.315195   342A      4.315666   343A      4.333295  
     344A      4.337914   345A      4.354797   346A      4.361239  
     347A      4.365342   348A      4.374296   349A      4.378185  
     350A      4.382826   351A      4.397394   352A      4.412817  
     353A      4.424298   354A      4.433503   355A      4.442008  
     356A      4.464091   357A      4.473951   358A      4.485193  
     359A      4.496807   360A      4.509645   361A      4.519424  
     362A      4.532515   363A      4.568225   364A      4.576422  
     365A      4.590255   366A      4.600414   367A      4.604681  
     368A      4.648619   369A      4.656122   370A      4.693501  
     371A      4.701505   372A      4.703212   373A      4.735593  
     374A      4.754679   375A      4.772071   376A      4.800028  
     377A      4.808967   378A      4.837827   379A      4.848626  
     380A      4.947651   381A      4.974679   382A      5.012051  
     383A      5.026265   384A      5.062627   385A      5.088550  
     386A      5.116709   387A      5.147224   388A      5.167539  
     389A      5.178038   390A      5.191609   391A      5.226442  
     392A      5.247624   393A      5.264103   394A      5.297417  
     395A      5.327831   396A      5.346216   397A      5.368621  
     398A      5.379711   399A      5.391951   400A      5.431089  
     401A      5.440008   402A      5.502406   403A      5.505158  
     404A      5.534162   405A      5.556907   406A      5.580150  
     407A      5.619771   408A      5.655892   409A      5.699871  
     410A      5.806561   411A      5.817157   412A      5.841074  
     413A      5.879860   414A      5.936838   415A      6.141133  
     416A      6.203534   417A      6.243899   418A      6.276837  
     419A      6.283629   420A      6.569387   421A      6.578808  
     422A      6.590362   423A      6.599636   424A      6.616675  
     425A      6.771029   426A      6.790220   427A      6.821024  
     428A      6.832327   429A      6.851869   430A      6.875072  
     431A      6.920059   432A      6.928831   433A      6.950580  
     434A      6.984375   435A      7.127230   436A      7.143902  
     437A      7.183673   438A      7.197613   439A      7.219037  
     440A      7.274002   441A      7.280172   442A      7.288974  
     443A      7.296684   444A      7.309085   445A      7.317152  
     446A      7.324845   447A      7.333494   448A      7.337614  
     449A      7.362259   450A      7.367784   451A      7.376708  
     452A      7.380668   453A      7.395850   454A      7.411521  
     455A      7.424415   456A      7.434106   457A      7.454170  
     458A      7.473593   459A      7.491753   460A      7.513755  
     461A      7.534792   462A      7.565758   463A      7.582820  
     464A      7.587242   465A      7.729548   466A      7.734897  
     467A      7.767580   468A      7.805051   469A      7.821252  
     470A      7.895976   471A      7.918460   472A      7.934140  
     473A      7.967781   474A      7.987855   475A      8.060925  
     476A      8.076891   477A      8.083864   478A      8.093654  
     479A      8.121943   480A      8.606929   481A      8.751557  
     482A      8.797429   483A      8.817335   484A      8.835328  
     485A     10.322688   486A     10.392202   487A     10.454928  
     488A     10.472972   489A     10.567579   490A     10.792374  
     491A     10.944419   492A     12.004200   493A     13.110253  
     494A     13.149439   495A     13.256319   496A     13.360048  
     497A     13.445292   498A     15.008354   499A     15.149689  
     500A     15.336870   501A     16.212862   502A     16.688889  
     503A     16.897324   504A     17.034627   505A     17.124503  
     506A     75.144444  

    Final Occupation by Irrep:
              A 
    DOCC [    25 ]
    NA   [    25 ]
    NB   [    25 ]

  @DF-RHF Final Energy:  -380.26329514540146

   => Energetics <=

    Nuclear Repulsion Energy =            180.0935875939844664
    One-Electron Energy =                -882.5788521072576032
    Two-Electron Energy =                 322.2219693678716794
    Total Energy =                       -380.2632951454014574

Computation Completed


Properties will be evaluated at   0.000000,   0.000000,   0.000000 [a0]

Properties computed using the SCF density matrix


 Multipole Moments:

 ------------------------------------------------------------------------------------
     Multipole            Electronic (a.u.)      Nuclear  (a.u.)        Total (a.u.)
 ------------------------------------------------------------------------------------

 L = 1.  Multiply by 2.5417464519 to convert [e a0] to [Debye]
 Dipole X            :         43.5615098          -43.0012301            0.5602797
 Dipole Y            :        -16.6026969           15.8804722           -0.7222247
 Dipole Z            :         42.1557970          -41.4665722            0.6892248
 Magnitude           :                                                    1.1447938

 ------------------------------------------------------------------------------------

*** tstop() called on moses-razer at Sat Jan  6 21:45:27 2024
Module time:
	user time   =      46.24 seconds =       0.77 minutes
	system time =       1.68 seconds =       0.03 minutes
	total time  =          8 seconds =       0.13 minutes
Total time:
	user time   =      46.24 seconds =       0.77 minutes
	system time =       1.68 seconds =       0.03 minutes
	total time  =          8 seconds =       0.13 minutes

*** tstart() called on moses-razer
*** at Sat Jan  6 21:45:27 2024


  //>>>>>>>>>>>>>>>>>>>>>>>>>>>>>>>>>>>//
  //               DFMP2               //
  //<<<<<<<<<<<<<<<<<<<<<<<<<<<<<<<<<<<//

   => Loading Basis Set <=

    Name: (AUG-CC-PVTZ AUX)
    Role: RIFIT
    Keyword: DF_BASIS_MP2
    atoms 1                            entry F          line   322 file /home/kchung25/anaconda3/envs/p415env/share/psi4/basis/aug-cc-pvtz-ri.gbs 
    atoms 2, 5, 8, 11, 14              entry O          line   264 file /home/kchung25/anaconda3/envs/p415env/share/psi4/basis/aug-cc-pvtz-ri.gbs 
    atoms 3-4, 6-7, 9-10, 12-13, 15-16 entry H          line    30 file /home/kchung25/anaconda3/envs/p415env/share/psi4/basis/aug-cc-pvtz-ri.gbs 

	 --------------------------------------------------------
	                          DF-MP2                         
	      2nd-Order Density-Fitted Moller-Plesset Theory     
	              RMP2 Wavefunction,   6 Threads             
	                                                         
	        Rob Parrish, Justin Turney, Andy Simmonett,      
	           Ed Hohenstein, and C. David Sherrill          
	 --------------------------------------------------------

   => Auxiliary Basis Set <=

  Basis Set: (AUG-CC-PVTZ AUX)
    Blend: AUG-CC-PVTZ-RI
    Number of shells: 308
    Number of basis functions: 1096
    Number of Cartesian functions: 1366
    Spherical Harmonics?: true
    Max angular momentum: 4

	 --------------------------------------------------------
	                 NBF =   506, NAUX =  1096
	 --------------------------------------------------------
	   CLASS    FOCC     OCC    AOCC    AVIR     VIR    FVIR
	   PAIRS       0      25      25     481     481       0
	 --------------------------------------------------------

	-----------------------------------------------------------
	 ==================> DF-MP2 Energies <==================== 
	-----------------------------------------------------------
	 Reference Energy          =    -380.2632951454014574 [Eh]
	 Singles Energy            =      -0.0000000000000000 [Eh]
	 Same-Spin Energy          =      -0.3463020964166645 [Eh]
	 Opposite-Spin Energy      =      -1.0885409999078026 [Eh]
	 Correlation Energy        =      -1.4348430963244672 [Eh]
	 Total Energy              =    -381.6981382417259283 [Eh]
	-----------------------------------------------------------
	 ================> DF-SCS-MP2 Energies <================== 
	-----------------------------------------------------------
	 SCS Same-Spin Scale       =       0.3333333333333333 [-]
	 SCS Opposite-Spin Scale   =       1.2000000000000000 [-]
	 SCS Same-Spin Energy      =      -0.1154340321388882 [Eh]
	 SCS Opposite-Spin Energy  =      -1.3062491998893631 [Eh]
	 SCS Correlation Energy    =      -1.4216832320282513 [Eh]
	 SCS Total Energy          =    -381.6849783774297293 [Eh]
	-----------------------------------------------------------


*** tstop() called on moses-razer at Sat Jan  6 21:45:31 2024
Module time:
	user time   =      17.88 seconds =       0.30 minutes
	system time =       0.96 seconds =       0.02 minutes
	total time  =          4 seconds =       0.07 minutes
Total time:
	user time   =      64.12 seconds =       1.07 minutes
	system time =       2.64 seconds =       0.04 minutes
	total time  =         12 seconds =       0.20 minutes

    Psi4 stopped on: Saturday, 06 January 2024 09:45PM
    Psi4 wall time for execution: 0:00:12.33


    -----------------------------------------------------------------------
          Psi4: An Open-Source Ab Initio Electronic Structure Package
                               Psi4 1.9 release

                         Git: Rev {} zzzzzzz 


    D. G. A. Smith, L. A. Burns, A. C. Simmonett, R. M. Parrish,
    M. C. Schieber, R. Galvelis, P. Kraus, H. Kruse, R. Di Remigio,
    A. Alenaizan, A. M. James, S. Lehtola, J. P. Misiewicz, M. Scheurer,
    R. A. Shaw, J. B. Schriber, Y. Xie, Z. L. Glick, D. A. Sirianni,
    J. S. O'Brien, J. M. Waldrop, A. Kumar, E. G. Hohenstein,
    B. P. Pritchard, B. R. Brooks, H. F. Schaefer III, A. Yu. Sokolov,
    K. Patkowski, A. E. DePrince III, U. Bozkaya, R. A. King,
    F. A. Evangelista, J. M. Turney, T. D. Crawford, C. D. Sherrill,
    J. Chem. Phys. 152(18) 184108 (2020). https://doi.org/10.1063/5.0006002

                            Additional Code Authors
    E. T. Seidl, C. L. Janssen, E. F. Valeev, M. L. Leininger,
    J. F. Gonthier, R. M. Richard, H. R. McAlexander, M. Saitow, X. Wang,
    P. Verma, M. H. Lechner, A. Jiang, S. Behnle, A. G. Heide,
    M. F. Herbst, and D. L. Poole

             Previous Authors, Complete List of Code Contributors,
                       and Citations for Specific Modules
    https://github.com/psi4/psi4/blob/master/codemeta.json
    https://github.com/psi4/psi4/graphs/contributors
    http://psicode.org/psi4manual/master/introduction.html#citing-psifour

    -----------------------------------------------------------------------


    Psi4 started on: Saturday, 06 January 2024 09:45PM

    Process ID: 556567
    Host:       moses-razer
    PSIDATADIR: /home/kchung25/anaconda3/envs/psi4_19/share/psi4
    Memory:     55.9 GiB
    Threads:    6
    
  ==> Input QCSchema <==

--------------------------------------------------------------------------
{'driver': 'energy',
 'extras': {'psiapi': True, 'wfn_qcvars_only': True},
 'id': None,
 'keywords': {'SCF_TYPE': 'DF', 'function_kwargs': {}},
 'model': {'basis': 'aug-cc-pvtz', 'method': 'mp2'},
 'molecule': {'atom_labels': ['', '', '', '', '', '', '', '', '', '', '', '', '', '', '', ''],
              'atomic_numbers': [9, 8, 1, 1, 8, 1, 1, 8, 1, 1, 8, 1, 1, 8, 1, 1],
              'extras': {},
              'fix_com': True,
              'fix_orientation': True,
              'fix_symmetry': 'c1',
              'fragment_charges': [-1.0, 0.0],
              'fragment_multiplicities': [1, 1],
              'fragments': [[0], [1, 2, 3, 4, 5, 6, 7, 8, 9, 10, 11, 12, 13, 14, 15]],
              'geometry': [0.0, 0.0, 0.0, -1.007577403654483, 5.24430747213455, 1.195573027793404, 0.5591435043572149,
                           6.203700639042109, 1.3892699556528312, -0.5578225857955199, 3.48764830152696,
                           0.8850948048329339, 2.333734286169274, 3.6643282456266397, -2.844973233246133,
                           1.5905314571924667, 2.179568539128299, -2.1120901986404506, 3.585709969629218,
                           4.320002739924491, -1.6644235281501185, -0.454327955082571, -4.532343705737686,
                           2.331702830584407, -0.40665772384177185, -2.919451119302677, 1.339042924964288,
                           -0.37999179848543646, -5.8527123571301995, 1.131998861480752, -5.2346698688947155,
                           0.3670887485008104, -0.9157348242311072, -3.5511733349603505, 0.3832761424914822,
                           -0.3052096665226938, -6.161435024520119, -0.9875614245336337, -0.10035390589243796,
                           -0.1199163507431774, -2.932762350130402, -4.153272203875348, 0.014463963764254217,
                           -1.6002087446809363, -2.8879607231480477, -1.8319401902674533, -3.8187377673377996,
                           -4.048305476510667],
              'mass_numbers': [19, 16, 1, 1, 16, 1, 1, 16, 1, 1, 16, 1, 1, 16, 1, 1],
              'masses': [18.99840316273, 15.99491461957, 1.00782503223, 1.00782503223, 15.99491461957, 1.00782503223,
                         1.00782503223, 15.99491461957, 1.00782503223, 1.00782503223, 15.99491461957, 1.00782503223,
                         1.00782503223, 15.99491461957, 1.00782503223, 1.00782503223],
              'molecular_charge': -1.0,
              'molecular_multiplicity': 1,
              'name': 'dimer',
              'provenance': {'creator': 'QCElemental',
                             'routine': 'qcelemental.molparse.from_string',
                             'version': '0.27.1'},
              'real': [True, False, False, False, False, False, False, False, False, False, False, False, False, False,
                       False, False],
              'schema_name': 'qcschema_molecule',
              'schema_version': 2,
              'symbols': ['F', 'O', 'H', 'H', 'O', 'H', 'H', 'O', 'H', 'H', 'O', 'H', 'H', 'O', 'H', 'H'],
              'validated': True},
 'protocols': {'stdout': True},
 'provenance': {'creator': 'QCElemental', 'routine': 'qcelemental.models.results', 'version': '0.27.1'},
 'schema_name': 'qcschema_input',
 'schema_version': 1}
--------------------------------------------------------------------------

Scratch directory: /scratch/
   => Libint2 <=

    Primary   basis highest AM E, G, H:  5, 4, 3
    Auxiliary basis highest AM E, G, H:  6, 5, 4
    Onebody   basis highest AM E, G, H:  6, 5, 4
    Solid Harmonics ordering:            gaussian

*** tstart() called on moses-razer
*** at Sat Jan  6 21:45:31 2024

   => Loading Basis Set <=

    Name: AUG-CC-PVTZ
    Role: ORBITAL
    Keyword: BASIS
    atoms 1                            entry F          line   377 file /home/kchung25/anaconda3/envs/p415env/share/psi4/basis/aug-cc-pvtz.gbs 
    atoms 2, 5, 8, 11, 14              entry O          line   331 file /home/kchung25/anaconda3/envs/p415env/share/psi4/basis/aug-cc-pvtz.gbs 
    atoms 3-4, 6-7, 9-10, 12-13, 15-16 entry H          line    40 file /home/kchung25/anaconda3/envs/p415env/share/psi4/basis/aug-cc-pvtz.gbs 


         ---------------------------------------------------------
                                   SCF
               by Justin Turney, Rob Parrish, Andy Simmonett
                          and Daniel G. A. Smith
                              RHF Reference
                        6 Threads,  57220 MiB Core
         ---------------------------------------------------------

  ==> Geometry <==

    Molecular point group: c1
    Full point group: C1

    Geometry (in Bohr), charge = -1, multiplicity = 1:

       Center              X                  Y                   Z               Mass       
    ------------   -----------------  -----------------  -----------------  -----------------
         F            0.000000000000     0.000000000000     0.000000000000    18.998403162730
      Gh(O)          -1.007577403654     5.244307472135     1.195573027793    15.994914619570
      Gh(H)           0.559143504357     6.203700639042     1.389269955653     1.007825032230
      Gh(H)          -0.557822585796     3.487648301527     0.885094804833     1.007825032230
      Gh(O)           2.333734286169     3.664328245627    -2.844973233246    15.994914619570
      Gh(H)           1.590531457192     2.179568539128    -2.112090198640     1.007825032230
      Gh(H)           3.585709969629     4.320002739924    -1.664423528150     1.007825032230
      Gh(O)          -0.454327955083    -4.532343705738     2.331702830584    15.994914619570
      Gh(H)          -0.406657723842    -2.919451119303     1.339042924964     1.007825032230
      Gh(H)          -0.379991798485    -5.852712357130     1.131998861481     1.007825032230
      Gh(O)          -5.234669868895     0.367088748501    -0.915734824231    15.994914619570
      Gh(H)          -3.551173334960     0.383276142491    -0.305209666523     1.007825032230
      Gh(H)          -6.161435024520    -0.987561424534    -0.100353905892     1.007825032230
      Gh(O)          -0.119916350743    -2.932762350130    -4.153272203875    15.994914619570
      Gh(H)           0.014463963764    -1.600208744681    -2.887960723148     1.007825032230
      Gh(H)          -1.831940190267    -3.818737767338    -4.048305476511     1.007825032230

  Running in c1 symmetry.

  Rotational constants: A =      0.05163  B =      0.03339  C =      0.03144 [cm^-1]
  Rotational constants: A =   1547.95130  B =   1001.03519  C =    942.44525 [MHz]
  Nuclear repulsion =    0.000000000000000

  Charge       = -1
  Multiplicity = 1
  Electrons    = 10
  Nalpha       = 5
  Nbeta        = 5

  ==> Algorithm <==

  SCF Algorithm Type is DF.
  DIIS enabled.
  MOM disabled.
  Fractional occupation disabled.
  Guess Type is SAD.
  Energy threshold   = 1.00e-08
  Density threshold  = 1.00e-08
  Integral threshold = 1.00e-12

  ==> Primary Basis <==

  Basis Set: AUG-CC-PVTZ
    Blend: AUG-CC-PVTZ
    Number of shells: 174
    Number of basis functions: 506
    Number of Cartesian functions: 580
    Spherical Harmonics?: true
    Max angular momentum: 3

   => Loading Basis Set <=

    Name: (AUG-CC-PVTZ AUX)
    Role: JKFIT
    Keyword: DF_BASIS_SCF
    atoms 1                            entry F          line   348 file /home/kchung25/anaconda3/envs/p415env/share/psi4/basis/aug-cc-pvtz-jkfit.gbs 
    atoms 2, 5, 8, 11, 14              entry O          line   286 file /home/kchung25/anaconda3/envs/p415env/share/psi4/basis/aug-cc-pvtz-jkfit.gbs 
    atoms 3-4, 6-7, 9-10, 12-13, 15-16 entry H          line    70 file /home/kchung25/anaconda3/envs/p415env/share/psi4/basis/aug-cc-pvtz-jkfit.gbs 

  ==> Integral Setup <==

  DFHelper Memory: AOs need 1.947 GiB; user supplied 41.910 GiB. 
  Using in-core AOs.

  ==> MemDFJK: Density-Fitted J/K Matrices <==

    J tasked:                   Yes
    K tasked:                   Yes
    wK tasked:                   No
    OpenMP threads:               6
    Memory [MiB]:             42915
    Algorithm:                 Core
    Schwarz Cutoff:           1E-12
    Mask sparsity (%):       9.3221
    Fitting Condition:        1E-10

   => Auxiliary Basis Set <=

  Basis Set: (AUG-CC-PVTZ AUX)
    Blend: AUG-CC-PVTZ-JKFIT
    Number of shells: 320
    Number of basis functions: 1084
    Number of Cartesian functions: 1336
    Spherical Harmonics?: true
    Max angular momentum: 4

  Minimum eigenvalue in the overlap matrix is 4.7842479823E-05.
  Reciprocal condition number of the overlap matrix is 3.3338815620E-06.
    Using symmetric orthogonalization.

  ==> Pre-Iterations <==

  SCF Guess: Superposition of Atomic Densities via on-the-fly atomic UHF (no occupation information).

   -------------------------
    Irrep   Nso     Nmo    
   -------------------------
     A        506     506 
   -------------------------
    Total     506     506
   -------------------------

  ==> Iterations <==

                           Total Energy        Delta E     RMS |[F,P]|

   @DF-RHF iter SAD:   -98.82535128380971   -9.88254e+01   0.00000e+00 
   @DF-RHF iter   1:   -99.33800951265725   -5.12658e-01   1.07895e-03 ADIIS/DIIS
   @DF-RHF iter   2:   -99.37299177314549   -3.49823e-02   1.05485e-03 ADIIS/DIIS
   @DF-RHF iter   3:   -99.45103253551227   -7.80408e-02   3.74022e-05 DIIS
   @DF-RHF iter   4:   -99.45110995731505   -7.74218e-05   1.30962e-05 DIIS
   @DF-RHF iter   5:   -99.45112107033269   -1.11130e-05   8.27293e-07 DIIS
   @DF-RHF iter   6:   -99.45112117229327   -1.01961e-07   8.10651e-08 DIIS
   @DF-RHF iter   7:   -99.45112117345985   -1.16658e-09   9.96899e-09 DIIS
  Energy and wave function converged.


  ==> Post-Iterations <==

    Orbital Energies [Eh]
    ---------------------

    Doubly Occupied:                                                      

       1A    -25.833564     2A     -1.075887     3A     -0.180939  
       4A     -0.180904     5A     -0.180878  

    Virtual:                                                              

       6A      0.127009     7A      0.129140     8A      0.139012  
       9A      0.144449    10A      0.146062    11A      0.168566  
      12A      0.180025    13A      0.185938    14A      0.189550  
      15A      0.204252    16A      0.245153    17A      0.256538  
      18A      0.258615    19A      0.266460    20A      0.267442  
      21A      0.273868    22A      0.279775    23A      0.287555  
      24A      0.291089    25A      0.295928    26A      0.299438  
      27A      0.309040    28A      0.310761    29A      0.326407  
      30A      0.331955    31A      0.340712    32A      0.348095  
      33A      0.359907    34A      0.361262    35A      0.372070  
      36A      0.393638    37A      0.408716    38A      0.413872  
      39A      0.435150    40A      0.440647    41A      0.458733  
      42A      0.459378    43A      0.466435    44A      0.477029  
      45A      0.483195    46A      0.487292    47A      0.490575  
      48A      0.503915    49A      0.511806    50A      0.518711  
      51A      0.525865    52A      0.529391    53A      0.534177  
      54A      0.535616    55A      0.543282    56A      0.554535  
      57A      0.556201    58A      0.566276    59A      0.585342  
      60A      0.592671    61A      0.594608    62A      0.599210  
      63A      0.608320    64A      0.622644    65A      0.627316  
      66A      0.643371    67A      0.645998    68A      0.653836  
      69A      0.681759    70A      0.689421    71A      0.713092  
      72A      0.722016    73A      0.756536    74A      0.771680  
      75A      0.782548    76A      0.815415    77A      0.830261  
      78A      0.855594    79A      0.861354    80A      0.868152  
      81A      0.881882    82A      0.890738    83A      0.894254  
      84A      0.900904    85A      0.918511    86A      0.924802  
      87A      0.927287    88A      0.941264    89A      0.949862  
      90A      0.958540    91A      0.964502    92A      0.973226  
      93A      0.975700    94A      0.977882    95A      0.989401  
      96A      0.996422    97A      1.003163    98A      1.004490  
      99A      1.021412   100A      1.022446   101A      1.032515  
     102A      1.036360   103A      1.043857   104A      1.055203  
     105A      1.060032   106A      1.062073   107A      1.067174  
     108A      1.075835   109A      1.081298   110A      1.086364  
     111A      1.101007   112A      1.105416   113A      1.109880  
     114A      1.114905   115A      1.127051   116A      1.131655  
     117A      1.142631   118A      1.146886   119A      1.154317  
     120A      1.161413   121A      1.169697   122A      1.175921  
     123A      1.189773   124A      1.194486   125A      1.202471  
     126A      1.206784   127A      1.217945   128A      1.222535  
     129A      1.238603   130A      1.245587   131A      1.249445  
     132A      1.254284   133A      1.264270   134A      1.270569  
     135A      1.288540   136A      1.313237   137A      1.317026  
     138A      1.322285   139A      1.335779   140A      1.346584  
     141A      1.348538   142A      1.355756   143A      1.371619  
     144A      1.377976   145A      1.384640   146A      1.404110  
     147A      1.418328   148A      1.444227   149A      1.452673  
     150A      1.458264   151A      1.480529   152A      1.492267  
     153A      1.503817   154A      1.517454   155A      1.525643  
     156A      1.541132   157A      1.553491   158A      1.576346  
     159A      1.583443   160A      1.601926   161A      1.609840  
     162A      1.622001   163A      1.625064   164A      1.634995  
     165A      1.663332   166A      1.669590   167A      1.688450  
     168A      1.696318   169A      1.709770   170A      1.716321  
     171A      1.719448   172A      1.768094   173A      1.774955  
     174A      1.789354   175A      1.793057   176A      1.816315  
     177A      1.823445   178A      1.860489   179A      1.874840  
     180A      1.885943   181A      1.897094   182A      1.901825  
     183A      1.914994   184A      1.919396   185A      1.936387  
     186A      1.943995   187A      1.952867   188A      1.966682  
     189A      1.976846   190A      1.984668   191A      1.990573  
     192A      2.007489   193A      2.014059   194A      2.022416  
     195A      2.043014   196A      2.056144   197A      2.073828  
     198A      2.091604   199A      2.100803   200A      2.108426  
     201A      2.116247   202A      2.126868   203A      2.137563  
     204A      2.163257   205A      2.182499   206A      2.189571  
     207A      2.202977   208A      2.210661   209A      2.221256  
     210A      2.243084   211A      2.256959   212A      2.280361  
     213A      2.308600   214A      2.366452   215A      2.401507  
     216A      2.450823   217A      2.478309   218A      2.504263  
     219A      2.556639   220A      2.591606   221A      2.613097  
     222A      2.656370   223A      2.660925   224A      2.675279  
     225A      2.683414   226A      2.697441   227A      2.709953  
     228A      2.715102   229A      2.726068   230A      2.735255  
     231A      2.751357   232A      2.753615   233A      2.767705  
     234A      2.784292   235A      2.799109   236A      2.810112  
     237A      2.830746   238A      2.833598   239A      2.851629  
     240A      2.868479   241A      2.879876   242A      2.887636  
     243A      2.899478   244A      2.917999   245A      2.926578  
     246A      2.936562   247A      2.954435   248A      2.960713  
     249A      2.973836   250A      2.989139   251A      3.008514  
     252A      3.028194   253A      3.041952   254A      3.054350  
     255A      3.066534   256A      3.078143   257A      3.109295  
     258A      3.136065   259A      3.155201   260A      3.171438  
     261A      3.197976   262A      3.216545   263A      3.237766  
     264A      3.250470   265A      3.266421   266A      3.271550  
     267A      3.289915   268A      3.353269   269A      3.375506  
     270A      3.382418   271A      3.392175   272A      3.415773  
     273A      3.423877   274A      3.425993   275A      3.430022  
     276A      3.437016   277A      3.453781   278A      3.484904  
     279A      3.493302   280A      3.526445   281A      3.534009  
     282A      3.593068   283A      3.613763   284A      3.624828  
     285A      3.642257   286A      3.655226   287A      3.665281  
     288A      3.686744   289A      3.702533   290A      3.745074  
     291A      3.751427   292A      3.774572   293A      3.793454  
     294A      3.802502   295A      3.836766   296A      3.840202  
     297A      3.861178   298A      3.902382   299A      3.906014  
     300A      3.915443   301A      3.922671   302A      3.953422  
     303A      3.957287   304A      3.991026   305A      4.028143  
     306A      4.041852   307A      4.064011   308A      4.072435  
     309A      4.133030   310A      4.174270   311A      4.256164  
     312A      4.310237   313A      4.346429   314A      4.501185  
     315A      4.525286   316A      4.613645   317A      4.624949  
     318A      4.639950   319A      4.660566   320A      4.665064  
     321A      4.673526   322A      4.681961   323A      4.688589  
     324A      4.699706   325A      4.777542   326A      4.833367  
     327A      4.843725   328A      4.854363   329A      4.874180  
     330A      4.884181   331A      4.896627   332A      4.904903  
     333A      4.917551   334A      4.927401   335A      4.939879  
     336A      4.949205   337A      4.952739   338A      4.974542  
     339A      4.978152   340A      4.985906   341A      5.049861  
     342A      5.058689   343A      5.100678   344A      5.113005  
     345A      5.137586   346A      5.158013   347A      5.191924  
     348A      5.227721   349A      5.247273   350A      5.272224  
     351A      5.309979   352A      5.346910   353A      5.353146  
     354A      5.375630   355A      5.402871   356A      5.418108  
     357A      5.425574   358A      5.462425   359A      5.473637  
     360A      5.503879   361A      5.529352   362A      5.569582  
     363A      5.582760   364A      5.619998   365A      5.637966  
     366A      5.667812   367A      5.701668   368A      5.721934  
     369A      5.752492   370A      5.771976   371A      5.785563  
     372A      5.812680   373A      5.818068   374A      5.835426  
     375A      5.853531   376A      5.884452   377A      5.895889  
     378A      5.938017   379A      5.990873   380A      6.021608  
     381A      6.033243   382A      6.064058   383A      6.098653  
     384A      6.138817   385A      6.166698   386A      6.328840  
     387A      6.358375   388A      6.381051   389A      6.478871  
     390A      6.529697   391A      6.545298   392A      6.642102  
     393A      6.683758   394A      6.723099   395A      6.758388  
     396A      6.880357   397A      6.903650   398A      6.933828  
     399A      6.938282   400A      6.970969   401A      7.007302  
     402A      7.044787   403A      7.101778   404A      7.295695  
     405A      7.303847   406A      7.316878   407A      7.381976  
     408A      7.390018   409A      7.919379   410A      7.936008  
     411A      7.948999   412A      7.960966   413A      7.991032  
     414A      8.007892   415A      8.024040   416A      8.049991  
     417A      8.060322   418A      8.084066   419A      8.262887  
     420A      8.301879   421A      8.325648   422A      8.335193  
     423A      8.349618   424A      8.435779   425A      8.439669  
     426A      8.459899   427A      8.470625   428A      8.487715  
     429A      8.503389   430A      8.512952   431A      8.534304  
     432A      8.552369   433A      8.574665   434A      8.844900  
     435A      8.954400   436A      8.988127   437A      9.002909  
     438A      9.030773   439A      9.145739   440A      9.200716  
     441A      9.234637   442A      9.286085   443A      9.321391  
     444A      9.570685   445A      9.631780   446A      9.697804  
     447A      9.728800   448A      9.781237   449A      9.921223  
     450A      9.937878   451A      9.949526   452A     10.003033  
     453A     10.015519   454A     10.034582   455A     10.054824  
     456A     10.078265   457A     10.090498   458A     10.096325  
     459A     10.112155   460A     10.120184   461A     10.127562  
     462A     10.194544   463A     10.226692   464A     10.289007  
     465A     10.306876   466A     10.338115   467A     10.354290  
     468A     10.363252   469A     10.399056   470A     10.471424  
     471A     10.550524   472A     10.579777   473A     10.589634  
     474A     10.621007   475A     10.638220   476A     11.156080  
     477A     11.338594   478A     11.411147   479A     11.420055  
     480A     11.479037   481A     11.953061   482A     11.990377  
     483A     12.048319   484A     12.112759   485A     12.159251  
     486A     12.289895   487A     12.452019   488A     12.506167  
     489A     12.571126   490A     12.625185   491A     13.633243  
     492A     13.793678   493A     13.870676   494A     13.911132  
     495A     13.950617   496A     14.188255   497A     14.212034  
     498A     14.237995   499A     14.274257   500A     14.286781  
     501A     15.921236   502A     65.806121   503A     66.706887  
     504A     67.022973   505A     67.300306   506A     67.528143  

    Final Occupation by Irrep:
              A 
    DOCC [     5 ]
    NA   [     5 ]
    NB   [     5 ]

  @DF-RHF Final Energy:   -99.45112117345985

   => Energetics <=

    Nuclear Repulsion Energy =              0.0000000000000000
    One-Electron Energy =                -143.9978931940474354
    Two-Electron Energy =                  44.5467720205875750
    Total Energy =                        -99.4511211734598533

Computation Completed


Properties will be evaluated at   0.000000,   0.000000,   0.000000 [a0]

Properties computed using the SCF density matrix


 Multipole Moments:

 ------------------------------------------------------------------------------------
     Multipole            Electronic (a.u.)      Nuclear  (a.u.)        Total (a.u.)
 ------------------------------------------------------------------------------------

 L = 1.  Multiply by 2.5417464519 to convert [e a0] to [Debye]
 Dipole X            :         -0.0001427            0.0000000           -0.0001427
 Dipole Y            :         -0.0000991            0.0000000           -0.0000991
 Dipole Z            :         -0.0002514            0.0000000           -0.0002514
 Magnitude           :                                                    0.0003056

 ------------------------------------------------------------------------------------

*** tstop() called on moses-razer at Sat Jan  6 21:45:37 2024
Module time:
	user time   =      31.80 seconds =       0.53 minutes
	system time =       1.17 seconds =       0.02 minutes
	total time  =          6 seconds =       0.10 minutes
Total time:
	user time   =      96.28 seconds =       1.60 minutes
	system time =       3.81 seconds =       0.06 minutes
	total time  =         18 seconds =       0.30 minutes

*** tstart() called on moses-razer
*** at Sat Jan  6 21:45:37 2024


  //>>>>>>>>>>>>>>>>>>>>>>>>>>>>>>>>>>>//
  //               DFMP2               //
  //<<<<<<<<<<<<<<<<<<<<<<<<<<<<<<<<<<<//

   => Loading Basis Set <=

    Name: (AUG-CC-PVTZ AUX)
    Role: RIFIT
    Keyword: DF_BASIS_MP2
    atoms 1                            entry F          line   322 file /home/kchung25/anaconda3/envs/p415env/share/psi4/basis/aug-cc-pvtz-ri.gbs 
    atoms 2, 5, 8, 11, 14              entry O          line   264 file /home/kchung25/anaconda3/envs/p415env/share/psi4/basis/aug-cc-pvtz-ri.gbs 
    atoms 3-4, 6-7, 9-10, 12-13, 15-16 entry H          line    30 file /home/kchung25/anaconda3/envs/p415env/share/psi4/basis/aug-cc-pvtz-ri.gbs 

	 --------------------------------------------------------
	                          DF-MP2                         
	      2nd-Order Density-Fitted Moller-Plesset Theory     
	              RMP2 Wavefunction,   6 Threads             
	                                                         
	        Rob Parrish, Justin Turney, Andy Simmonett,      
	           Ed Hohenstein, and C. David Sherrill          
	 --------------------------------------------------------

   => Auxiliary Basis Set <=

  Basis Set: (AUG-CC-PVTZ AUX)
    Blend: AUG-CC-PVTZ-RI
    Number of shells: 308
    Number of basis functions: 1096
    Number of Cartesian functions: 1366
    Spherical Harmonics?: true
    Max angular momentum: 4

	 --------------------------------------------------------
	                 NBF =   506, NAUX =  1096
	 --------------------------------------------------------
	   CLASS    FOCC     OCC    AOCC    AVIR     VIR    FVIR
	   PAIRS       0       5       5     501     501       0
	 --------------------------------------------------------

	-----------------------------------------------------------
	 ==================> DF-MP2 Energies <==================== 
	-----------------------------------------------------------
	 Reference Energy          =     -99.4511211734598533 [Eh]
	 Singles Energy            =      -0.0000000000000000 [Eh]
	 Same-Spin Energy          =      -0.0820780184393152 [Eh]
	 Opposite-Spin Energy      =      -0.2302912966299167 [Eh]
	 Correlation Energy        =      -0.3123693150692319 [Eh]
	 Total Energy              =     -99.7634904885290865 [Eh]
	-----------------------------------------------------------
	 ================> DF-SCS-MP2 Energies <================== 
	-----------------------------------------------------------
	 SCS Same-Spin Scale       =       0.3333333333333333 [-]
	 SCS Opposite-Spin Scale   =       1.2000000000000000 [-]
	 SCS Same-Spin Energy      =      -0.0273593394797717 [Eh]
	 SCS Opposite-Spin Energy  =      -0.2763495559559001 [Eh]
	 SCS Correlation Energy    =      -0.3037088954356718 [Eh]
	 SCS Total Energy          =     -99.7548300688955294 [Eh]
	-----------------------------------------------------------


*** tstop() called on moses-razer at Sat Jan  6 21:45:40 2024
Module time:
	user time   =      10.33 seconds =       0.17 minutes
	system time =       0.60 seconds =       0.01 minutes
	total time  =          3 seconds =       0.05 minutes
Total time:
	user time   =     106.61 seconds =       1.78 minutes
	system time =       4.41 seconds =       0.07 minutes
	total time  =         21 seconds =       0.35 minutes

    Psi4 stopped on: Saturday, 06 January 2024 09:45PM
    Psi4 wall time for execution: 0:00:08.51


    -----------------------------------------------------------------------
          Psi4: An Open-Source Ab Initio Electronic Structure Package
                               Psi4 1.9 release

                         Git: Rev {} zzzzzzz 


    D. G. A. Smith, L. A. Burns, A. C. Simmonett, R. M. Parrish,
    M. C. Schieber, R. Galvelis, P. Kraus, H. Kruse, R. Di Remigio,
    A. Alenaizan, A. M. James, S. Lehtola, J. P. Misiewicz, M. Scheurer,
    R. A. Shaw, J. B. Schriber, Y. Xie, Z. L. Glick, D. A. Sirianni,
    J. S. O'Brien, J. M. Waldrop, A. Kumar, E. G. Hohenstein,
    B. P. Pritchard, B. R. Brooks, H. F. Schaefer III, A. Yu. Sokolov,
    K. Patkowski, A. E. DePrince III, U. Bozkaya, R. A. King,
    F. A. Evangelista, J. M. Turney, T. D. Crawford, C. D. Sherrill,
    J. Chem. Phys. 152(18) 184108 (2020). https://doi.org/10.1063/5.0006002

                            Additional Code Authors
    E. T. Seidl, C. L. Janssen, E. F. Valeev, M. L. Leininger,
    J. F. Gonthier, R. M. Richard, H. R. McAlexander, M. Saitow, X. Wang,
    P. Verma, M. H. Lechner, A. Jiang, S. Behnle, A. G. Heide,
    M. F. Herbst, and D. L. Poole

             Previous Authors, Complete List of Code Contributors,
                       and Citations for Specific Modules
    https://github.com/psi4/psi4/blob/master/codemeta.json
    https://github.com/psi4/psi4/graphs/contributors
    http://psicode.org/psi4manual/master/introduction.html#citing-psifour

    -----------------------------------------------------------------------


    Psi4 started on: Saturday, 06 January 2024 09:45PM

    Process ID: 556567
    Host:       moses-razer
    PSIDATADIR: /home/kchung25/anaconda3/envs/psi4_19/share/psi4
    Memory:     55.9 GiB
    Threads:    6
    
  ==> Input QCSchema <==

--------------------------------------------------------------------------
{'driver': 'energy',
 'extras': {'psiapi': True, 'wfn_qcvars_only': True},
 'id': None,
 'keywords': {'SCF_TYPE': 'DF', 'function_kwargs': {}},
 'model': {'basis': 'aug-cc-pvtz', 'method': 'mp2'},
 'molecule': {'atom_labels': ['', '', '', '', '', '', '', '', '', '', '', '', '', '', '', ''],
              'atomic_numbers': [9, 8, 1, 1, 8, 1, 1, 8, 1, 1, 8, 1, 1, 8, 1, 1],
              'extras': {},
              'fix_com': True,
              'fix_orientation': True,
              'fix_symmetry': 'c1',
              'fragment_charges': [-1.0, 0.0],
              'fragment_multiplicities': [1, 1],
              'fragments': [[0], [1, 2, 3, 4, 5, 6, 7, 8, 9, 10, 11, 12, 13, 14, 15]],
              'geometry': [0.0, 0.0, 0.0, -1.007577403654483, 5.24430747213455, 1.195573027793404, 0.5591435043572149,
                           6.203700639042109, 1.3892699556528312, -0.5578225857955199, 3.48764830152696,
                           0.8850948048329339, 2.333734286169274, 3.6643282456266397, -2.844973233246133,
                           1.5905314571924667, 2.179568539128299, -2.1120901986404506, 3.585709969629218,
                           4.320002739924491, -1.6644235281501185, -0.454327955082571, -4.532343705737686,
                           2.331702830584407, -0.40665772384177185, -2.919451119302677, 1.339042924964288,
                           -0.37999179848543646, -5.8527123571301995, 1.131998861480752, -5.2346698688947155,
                           0.3670887485008104, -0.9157348242311072, -3.5511733349603505, 0.3832761424914822,
                           -0.3052096665226938, -6.161435024520119, -0.9875614245336337, -0.10035390589243796,
                           -0.1199163507431774, -2.932762350130402, -4.153272203875348, 0.014463963764254217,
                           -1.6002087446809363, -2.8879607231480477, -1.8319401902674533, -3.8187377673377996,
                           -4.048305476510667],
              'mass_numbers': [19, 16, 1, 1, 16, 1, 1, 16, 1, 1, 16, 1, 1, 16, 1, 1],
              'masses': [18.99840316273, 15.99491461957, 1.00782503223, 1.00782503223, 15.99491461957, 1.00782503223,
                         1.00782503223, 15.99491461957, 1.00782503223, 1.00782503223, 15.99491461957, 1.00782503223,
                         1.00782503223, 15.99491461957, 1.00782503223, 1.00782503223],
              'molecular_charge': -1.0,
              'molecular_multiplicity': 1,
              'name': 'dimer',
              'provenance': {'creator': 'QCElemental',
                             'routine': 'qcelemental.molparse.from_string',
                             'version': '0.27.1'},
              'real': [True, True, True, True, True, True, True, True, True, True, True, True, True, True, True, True],
              'schema_name': 'qcschema_molecule',
              'schema_version': 2,
              'symbols': ['F', 'O', 'H', 'H', 'O', 'H', 'H', 'O', 'H', 'H', 'O', 'H', 'H', 'O', 'H', 'H'],
              'validated': True},
 'protocols': {'stdout': True},
 'provenance': {'creator': 'QCElemental', 'routine': 'qcelemental.models.results', 'version': '0.27.1'},
 'schema_name': 'qcschema_input',
 'schema_version': 1}
--------------------------------------------------------------------------

Scratch directory: /scratch/
   => Libint2 <=

    Primary   basis highest AM E, G, H:  5, 4, 3
    Auxiliary basis highest AM E, G, H:  6, 5, 4
    Onebody   basis highest AM E, G, H:  6, 5, 4
    Solid Harmonics ordering:            gaussian

*** tstart() called on moses-razer
*** at Sat Jan  6 21:45:40 2024

   => Loading Basis Set <=

    Name: AUG-CC-PVTZ
    Role: ORBITAL
    Keyword: BASIS
    atoms 1                            entry F          line   377 file /home/kchung25/anaconda3/envs/p415env/share/psi4/basis/aug-cc-pvtz.gbs 
    atoms 2, 5, 8, 11, 14              entry O          line   331 file /home/kchung25/anaconda3/envs/p415env/share/psi4/basis/aug-cc-pvtz.gbs 
    atoms 3-4, 6-7, 9-10, 12-13, 15-16 entry H          line    40 file /home/kchung25/anaconda3/envs/p415env/share/psi4/basis/aug-cc-pvtz.gbs 


         ---------------------------------------------------------
                                   SCF
               by Justin Turney, Rob Parrish, Andy Simmonett
                          and Daniel G. A. Smith
                              RHF Reference
                        6 Threads,  57220 MiB Core
         ---------------------------------------------------------

  ==> Geometry <==

    Molecular point group: c1
    Full point group: C1

    Geometry (in Bohr), charge = -1, multiplicity = 1:

       Center              X                  Y                   Z               Mass       
    ------------   -----------------  -----------------  -----------------  -----------------
         F            0.000000000000     0.000000000000     0.000000000000    18.998403162730
         O           -1.007577403654     5.244307472135     1.195573027793    15.994914619570
         H            0.559143504357     6.203700639042     1.389269955653     1.007825032230
         H           -0.557822585796     3.487648301527     0.885094804833     1.007825032230
         O            2.333734286169     3.664328245627    -2.844973233246    15.994914619570
         H            1.590531457192     2.179568539128    -2.112090198640     1.007825032230
         H            3.585709969629     4.320002739924    -1.664423528150     1.007825032230
         O           -0.454327955083    -4.532343705738     2.331702830584    15.994914619570
         H           -0.406657723842    -2.919451119303     1.339042924964     1.007825032230
         H           -0.379991798485    -5.852712357130     1.131998861481     1.007825032230
         O           -5.234669868895     0.367088748501    -0.915734824231    15.994914619570
         H           -3.551173334960     0.383276142491    -0.305209666523     1.007825032230
         H           -6.161435024520    -0.987561424534    -0.100353905892     1.007825032230
         O           -0.119916350743    -2.932762350130    -4.153272203875    15.994914619570
         H            0.014463963764    -1.600208744681    -2.887960723148     1.007825032230
         H           -1.831940190267    -3.818737767338    -4.048305476511     1.007825032230

  Running in c1 symmetry.

  Rotational constants: A =      0.05163  B =      0.03339  C =      0.03144 [cm^-1]
  Rotational constants: A =   1547.95130  B =   1001.03519  C =    942.44525 [MHz]
  Nuclear repulsion =  269.405864863465808

  Charge       = -1
  Multiplicity = 1
  Electrons    = 60
  Nalpha       = 30
  Nbeta        = 30

  ==> Algorithm <==

  SCF Algorithm Type is DF.
  DIIS enabled.
  MOM disabled.
  Fractional occupation disabled.
  Guess Type is SAD.
  Energy threshold   = 1.00e-08
  Density threshold  = 1.00e-08
  Integral threshold = 1.00e-12

  ==> Primary Basis <==

  Basis Set: AUG-CC-PVTZ
    Blend: AUG-CC-PVTZ
    Number of shells: 174
    Number of basis functions: 506
    Number of Cartesian functions: 580
    Spherical Harmonics?: true
    Max angular momentum: 3

   => Loading Basis Set <=

    Name: (AUG-CC-PVTZ AUX)
    Role: JKFIT
    Keyword: DF_BASIS_SCF
    atoms 1                            entry F          line   348 file /home/kchung25/anaconda3/envs/p415env/share/psi4/basis/aug-cc-pvtz-jkfit.gbs 
    atoms 2, 5, 8, 11, 14              entry O          line   286 file /home/kchung25/anaconda3/envs/p415env/share/psi4/basis/aug-cc-pvtz-jkfit.gbs 
    atoms 3-4, 6-7, 9-10, 12-13, 15-16 entry H          line    70 file /home/kchung25/anaconda3/envs/p415env/share/psi4/basis/aug-cc-pvtz-jkfit.gbs 

  ==> Integral Setup <==

  DFHelper Memory: AOs need 1.947 GiB; user supplied 41.910 GiB. 
  Using in-core AOs.

  ==> MemDFJK: Density-Fitted J/K Matrices <==

    J tasked:                   Yes
    K tasked:                   Yes
    wK tasked:                   No
    OpenMP threads:               6
    Memory [MiB]:             42915
    Algorithm:                 Core
    Schwarz Cutoff:           1E-12
    Mask sparsity (%):       9.3221
    Fitting Condition:        1E-10

   => Auxiliary Basis Set <=

  Basis Set: (AUG-CC-PVTZ AUX)
    Blend: AUG-CC-PVTZ-JKFIT
    Number of shells: 320
    Number of basis functions: 1084
    Number of Cartesian functions: 1336
    Spherical Harmonics?: true
    Max angular momentum: 4

  Minimum eigenvalue in the overlap matrix is 4.7842479823E-05.
  Reciprocal condition number of the overlap matrix is 3.3338815620E-06.
    Using symmetric orthogonalization.

  ==> Pre-Iterations <==

  SCF Guess: Superposition of Atomic Densities via on-the-fly atomic UHF (no occupation information).

   -------------------------
    Irrep   Nso     Nmo    
   -------------------------
     A        506     506 
   -------------------------
    Total     506     506
   -------------------------

  ==> Iterations <==

                           Total Energy        Delta E     RMS |[F,P]|

   @DF-RHF iter SAD:  -476.65090027471928   -4.76651e+02   0.00000e+00 
   @DF-RHF iter   1:  -479.40117976048441   -2.75028e+00   2.15846e-03 ADIIS/DIIS
   @DF-RHF iter   2:  -479.68484710111329   -2.83667e-01   1.45625e-03 ADIIS/DIIS
   @DF-RHF iter   3:  -479.84799674294783   -1.63150e-01   9.72508e-05 DIIS
   @DF-RHF iter   4:  -479.85008922600014   -2.09248e-03   2.86951e-05 DIIS
   @DF-RHF iter   5:  -479.85021478782613   -1.25562e-04   1.27945e-05 DIIS
   @DF-RHF iter   6:  -479.85023754197607   -2.27541e-05   3.21782e-06 DIIS
   @DF-RHF iter   7:  -479.85024045006315   -2.90809e-06   8.03663e-07 DIIS
   @DF-RHF iter   8:  -479.85024067978696   -2.29724e-07   2.57685e-07 DIIS
   @DF-RHF iter   9:  -479.85024069181242   -1.20255e-08   9.18358e-08 DIIS
   @DF-RHF iter  10:  -479.85024069377783   -1.96542e-09   1.68057e-08 DIIS
   @DF-RHF iter  11:  -479.85024069387646   -9.86233e-11   5.46240e-09 DIIS
  Energy and wave function converged.


  ==> Post-Iterations <==

    Orbital Energies [Eh]
    ---------------------

    Doubly Occupied:                                                      

       1A    -26.006350     2A    -20.403897     3A    -20.402038  
       4A    -20.401431     5A    -20.400712     6A    -20.396267  
       7A     -1.277160     8A     -1.190821     9A     -1.187813  
      10A     -1.177682    11A     -1.177036    12A     -1.164086  
      13A     -0.572261    14A     -0.569564    15A     -0.555247  
      16A     -0.548934    17A     -0.543804    18A     -0.440011  
      19A     -0.424726    20A     -0.422805    21A     -0.416072  
      22A     -0.409140    23A     -0.366727    24A     -0.361856  
      25A     -0.355916    26A     -0.352907    27A     -0.349572  
      28A     -0.341207    29A     -0.338408    30A     -0.330619  

    Virtual:                                                              

      31A      0.119942    32A      0.121215    33A      0.136277  
      34A      0.142231    35A      0.144943    36A      0.174716  
      37A      0.180403    38A      0.192709    39A      0.196100  
      40A      0.207861    41A      0.248708    42A      0.254332  
      43A      0.259128    44A      0.272687    45A      0.278787  
      46A      0.279834    47A      0.294959    48A      0.299093  
      49A      0.303664    50A      0.308629    51A      0.310999  
      52A      0.316637    53A      0.334627    54A      0.343370  
      55A      0.347117    56A      0.354673    57A      0.355749  
      58A      0.360482    59A      0.373175    60A      0.375204  
      61A      0.387380    62A      0.393435    63A      0.411981  
      64A      0.418404    65A      0.420551    66A      0.432907  
      67A      0.436747    68A      0.447143    69A      0.454833  
      70A      0.461052    71A      0.481900    72A      0.485697  
      73A      0.494183    74A      0.504162    75A      0.506385  
      76A      0.517461    77A      0.530368    78A      0.534597  
      79A      0.547221    80A      0.552280    81A      0.558302  
      82A      0.572623    83A      0.573866    84A      0.579497  
      85A      0.582532    86A      0.591998    87A      0.597822  
      88A      0.602859    89A      0.615339    90A      0.635228  
      91A      0.637805    92A      0.658232    93A      0.675009  
      94A      0.695755    95A      0.699991    96A      0.707739  
      97A      0.716994    98A      0.727590    99A      0.739831  
     100A      0.742567   101A      0.748469   102A      0.760554  
     103A      0.791234   104A      0.796572   105A      0.817811  
     106A      0.826576   107A      0.829446   108A      0.836294  
     109A      0.846240   110A      0.858536   111A      0.866639  
     112A      0.877332   113A      0.884492   114A      0.896563  
     115A      0.903605   116A      0.905782   117A      0.915210  
     118A      0.922442   119A      0.927754   120A      0.939990  
     121A      0.943715   122A      0.952803   123A      0.956208  
     124A      0.969497   125A      0.984494   126A      0.990229  
     127A      0.994603   128A      1.014234   129A      1.019419  
     130A      1.031787   131A      1.038154   132A      1.045757  
     133A      1.055335   134A      1.056239   135A      1.064989  
     136A      1.073680   137A      1.090228   138A      1.091778  
     139A      1.100096   140A      1.103287   141A      1.113237  
     142A      1.120280   143A      1.142622   144A      1.143418  
     145A      1.148806   146A      1.151131   147A      1.156848  
     148A      1.165635   149A      1.169791   150A      1.176716  
     151A      1.187086   152A      1.196966   153A      1.202565  
     154A      1.212047   155A      1.215826   156A      1.221910  
     157A      1.237397   158A      1.249059   159A      1.252973  
     160A      1.257840   161A      1.270666   162A      1.283821  
     163A      1.288635   164A      1.301253   165A      1.309441  
     166A      1.325054   167A      1.334373   168A      1.346137  
     169A      1.365715   170A      1.369905   171A      1.371533  
     172A      1.376041   173A      1.389429   174A      1.407953  
     175A      1.419892   176A      1.427963   177A      1.432692  
     178A      1.452229   179A      1.462817   180A      1.469008  
     181A      1.475900   182A      1.489727   183A      1.509702  
     184A      1.522027   185A      1.532921   186A      1.534764  
     187A      1.551796   188A      1.558213   189A      1.570944  
     190A      1.572099   191A      1.585150   192A      1.607609  
     193A      1.621432   194A      1.625640   195A      1.638689  
     196A      1.647772   197A      1.671692   198A      1.680513  
     199A      1.698090   200A      1.704759   201A      1.714343  
     202A      1.729975   203A      1.742156   204A      1.747053  
     205A      1.759161   206A      1.769985   207A      1.776854  
     208A      1.780845   209A      1.804055   210A      1.817886  
     211A      1.839019   212A      1.861192   213A      1.870680  
     214A      1.883367   215A      1.894882   216A      1.901541  
     217A      1.923679   218A      1.931776   219A      1.942984  
     220A      1.963734   221A      1.969874   222A      1.974695  
     223A      1.992644   224A      2.005666   225A      2.019101  
     226A      2.042879   227A      2.068309   228A      2.100171  
     229A      2.131594   230A      2.153914   231A      2.158123  
     232A      2.171912   233A      2.171993   234A      2.201637  
     235A      2.212467   236A      2.247808   237A      2.275577  
     238A      2.301765   239A      2.347823   240A      2.393777  
     241A      2.443907   242A      2.472560   243A      2.482361  
     244A      2.495375   245A      2.502421   246A      2.530530  
     247A      2.543487   248A      2.562209   249A      2.571766  
     250A      2.585426   251A      2.597215   252A      2.605823  
     253A      2.611061   254A      2.623086   255A      2.623516  
     256A      2.630342   257A      2.647110   258A      2.652265  
     259A      2.675098   260A      2.679845   261A      2.703465  
     262A      2.708550   263A      2.721057   264A      2.728373  
     265A      2.739142   266A      2.753517   267A      2.771940  
     268A      2.778897   269A      2.787400   270A      2.809598  
     271A      2.811609   272A      2.815395   273A      2.838056  
     274A      2.860593   275A      2.865586   276A      2.877921  
     277A      2.900073   278A      2.924358   279A      2.933610  
     280A      2.943748   281A      2.950894   282A      2.957855  
     283A      2.959808   284A      2.974633   285A      2.980960  
     286A      2.990050   287A      3.013692   288A      3.024429  
     289A      3.039015   290A      3.050608   291A      3.059226  
     292A      3.071614   293A      3.077628   294A      3.108823  
     295A      3.128461   296A      3.149115   297A      3.160372  
     298A      3.181515   299A      3.199646   300A      3.211151  
     301A      3.219607   302A      3.251799   303A      3.286812  
     304A      3.295658   305A      3.321445   306A      3.336862  
     307A      3.396062   308A      3.455951   309A      3.511834  
     310A      3.560832   311A      3.655020   312A      3.699324  
     313A      3.741306   314A      3.777866   315A      3.786603  
     316A      3.820060   317A      3.842935   318A      3.877023  
     319A      3.929107   320A      3.960893   321A      3.973430  
     322A      3.985443   323A      4.025907   324A      4.122788  
     325A      4.147184   326A      4.165052   327A      4.216542  
     328A      4.244501   329A      4.270540   330A      4.283217  
     331A      4.295598   332A      4.306685   333A      4.308763  
     334A      4.339271   335A      4.358543   336A      4.414657  
     337A      4.426181   338A      4.436737   339A      4.442511  
     340A      4.454523   341A      4.459728   342A      4.469381  
     343A      4.487915   344A      4.493301   345A      4.510370  
     346A      4.518014   347A      4.529558   348A      4.536552  
     349A      4.541961   350A      4.551575   351A      4.554839  
     352A      4.572522   353A      4.587201   354A      4.590978  
     355A      4.607831   356A      4.617062   357A      4.620516  
     358A      4.651450   359A      4.657480   360A      4.670739  
     361A      4.680291   362A      4.690709   363A      4.707234  
     364A      4.747536   365A      4.749290   366A      4.759986  
     367A      4.774041   368A      4.780681   369A      4.819267  
     370A      4.828238   371A      4.855151   372A      4.867729  
     373A      4.884940   374A      4.902310   375A      4.922742  
     376A      4.949549   377A      4.981441   378A      4.987036  
     379A      5.021382   380A      5.029703   381A      5.128400  
     382A      5.155327   383A      5.190019   384A      5.202036  
     385A      5.242995   386A      5.266425   387A      5.303194  
     388A      5.318483   389A      5.338898   390A      5.347754  
     391A      5.365553   392A      5.390472   393A      5.425902  
     394A      5.435701   395A      5.461636   396A      5.511654  
     397A      5.525175   398A      5.545130   399A      5.554403  
     400A      5.558396   401A      5.588939   402A      5.603394  
     403A      5.672028   404A      5.679673   405A      5.706533  
     406A      5.717257   407A      5.737002   408A      5.758735  
     409A      5.777192   410A      5.830105   411A      5.961188  
     412A      5.984538   413A      5.997937   414A      6.033491  
     415A      6.073673   416A      6.326184   417A      6.350135  
     418A      6.393784   419A      6.431675   420A      6.462308  
     421A      6.538553   422A      6.659165   423A      6.746333  
     424A      6.754625   425A      6.764945   426A      6.777706  
     427A      6.799044   428A      6.815822   429A      6.960331  
     430A      6.975267   431A      6.996334   432A      7.006655  
     433A      7.037184   434A      7.068265   435A      7.099713  
     436A      7.116762   437A      7.129701   438A      7.161549  
     439A      7.311844   440A      7.331900   441A      7.361172  
     442A      7.380093   443A      7.389625   444A      7.458448  
     445A      7.459955   446A      7.470339   447A      7.475331  
     448A      7.487790   449A      7.496220   450A      7.506334  
     451A      7.520522   452A      7.523889   453A      7.541170  
     454A      7.552950   455A      7.563777   456A      7.566065  
     457A      7.580782   458A      7.609738   459A      7.611869  
     460A      7.620823   461A      7.636518   462A      7.661012  
     463A      7.679380   464A      7.696741   465A      7.719175  
     466A      7.755190   467A      7.768143   468A      7.772497  
     469A      7.908340   470A      7.921507   471A      7.958930  
     472A      7.992095   473A      8.003668   474A      8.083399  
     475A      8.108367   476A      8.113228   477A      8.144982  
     478A      8.169311   479A      8.236327   480A      8.254618  
     481A      8.274059   482A      8.276876   483A      8.316428  
     484A      8.777090   485A      8.921113   486A      8.945719  
     487A      8.981362   488A      8.997565   489A      9.396475  
     490A      9.476467   491A      9.534331   492A      9.591257  
     493A      9.653424   494A      9.911712   495A      9.937273  
     496A      9.969315   497A     10.063389   498A     10.078488  
     499A     10.235255   500A     10.309050   501A     15.021195  
     502A     16.482645   503A     16.949143   504A     17.064713  
     505A     17.146651   506A     17.408119  

    Final Occupation by Irrep:
              A 
    DOCC [    30 ]
    NA   [    30 ]
    NB   [    30 ]

  @DF-RHF Final Energy:  -479.85024069387646

   => Energetics <=

    Nuclear Repulsion Energy =            269.4058648634658084
    One-Electron Energy =               -1212.7420682478252729
    Two-Electron Energy =                 463.4859626904830066
    Total Energy =                       -479.8502406938764580

Computation Completed


Properties will be evaluated at   0.000000,   0.000000,   0.000000 [a0]

Properties computed using the SCF density matrix


 Multipole Moments:

 ------------------------------------------------------------------------------------
     Multipole            Electronic (a.u.)      Nuclear  (a.u.)        Total (a.u.)
 ------------------------------------------------------------------------------------

 L = 1.  Multiply by 2.5417464519 to convert [e a0] to [Debye]
 Dipole X            :         43.8660594          -43.0012301            0.8648293
 Dipole Y            :        -16.5356971           15.8804722           -0.6552249
 Dipole Z            :         42.4992360          -41.4665722            1.0326638
 Magnitude           :                                                    1.4978798

 ------------------------------------------------------------------------------------

*** tstop() called on moses-razer at Sat Jan  6 21:45:49 2024
Module time:
	user time   =      48.61 seconds =       0.81 minutes
	system time =       1.75 seconds =       0.03 minutes
	total time  =          9 seconds =       0.15 minutes
Total time:
	user time   =     155.56 seconds =       2.59 minutes
	system time =       6.16 seconds =       0.10 minutes
	total time  =         30 seconds =       0.50 minutes

*** tstart() called on moses-razer
*** at Sat Jan  6 21:45:49 2024


  //>>>>>>>>>>>>>>>>>>>>>>>>>>>>>>>>>>>//
  //               DFMP2               //
  //<<<<<<<<<<<<<<<<<<<<<<<<<<<<<<<<<<<//

   => Loading Basis Set <=

    Name: (AUG-CC-PVTZ AUX)
    Role: RIFIT
    Keyword: DF_BASIS_MP2
    atoms 1                            entry F          line   322 file /home/kchung25/anaconda3/envs/p415env/share/psi4/basis/aug-cc-pvtz-ri.gbs 
    atoms 2, 5, 8, 11, 14              entry O          line   264 file /home/kchung25/anaconda3/envs/p415env/share/psi4/basis/aug-cc-pvtz-ri.gbs 
    atoms 3-4, 6-7, 9-10, 12-13, 15-16 entry H          line    30 file /home/kchung25/anaconda3/envs/p415env/share/psi4/basis/aug-cc-pvtz-ri.gbs 

	 --------------------------------------------------------
	                          DF-MP2                         
	      2nd-Order Density-Fitted Moller-Plesset Theory     
	              RMP2 Wavefunction,   6 Threads             
	                                                         
	        Rob Parrish, Justin Turney, Andy Simmonett,      
	           Ed Hohenstein, and C. David Sherrill          
	 --------------------------------------------------------

   => Auxiliary Basis Set <=

  Basis Set: (AUG-CC-PVTZ AUX)
    Blend: AUG-CC-PVTZ-RI
    Number of shells: 308
    Number of basis functions: 1096
    Number of Cartesian functions: 1366
    Spherical Harmonics?: true
    Max angular momentum: 4

	 --------------------------------------------------------
	                 NBF =   506, NAUX =  1096
	 --------------------------------------------------------
	   CLASS    FOCC     OCC    AOCC    AVIR     VIR    FVIR
	   PAIRS       0      30      30     476     476       0
	 --------------------------------------------------------

	-----------------------------------------------------------
	 ==================> DF-MP2 Energies <==================== 
	-----------------------------------------------------------
	 Reference Energy          =    -479.8502406938764580 [Eh]
	 Singles Energy            =      -0.0000000000000000 [Eh]
	 Same-Spin Energy          =      -0.4340030386320552 [Eh]
	 Opposite-Spin Energy      =      -1.3177236559455243 [Eh]
	 Correlation Energy        =      -1.7517266945775796 [Eh]
	 Total Energy              =    -481.6019673884540566 [Eh]
	-----------------------------------------------------------
	 ================> DF-SCS-MP2 Energies <================== 
	-----------------------------------------------------------
	 SCS Same-Spin Scale       =       0.3333333333333333 [-]
	 SCS Opposite-Spin Scale   =       1.2000000000000000 [-]
	 SCS Same-Spin Energy      =      -0.1446676795440184 [Eh]
	 SCS Opposite-Spin Energy  =      -1.5812683871346291 [Eh]
	 SCS Correlation Energy    =      -1.7259360666786474 [Eh]
	 SCS Total Energy          =    -481.5761767605550858 [Eh]
	-----------------------------------------------------------


*** tstop() called on moses-razer at Sat Jan  6 21:45:53 2024
Module time:
	user time   =      20.47 seconds =       0.34 minutes
	system time =       1.02 seconds =       0.02 minutes
	total time  =          4 seconds =       0.07 minutes
Total time:
	user time   =     176.04 seconds =       2.93 minutes
	system time =       7.18 seconds =       0.12 minutes
	total time  =         34 seconds =       0.57 minutes

    Psi4 stopped on: Saturday, 06 January 2024 09:45PM
    Psi4 wall time for execution: 0:00:13.11


  //>>>>>>>>>>>>>>>>>>>>>>>>>>>>>>>>>>>//
  //          ManyBody Results         //
  //<<<<<<<<<<<<<<<<<<<<<<<<<<<<<<<<<<<//


   ==> N-Body: Counterpoise Corrected (CP) energies <==

        n-Body     Total Energy            Interaction Energy                          N-body Contribution to Interaction Energy
                   [Eh]                    [Eh]                  [kcal/mol]            [Eh]                  [kcal/mol]
             1  N/A                         0.000000000000        0.000000000000        0.000000000000        0.000000000000
  FULL/RTN   2  N/A                        -0.140338658199      -88.063837557117       -0.140338658199      -88.063837557117


    Psi4 stopped on: Saturday, 06 January 2024 09:45PM
    Psi4 wall time for execution: 0:00:35.62

*** Psi4 exiting successfully. Buy a developer a beer!
