
    -----------------------------------------------------------------------
          Psi4: An Open-Source Ab Initio Electronic Structure Package
                               Psi4 1.8.2 release

                         Git: Rev {} zzzzzzz 


    D. G. A. Smith, L. A. Burns, A. C. Simmonett, R. M. Parrish,
    M. C. Schieber, R. Galvelis, P. Kraus, H. Kruse, R. Di Remigio,
    A. Alenaizan, A. M. James, S. Lehtola, J. P. Misiewicz, M. Scheurer,
    R. A. Shaw, J. B. Schriber, Y. Xie, Z. L. Glick, D. A. Sirianni,
    J. S. O'Brien, J. M. Waldrop, A. Kumar, E. G. Hohenstein,
    B. P. Pritchard, B. R. Brooks, H. F. Schaefer III, A. Yu. Sokolov,
    K. Patkowski, A. E. DePrince III, U. Bozkaya, R. A. King,
    F. A. Evangelista, J. M. Turney, T. D. Crawford, C. D. Sherrill,
    J. Chem. Phys. 152(18) 184108 (2020). https://doi.org/10.1063/5.0006002

                            Additional Code Authors
    E. T. Seidl, C. L. Janssen, E. F. Valeev, M. L. Leininger,
    J. F. Gonthier, R. M. Richard, H. R. McAlexander, M. Saitow, X. Wang,
    P. Verma, M. H. Lechner, A. Jiang, S. Behnle, A. G. Heide,
    M. F. Herbst, and D. L. Poole

             Previous Authors, Complete List of Code Contributors,
                       and Citations for Specific Modules
    https://github.com/psi4/psi4/blob/master/codemeta.json
    https://github.com/psi4/psi4/graphs/contributors
    http://psicode.org/psi4manual/master/introduction.html#citing-psifour

    -----------------------------------------------------------------------


    Psi4 started on: Monday, 22 January 2024 05:25PM

    Process ID: 84109
    Host:       ddmfs1
    PSIDATADIR: /ddmfs1b/softs/psi4conda/share/psi4
    Memory:     500.0 MiB
    Threads:    20
    
  ==> Input File <==

--------------------------------------------------------------------------
MEMORY 60 GB

molecule dimer {
0 1
Gh(F)      0.000000     0.000000     0.000000
Gh(O)     -0.438919    -0.065851    -2.824863
Gh(H)     -0.453151    -0.010706    -1.844303
Gh(H)      0.269337     0.572966    -3.103457
Gh(O)      1.699712     2.467898    -0.707959
Gh(H)      1.972730     2.097516    -1.527574
Gh(H)      0.803553     2.124371    -0.498661
Gh(O)     -1.598723     2.231195     0.689214
Gh(H)     -1.137580     1.418592     0.486558
Gh(H)     -1.200463     2.623434     1.455794
O          0.369426    -1.062940     2.386597
H          0.423642    -0.786785     1.439357
H          1.049594    -0.462803     2.764259
Gh(O)     -2.326821    -1.205989    -0.091246
Gh(H)     -1.446384    -0.840894    -0.034548
Gh(H)     -2.150655    -2.055095    -0.428599
Gh(O)      2.110671    -1.418731    -1.257848
Gh(H)      1.265691    -1.026664    -0.962676
Gh(H)      2.460850    -0.901074    -2.008568

units ang
no_reorient
no_com
symmetry c1
}

set {
basis        aug-cc-pVTZ
scf_type     df
}

energy("mp2")
--------------------------------------------------------------------------

  Memory set to  55.879 GiB by Python driver.

Scratch directory: /ddmfs1a/scratch/
   => Libint2 <=

    Primary   basis highest AM E, G, H:  5, 4, 3
    Auxiliary basis highest AM E, G, H:  6, 5, 4
    Onebody   basis highest AM E, G, H:  6, 5, 4
    Solid Harmonics ordering:            gaussian

*** tstart() called on ddmfs1
*** at Mon Jan 22 17:25:38 2024

   => Loading Basis Set <=

    Name: AUG-CC-PVTZ
    Role: ORBITAL
    Keyword: BASIS
    atoms 1                                   entry F          line   377 file /ddmfs1b/softs/psi4conda/share/psi4/basis/aug-cc-pvtz.gbs 
    atoms 2, 5, 8, 11, 14, 17                 entry O          line   331 file /ddmfs1b/softs/psi4conda/share/psi4/basis/aug-cc-pvtz.gbs 
    atoms 3-4, 6-7, 9-10, 12-13, 15-16, 18-19 entry H          line    40 file /ddmfs1b/softs/psi4conda/share/psi4/basis/aug-cc-pvtz.gbs 


         ---------------------------------------------------------
                                   SCF
               by Justin Turney, Rob Parrish, Andy Simmonett
                          and Daniel G. A. Smith
                              RHF Reference
                       20 Threads,  57220 MiB Core
         ---------------------------------------------------------

  ==> Geometry <==

    Molecular point group: c1
    Full point group: C1

    Geometry (in Angstrom), charge = 0, multiplicity = 1:

       Center              X                  Y                   Z               Mass       
    ------------   -----------------  -----------------  -----------------  -----------------
      Gh(F)           0.000000000000     0.000000000000     0.000000000000    18.998403162730
      Gh(O)          -0.438919000000    -0.065851000000    -2.824863000000    15.994914619570
      Gh(H)          -0.453151000000    -0.010706000000    -1.844303000000     1.007825032230
      Gh(H)           0.269337000000     0.572966000000    -3.103457000000     1.007825032230
      Gh(O)           1.699712000000     2.467898000000    -0.707959000000    15.994914619570
      Gh(H)           1.972730000000     2.097516000000    -1.527574000000     1.007825032230
      Gh(H)           0.803553000000     2.124371000000    -0.498661000000     1.007825032230
      Gh(O)          -1.598723000000     2.231195000000     0.689214000000    15.994914619570
      Gh(H)          -1.137580000000     1.418592000000     0.486558000000     1.007825032230
      Gh(H)          -1.200463000000     2.623434000000     1.455794000000     1.007825032230
         O            0.369426000000    -1.062940000000     2.386597000000    15.994914619570
         H            0.423642000000    -0.786785000000     1.439357000000     1.007825032230
         H            1.049594000000    -0.462803000000     2.764259000000     1.007825032230
      Gh(O)          -2.326821000000    -1.205989000000    -0.091246000000    15.994914619570
      Gh(H)          -1.446384000000    -0.840894000000    -0.034548000000     1.007825032230
      Gh(H)          -2.150655000000    -2.055095000000    -0.428599000000     1.007825032230
      Gh(O)           2.110671000000    -1.418731000000    -1.257848000000    15.994914619570
      Gh(H)           1.265691000000    -1.026664000000    -0.962676000000     1.007825032230
      Gh(H)           2.460850000000    -0.901074000000    -2.008568000000     1.007825032230

  Running in c1 symmetry.

  Rotational constants: A =      0.03322  B =      0.02967  C =      0.02761 [cm^-1]
  Rotational constants: A =    995.84901  B =    889.61918  C =    827.66070 [MHz]
  Nuclear repulsion =    8.945313862488833

  Charge       = 0
  Multiplicity = 1
  Electrons    = 10
  Nalpha       = 5
  Nbeta        = 5

  ==> Algorithm <==

  SCF Algorithm Type is DF.
  DIIS enabled.
  MOM disabled.
  Fractional occupation disabled.
  Guess Type is SAD.
  Energy threshold   = 1.00e-08
  Density threshold  = 1.00e-08
  Integral threshold = 1.00e-12

  ==> Primary Basis <==

  Basis Set: AUG-CC-PVTZ
    Blend: AUG-CC-PVTZ
    Number of shells: 206
    Number of basis functions: 598
    Number of Cartesian functions: 685
    Spherical Harmonics?: true
    Max angular momentum: 3

   => Loading Basis Set <=

    Name: (AUG-CC-PVTZ AUX)
    Role: JKFIT
    Keyword: DF_BASIS_SCF
    atoms 1                                   entry F          line   348 file /ddmfs1b/softs/psi4conda/share/psi4/basis/aug-cc-pvtz-jkfit.gbs 
    atoms 2, 5, 8, 11, 14, 17                 entry O          line   286 file /ddmfs1b/softs/psi4conda/share/psi4/basis/aug-cc-pvtz-jkfit.gbs 
    atoms 3-4, 6-7, 9-10, 12-13, 15-16, 18-19 entry H          line    70 file /ddmfs1b/softs/psi4conda/share/psi4/basis/aug-cc-pvtz-jkfit.gbs 

  ==> Integral Setup <==

  DFHelper Memory: AOs need 3.208 GiB; user supplied 41.910 GiB. 
  Using in-core AOs.

  ==> MemDFJK: Density-Fitted J/K Matrices <==

    J tasked:                   Yes
    K tasked:                   Yes
    wK tasked:                   No
    OpenMP threads:              20
    Memory [MiB]:             42915
    Algorithm:                 Core
    Schwarz Cutoff:           1E-12
    Mask sparsity (%):       9.9652
    Fitting Condition:        1E-10

   => Auxiliary Basis Set <=

  Basis Set: (AUG-CC-PVTZ AUX)
    Blend: AUG-CC-PVTZ-JKFIT
    Number of shells: 378
    Number of basis functions: 1280
    Number of Cartesian functions: 1577
    Spherical Harmonics?: true
    Max angular momentum: 4

  Minimum eigenvalue in the overlap matrix is 1.8275751647E-05.
  Reciprocal condition number of the overlap matrix is 1.1476374096E-06.
    Using symmetric orthogonalization.

  ==> Pre-Iterations <==

  SCF Guess: Superposition of Atomic Densities via on-the-fly atomic UHF (no occupation information).

   -------------------------
    Irrep   Nso     Nmo    
   -------------------------
     A        598     598 
   -------------------------
    Total     598     598
   -------------------------

  ==> Iterations <==

                           Total Energy        Delta E     RMS |[F,P]|

   @DF-RHF iter SAD:   -75.45081508530593   -7.54508e+01   0.00000e+00 
   @DF-RHF iter   1:   -75.97036419648865   -5.19549e-01   7.80694e-04 DIIS/ADIIS
   @DF-RHF iter   2:   -76.02213356419094   -5.17694e-02   5.51172e-04 DIIS/ADIIS
   @DF-RHF iter   3:   -76.05612653082858   -3.39930e-02   3.74524e-05 DIIS
   @DF-RHF iter   4:   -76.05654768283573   -4.21152e-04   9.52591e-06 DIIS
   @DF-RHF iter   5:   -76.05657844558716   -3.07628e-05   2.25139e-06 DIIS
   @DF-RHF iter   6:   -76.05658110356666   -2.65798e-06   4.84816e-07 DIIS
   @DF-RHF iter   7:   -76.05658123496778   -1.31401e-07   7.99289e-08 DIIS
   @DF-RHF iter   8:   -76.05658123800126   -3.03348e-09   1.35816e-08 DIIS
   @DF-RHF iter   9:   -76.05658123806930   -6.80416e-11   3.24974e-09 DIIS
  Energy and wave function converged.


  ==> Post-Iterations <==

    Orbital Energies [Eh]
    ---------------------

    Doubly Occupied:                                                      

       1A    -20.574281     2A     -1.343152     3A     -0.692481  
       4A     -0.589772     5A     -0.509690  

    Virtual:                                                              

       6A      0.014504     7A      0.031963     8A      0.036498  
       9A      0.038561    10A      0.054473    11A      0.054737  
      12A      0.060753    13A      0.064523    14A      0.074951  
      15A      0.082378    16A      0.086217    17A      0.097833  
      18A      0.103467    19A      0.113506    20A      0.121128  
      21A      0.129220    22A      0.138140    23A      0.147825  
      24A      0.157715    25A      0.158302    26A      0.164954  
      27A      0.165890    28A      0.173854    29A      0.176276  
      30A      0.177695    31A      0.188437    32A      0.194574  
      33A      0.198878    34A      0.206077    35A      0.213329  
      36A      0.215425    37A      0.220784    38A      0.224547  
      39A      0.232599    40A      0.238218    41A      0.242221  
      42A      0.256394    43A      0.262253    44A      0.273235  
      45A      0.279992    46A      0.282362    47A      0.294841  
      48A      0.306327    49A      0.312270    50A      0.315765  
      51A      0.320507    52A      0.332322    53A      0.335388  
      54A      0.339983    55A      0.341333    56A      0.351698  
      57A      0.356923    58A      0.366037    59A      0.368972  
      60A      0.375200    61A      0.380284    62A      0.394800  
      63A      0.402556    64A      0.408280    65A      0.408935  
      66A      0.412826    67A      0.416851    68A      0.421187  
      69A      0.424961    70A      0.431140    71A      0.439878  
      72A      0.449780    73A      0.453152    74A      0.461087  
      75A      0.473030    76A      0.482516    77A      0.485513  
      78A      0.493330    79A      0.496639    80A      0.511421  
      81A      0.519165    82A      0.533111    83A      0.538201  
      84A      0.559032    85A      0.561937    86A      0.563286  
      87A      0.565395    88A      0.575290    89A      0.611973  
      90A      0.619985    91A      0.626135    92A      0.632428  
      93A      0.641044    94A      0.671751    95A      0.697019  
      96A      0.706791    97A      0.710023    98A      0.717258  
      99A      0.730730   100A      0.731996   101A      0.745558  
     102A      0.749055   103A      0.756831   104A      0.767187  
     105A      0.772402   106A      0.779325   107A      0.781796  
     108A      0.787157   109A      0.801948   110A      0.805992  
     111A      0.811547   112A      0.818156   113A      0.826690  
     114A      0.834251   115A      0.841880   116A      0.845095  
     117A      0.848072   118A      0.852783   119A      0.857758  
     120A      0.865348   121A      0.867245   122A      0.870252  
     123A      0.878096   124A      0.879569   125A      0.887774  
     126A      0.895104   127A      0.903895   128A      0.908300  
     129A      0.914168   130A      0.921944   131A      0.925787  
     132A      0.937755   133A      0.944858   134A      0.947644  
     135A      0.954782   136A      0.963964   137A      0.971469  
     138A      0.975189   139A      0.978706   140A      0.983317  
     141A      0.989730   142A      0.996122   143A      1.000161  
     144A      1.006905   145A      1.012752   146A      1.019346  
     147A      1.025262   148A      1.035128   149A      1.038974  
     150A      1.053553   151A      1.057625   152A      1.061045  
     153A      1.073050   154A      1.079122   155A      1.089582  
     156A      1.097239   157A      1.104254   158A      1.110076  
     159A      1.115919   160A      1.120946   161A      1.122311  
     162A      1.130697   163A      1.140793   164A      1.144217  
     165A      1.151515   166A      1.160250   167A      1.163444  
     168A      1.168771   169A      1.176424   170A      1.186012  
     171A      1.211828   172A      1.212418   173A      1.225298  
     174A      1.229487   175A      1.233198   176A      1.245981  
     177A      1.268681   178A      1.275946   179A      1.283934  
     180A      1.292220   181A      1.302520   182A      1.319139  
     183A      1.321825   184A      1.331155   185A      1.353158  
     186A      1.358528   187A      1.361022   188A      1.374903  
     189A      1.387365   190A      1.403157   191A      1.414348  
     192A      1.427421   193A      1.433015   194A      1.439808  
     195A      1.447046   196A      1.469762   197A      1.472446  
     198A      1.482325   199A      1.486404   200A      1.496072  
     201A      1.515807   202A      1.522954   203A      1.534823  
     204A      1.541337   205A      1.554980   206A      1.560864  
     207A      1.568735   208A      1.578125   209A      1.594587  
     210A      1.604227   211A      1.608543   212A      1.626792  
     213A      1.645220   214A      1.654345   215A      1.674138  
     216A      1.697981   217A      1.707362   218A      1.715821  
     219A      1.726346   220A      1.735373   221A      1.748796  
     222A      1.770255   223A      1.776638   224A      1.790864  
     225A      1.791466   226A      1.806877   227A      1.810000  
     228A      1.823071   229A      1.834697   230A      1.840851  
     231A      1.851049   232A      1.859988   233A      1.862040  
     234A      1.879277   235A      1.882988   236A      1.895016  
     237A      1.904696   238A      1.910155   239A      1.921828  
     240A      1.936948   241A      1.943010   242A      1.956169  
     243A      1.972587   244A      1.986981   245A      2.000135  
     246A      2.010274   247A      2.025487   248A      2.034944  
     249A      2.041505   250A      2.050228   251A      2.059785  
     252A      2.077066   253A      2.098760   254A      2.127841  
     255A      2.130493   256A      2.190165   257A      2.209300  
     258A      2.242523   259A      2.263100   260A      2.302719  
     261A      2.332387   262A      2.354359   263A      2.388748  
     264A      2.416285   265A      2.466216   266A      2.467262  
     267A      2.477665   268A      2.498814   269A      2.509224  
     270A      2.517132   271A      2.525859   272A      2.527854  
     273A      2.539829   274A      2.555437   275A      2.561818  
     276A      2.564670   277A      2.580204   278A      2.593106  
     279A      2.598799   280A      2.601154   281A      2.611206  
     282A      2.627221   283A      2.628307   284A      2.643727  
     285A      2.663098   286A      2.682273   287A      2.684760  
     288A      2.690355   289A      2.712630   290A      2.717635  
     291A      2.736307   292A      2.741817   293A      2.746775  
     294A      2.755870   295A      2.764569   296A      2.783546  
     297A      2.801216   298A      2.810027   299A      2.812623  
     300A      2.818171   301A      2.839813   302A      2.852461  
     303A      2.854810   304A      2.868725   305A      2.879643  
     306A      2.892033   307A      2.918637   308A      2.927276  
     309A      2.942233   310A      2.953799   311A      2.957198  
     312A      2.997779   313A      3.008605   314A      3.022436  
     315A      3.040112   316A      3.043461   317A      3.068761  
     318A      3.093528   319A      3.104006   320A      3.112834  
     321A      3.157014   322A      3.192606   323A      3.214062  
     324A      3.231727   325A      3.236080   326A      3.245980  
     327A      3.252382   328A      3.265465   329A      3.273596  
     330A      3.278911   331A      3.294135   332A      3.301768  
     333A      3.328601   334A      3.329912   335A      3.373022  
     336A      3.402305   337A      3.428805   338A      3.447031  
     339A      3.473230   340A      3.488616   341A      3.502739  
     342A      3.512914   343A      3.537077   344A      3.564027  
     345A      3.589498   346A      3.598781   347A      3.619756  
     348A      3.626198   349A      3.661950   350A      3.679386  
     351A      3.688299   352A      3.707353   353A      3.718028  
     354A      3.749925   355A      3.764089   356A      3.782104  
     357A      3.819175   358A      3.824529   359A      3.857982  
     360A      3.878478   361A      3.887059   362A      3.895195  
     363A      3.960943   364A      4.015049   365A      4.095520  
     366A      4.104691   367A      4.124130   368A      4.167861  
     369A      4.226706   370A      4.242233   371A      4.258074  
     372A      4.285160   373A      4.307925   374A      4.344939  
     375A      4.352036   376A      4.397843   377A      4.430329  
     378A      4.437841   379A      4.454819   380A      4.471060  
     381A      4.479832   382A      4.493885   383A      4.501870  
     384A      4.508517   385A      4.523306   386A      4.532747  
     387A      4.538403   388A      4.547629   389A      4.558756  
     390A      4.574659   391A      4.588586   392A      4.607936  
     393A      4.624677   394A      4.636689   395A      4.648404  
     396A      4.665023   397A      4.676346   398A      4.684645  
     399A      4.686549   400A      4.697446   401A      4.727911  
     402A      4.742757   403A      4.761246   404A      4.776949  
     405A      4.785650   406A      4.807603   407A      4.820062  
     408A      4.837764   409A      4.850591   410A      4.895197  
     411A      4.923089   412A      4.926354   413A      4.943574  
     414A      4.966614   415A      4.977827   416A      4.995540  
     417A      5.004796   418A      5.026579   419A      5.040609  
     420A      5.044509   421A      5.085904   422A      5.096007  
     423A      5.105242   424A      5.146448   425A      5.160963  
     426A      5.172399   427A      5.181305   428A      5.195857  
     429A      5.214587   430A      5.231235   431A      5.268750  
     432A      5.275732   433A      5.307138   434A      5.343623  
     435A      5.349132   436A      5.394656   437A      5.430889  
     438A      5.455397   439A      5.488658   440A      5.502006  
     441A      5.520561   442A      5.537006   443A      5.555168  
     444A      5.585960   445A      5.596936   446A      5.621682  
     447A      5.640674   448A      5.673265   449A      5.707032  
     450A      5.722023   451A      5.741309   452A      5.762809  
     453A      5.772696   454A      5.778240   455A      5.816001  
     456A      5.834249   457A      5.870473   458A      5.882422  
     459A      5.959573   460A      5.977254   461A      6.119345  
     462A      6.171850   463A      6.224540   464A      6.246542  
     465A      6.290970   466A      6.367884   467A      6.399979  
     468A      6.457297   469A      6.498230   470A      6.516317  
     471A      6.560562   472A      6.589166   473A      6.634245  
     474A      6.661479   475A      6.781242   476A      6.789891  
     477A      6.837927   478A      6.895086   479A      6.922362  
     480A      7.020926   481A      7.051507   482A      7.086902  
     483A      7.134828   484A      7.162762   485A      7.194252  
     486A      7.237037   487A      7.245612   488A      7.319473  
     489A      7.407727   490A      7.488296   491A      7.560890  
     492A      7.696058   493A      7.732831   494A      7.760703  
     495A      7.773933   496A      7.794512   497A      7.821539  
     498A      7.830596   499A      7.860862   500A      7.872729  
     501A      7.912779   502A      7.951242   503A      7.998189  
     504A      8.010318   505A      8.076690   506A      8.120562  
     507A      8.139028   508A      8.151951   509A      8.171907  
     510A      8.249450   511A      8.273546   512A      8.297607  
     513A      8.298881   514A      8.307467   515A      8.315749  
     516A      8.347703   517A      8.365839   518A      8.391165  
     519A      8.435186   520A      8.707170   521A      8.749204  
     522A      8.817873   523A      8.840959   524A      8.869237  
     525A      8.961070   526A      8.989485   527A      9.007087  
     528A      9.035742   529A      9.175846   530A      9.237789  
     531A      9.732832   532A      9.795610   533A      9.805943  
     534A      9.865792   535A      9.884026   536A      9.890955  
     537A      9.901959   538A      9.926341   539A      9.929547  
     540A      9.964449   541A     10.101372   542A     10.106175  
     543A     10.132780   544A     10.169275   545A     10.188068  
     546A     10.290342   547A     10.328152   548A     10.349813  
     549A     10.384636   550A     10.398058   551A     10.467702  
     552A     10.580071   553A     10.598876   554A     10.657807  
     555A     10.728500   556A     10.777514   557A     10.933652  
     558A     11.120788   559A     11.157191   560A     11.167495  
     561A     11.339086   562A     11.494123   563A     11.778270  
     564A     11.807564   565A     11.824663   566A     11.947692  
     567A     11.977008   568A     12.056660   569A     12.169040  
     570A     12.212753   571A     12.330683   572A     12.512868  
     573A     12.998560   574A     13.338409   575A     13.397364  
     576A     13.432636   577A     13.496535   578A     13.549251  
     579A     13.568419   580A     13.635062   581A     13.694300  
     582A     13.829947   583A     13.918319   584A     13.976008  
     585A     14.036363   586A     14.067321   587A     14.114746  
     588A     14.307222   589A     15.353907   590A     15.465782  
     591A     15.569010   592A     16.382652   593A     65.853803  
     594A     65.963273   595A     66.664367   596A     68.432662  
     597A     69.427636   598A     77.054768  

    Final Occupation by Irrep:
              A 
    DOCC [     5 ]
    NA   [     5 ]
    NB   [     5 ]

  @DF-RHF Final Energy:   -76.05658123806930

   => Energetics <=

    Nuclear Repulsion Energy =              8.9453138624888329
    One-Electron Energy =                -122.5850351901145388
    Two-Electron Energy =                  37.5831400895564158
    Total Energy =                        -76.0565812380692989

Computation Completed


Properties will be evaluated at   0.000000,   0.000000,   0.000000 [a0]

Properties computed using the SCF density matrix


 Multipole Moments:

 ------------------------------------------------------------------------------------
     Multipole            Electronic (a.u.)      Nuclear  (a.u.)        Total (a.u.)
 ------------------------------------------------------------------------------------

 L = 1.  Multiply by 2.5417464519 to convert [e a0] to [Debye]
 Dipole X            :         -7.8953605            8.3689243            0.4735638
 Dipole Y            :         18.9952570          -18.4307030            0.5645540
 Dipole Z            :        -44.3902133           44.0238006           -0.3664127
 Magnitude           :                                                    0.8229472

 ------------------------------------------------------------------------------------

*** tstop() called on ddmfs1 at Mon Jan 22 17:25:46 2024
Module time:
	user time   =     129.51 seconds =       2.16 minutes
	system time =       5.92 seconds =       0.10 minutes
	total time  =          8 seconds =       0.13 minutes
Total time:
	user time   =     129.51 seconds =       2.16 minutes
	system time =       5.92 seconds =       0.10 minutes
	total time  =          8 seconds =       0.13 minutes

*** tstart() called on ddmfs1
*** at Mon Jan 22 17:25:46 2024


  //>>>>>>>>>>>>>>>>>>>>>>>>>>>>>>>>>>>//
  //               DFMP2               //
  //<<<<<<<<<<<<<<<<<<<<<<<<<<<<<<<<<<<//

   => Loading Basis Set <=

    Name: (AUG-CC-PVTZ AUX)
    Role: RIFIT
    Keyword: DF_BASIS_MP2
    atoms 1                                   entry F          line   322 file /ddmfs1b/softs/psi4conda/share/psi4/basis/aug-cc-pvtz-ri.gbs 
    atoms 2, 5, 8, 11, 14, 17                 entry O          line   264 file /ddmfs1b/softs/psi4conda/share/psi4/basis/aug-cc-pvtz-ri.gbs 
    atoms 3-4, 6-7, 9-10, 12-13, 15-16, 18-19 entry H          line    30 file /ddmfs1b/softs/psi4conda/share/psi4/basis/aug-cc-pvtz-ri.gbs 

	 --------------------------------------------------------
	                          DF-MP2                         
	      2nd-Order Density-Fitted Moller-Plesset Theory     
	              RMP2 Wavefunction,  20 Threads             
	                                                         
	        Rob Parrish, Justin Turney, Andy Simmonett,      
	           Ed Hohenstein, and C. David Sherrill          
	 --------------------------------------------------------

   => Auxiliary Basis Set <=

  Basis Set: (AUG-CC-PVTZ AUX)
    Blend: AUG-CC-PVTZ-RI
    Number of shells: 364
    Number of basis functions: 1294
    Number of Cartesian functions: 1612
    Spherical Harmonics?: true
    Max angular momentum: 4

	 --------------------------------------------------------
	                 NBF =   598, NAUX =  1294
	 --------------------------------------------------------
	   CLASS    FOCC     OCC    AOCC    AVIR     VIR    FVIR
	   PAIRS       0       5       5     593     593       0
	 --------------------------------------------------------

	-----------------------------------------------------------
	 ==================> DF-MP2 Energies <==================== 
	-----------------------------------------------------------
	 Reference Energy          =     -76.0565812380692989 [Eh]
	 Singles Energy            =      -0.0000000000000000 [Eh]
	 Same-Spin Energy          =      -0.0690603209025637 [Eh]
	 Opposite-Spin Energy      =      -0.2180647521391591 [Eh]
	 Correlation Energy        =      -0.2871250730417229 [Eh]
	 Total Energy              =     -76.3437063111110206 [Eh]
	-----------------------------------------------------------
	 ================> DF-SCS-MP2 Energies <================== 
	-----------------------------------------------------------
	 SCS Same-Spin Scale       =       0.3333333333333333 [-]
	 SCS Opposite-Spin Scale   =       1.2000000000000000 [-]
	 SCS Same-Spin Energy      =      -0.0230201069675212 [Eh]
	 SCS Opposite-Spin Energy  =      -0.2616777025669909 [Eh]
	 SCS Correlation Energy    =      -0.2846978095345122 [Eh]
	 SCS Total Energy          =     -76.3412790476038055 [Eh]
	-----------------------------------------------------------


*** tstop() called on ddmfs1 at Mon Jan 22 17:25:51 2024
Module time:
	user time   =      32.97 seconds =       0.55 minutes
	system time =       1.71 seconds =       0.03 minutes
	total time  =          5 seconds =       0.08 minutes
Total time:
	user time   =     162.50 seconds =       2.71 minutes
	system time =       7.63 seconds =       0.13 minutes
	total time  =         13 seconds =       0.22 minutes

    Psi4 stopped on: Monday, 22 January 2024 05:25PM
    Psi4 wall time for execution: 0:00:13.47

*** Psi4 exiting successfully. Buy a developer a beer!
