
    -----------------------------------------------------------------------
          Psi4: An Open-Source Ab Initio Electronic Structure Package
                               Psi4 1.8.2 release

                         Git: Rev {} zzzzzzz 


    D. G. A. Smith, L. A. Burns, A. C. Simmonett, R. M. Parrish,
    M. C. Schieber, R. Galvelis, P. Kraus, H. Kruse, R. Di Remigio,
    A. Alenaizan, A. M. James, S. Lehtola, J. P. Misiewicz, M. Scheurer,
    R. A. Shaw, J. B. Schriber, Y. Xie, Z. L. Glick, D. A. Sirianni,
    J. S. O'Brien, J. M. Waldrop, A. Kumar, E. G. Hohenstein,
    B. P. Pritchard, B. R. Brooks, H. F. Schaefer III, A. Yu. Sokolov,
    K. Patkowski, A. E. DePrince III, U. Bozkaya, R. A. King,
    F. A. Evangelista, J. M. Turney, T. D. Crawford, C. D. Sherrill,
    J. Chem. Phys. 152(18) 184108 (2020). https://doi.org/10.1063/5.0006002

                            Additional Code Authors
    E. T. Seidl, C. L. Janssen, E. F. Valeev, M. L. Leininger,
    J. F. Gonthier, R. M. Richard, H. R. McAlexander, M. Saitow, X. Wang,
    P. Verma, M. H. Lechner, A. Jiang, S. Behnle, A. G. Heide,
    M. F. Herbst, and D. L. Poole

             Previous Authors, Complete List of Code Contributors,
                       and Citations for Specific Modules
    https://github.com/psi4/psi4/blob/master/codemeta.json
    https://github.com/psi4/psi4/graphs/contributors
    http://psicode.org/psi4manual/master/introduction.html#citing-psifour

    -----------------------------------------------------------------------


    Psi4 started on: Monday, 22 January 2024 06:37PM

    Process ID: 91595
    Host:       ddmfs1
    PSIDATADIR: /ddmfs1b/softs/psi4conda/share/psi4
    Memory:     500.0 MiB
    Threads:    20
    
  ==> Input File <==

--------------------------------------------------------------------------
MEMORY 60 GB

molecule dimer {
0 1
Gh(F)      0.000000     0.000000     0.000000
Gh(O)     -2.059057     0.556806    -1.512511
Gh(H)     -1.631697     0.750314    -2.355200
Gh(H)     -1.337052     0.357530    -0.924989
O         -1.092632     0.531104     2.514755
H         -0.595685     0.472327     1.701018
H         -0.807881     1.360419     2.908593
Gh(O)      1.853987     2.045109    -0.296217
Gh(H)      1.205149     1.477398     0.090440
Gh(H)      1.333577     2.420067    -1.019413

units ang
no_reorient
no_com
symmetry c1
}

set {
basis        aug-cc-pVTZ
scf_type     df
}

energy("mp2")
--------------------------------------------------------------------------

  Memory set to  55.879 GiB by Python driver.

Scratch directory: /ddmfs1a/scratch/
   => Libint2 <=

    Primary   basis highest AM E, G, H:  5, 4, 3
    Auxiliary basis highest AM E, G, H:  6, 5, 4
    Onebody   basis highest AM E, G, H:  6, 5, 4
    Solid Harmonics ordering:            gaussian

*** tstart() called on ddmfs1
*** at Mon Jan 22 18:37:53 2024

   => Loading Basis Set <=

    Name: AUG-CC-PVTZ
    Role: ORBITAL
    Keyword: BASIS
    atoms 1              entry F          line   377 file /ddmfs1b/softs/psi4conda/share/psi4/basis/aug-cc-pvtz.gbs 
    atoms 2, 5, 8        entry O          line   331 file /ddmfs1b/softs/psi4conda/share/psi4/basis/aug-cc-pvtz.gbs 
    atoms 3-4, 6-7, 9-10 entry H          line    40 file /ddmfs1b/softs/psi4conda/share/psi4/basis/aug-cc-pvtz.gbs 


         ---------------------------------------------------------
                                   SCF
               by Justin Turney, Rob Parrish, Andy Simmonett
                          and Daniel G. A. Smith
                              RHF Reference
                       20 Threads,  57220 MiB Core
         ---------------------------------------------------------

  ==> Geometry <==

    Molecular point group: c1
    Full point group: C1

    Geometry (in Angstrom), charge = 0, multiplicity = 1:

       Center              X                  Y                   Z               Mass       
    ------------   -----------------  -----------------  -----------------  -----------------
      Gh(F)           0.000000000000     0.000000000000     0.000000000000    18.998403162730
      Gh(O)          -2.059057000000     0.556806000000    -1.512511000000    15.994914619570
      Gh(H)          -1.631697000000     0.750314000000    -2.355200000000     1.007825032230
      Gh(H)          -1.337052000000     0.357530000000    -0.924989000000     1.007825032230
         O           -1.092632000000     0.531104000000     2.514755000000    15.994914619570
         H           -0.595685000000     0.472327000000     1.701018000000     1.007825032230
         H           -0.807881000000     1.360419000000     2.908593000000     1.007825032230
      Gh(O)           1.853987000000     2.045109000000    -0.296217000000    15.994914619570
      Gh(H)           1.205149000000     1.477398000000     0.090440000000     1.007825032230
      Gh(H)           1.333577000000     2.420067000000    -1.019413000000     1.007825032230

  Running in c1 symmetry.

  Rotational constants: A =      0.07363  B =      0.07059  C =      0.05199 [cm^-1]
  Rotational constants: A =   2207.30347  B =   2116.34019  C =   1558.64694 [MHz]
  Nuclear repulsion =    9.185279020273430

  Charge       = 0
  Multiplicity = 1
  Electrons    = 10
  Nalpha       = 5
  Nbeta        = 5

  ==> Algorithm <==

  SCF Algorithm Type is DF.
  DIIS enabled.
  MOM disabled.
  Fractional occupation disabled.
  Guess Type is SAD.
  Energy threshold   = 1.00e-08
  Density threshold  = 1.00e-08
  Integral threshold = 1.00e-12

  ==> Primary Basis <==

  Basis Set: AUG-CC-PVTZ
    Blend: AUG-CC-PVTZ
    Number of shells: 110
    Number of basis functions: 322
    Number of Cartesian functions: 370
    Spherical Harmonics?: true
    Max angular momentum: 3

   => Loading Basis Set <=

    Name: (AUG-CC-PVTZ AUX)
    Role: JKFIT
    Keyword: DF_BASIS_SCF
    atoms 1              entry F          line   348 file /ddmfs1b/softs/psi4conda/share/psi4/basis/aug-cc-pvtz-jkfit.gbs 
    atoms 2, 5, 8        entry O          line   286 file /ddmfs1b/softs/psi4conda/share/psi4/basis/aug-cc-pvtz-jkfit.gbs 
    atoms 3-4, 6-7, 9-10 entry H          line    70 file /ddmfs1b/softs/psi4conda/share/psi4/basis/aug-cc-pvtz-jkfit.gbs 

  ==> Integral Setup <==

  DFHelper Memory: AOs need 0.539 GiB; user supplied 41.910 GiB. 
  Using in-core AOs.

  ==> MemDFJK: Density-Fitted J/K Matrices <==

    J tasked:                   Yes
    K tasked:                   Yes
    wK tasked:                   No
    OpenMP threads:              20
    Memory [MiB]:             42915
    Algorithm:                 Core
    Schwarz Cutoff:           1E-12
    Mask sparsity (%):       6.6452
    Fitting Condition:        1E-10

   => Auxiliary Basis Set <=

  Basis Set: (AUG-CC-PVTZ AUX)
    Blend: AUG-CC-PVTZ-JKFIT
    Number of shells: 204
    Number of basis functions: 692
    Number of Cartesian functions: 854
    Spherical Harmonics?: true
    Max angular momentum: 4

  Minimum eigenvalue in the overlap matrix is 2.0941381398E-04.
  Reciprocal condition number of the overlap matrix is 1.9862337217E-05.
    Using symmetric orthogonalization.

  ==> Pre-Iterations <==

  SCF Guess: Superposition of Atomic Densities via on-the-fly atomic UHF (no occupation information).

   -------------------------
    Irrep   Nso     Nmo    
   -------------------------
     A        322     322 
   -------------------------
    Total     322     322
   -------------------------

  ==> Iterations <==

                           Total Energy        Delta E     RMS |[F,P]|

   @DF-RHF iter SAD:   -75.47703289222416   -7.54770e+01   0.00000e+00 
   @DF-RHF iter   1:   -75.97624466194537   -4.99212e-01   1.45546e-03 ADIIS/DIIS
   @DF-RHF iter   2:   -76.02879511207067   -5.25505e-02   9.90837e-04 ADIIS/DIIS
   @DF-RHF iter   3:   -76.06014911748814   -3.13540e-02   6.73873e-05 DIIS
   @DF-RHF iter   4:   -76.06053751238403   -3.88395e-04   1.60401e-05 DIIS
   @DF-RHF iter   5:   -76.06056154176298   -2.40294e-05   3.64231e-06 DIIS
   @DF-RHF iter   6:   -76.06056350561408   -1.96385e-06   7.98491e-07 DIIS
   @DF-RHF iter   7:   -76.06056360971236   -1.04098e-07   1.44754e-07 DIIS
   @DF-RHF iter   8:   -76.06056361272114   -3.00878e-09   2.41028e-08 DIIS
   @DF-RHF iter   9:   -76.06056361278655   -6.54126e-11   5.92569e-09 DIIS
  Energy and wave function converged.


  ==> Post-Iterations <==

    Orbital Energies [Eh]
    ---------------------

    Doubly Occupied:                                                      

       1A    -20.567417     2A     -1.353159     3A     -0.716951  
       4A     -0.585015     5A     -0.510306  

    Virtual:                                                              

       6A      0.018396     7A      0.037383     8A      0.044588  
       9A      0.049975    10A      0.065597    11A      0.080765  
      12A      0.097925    13A      0.107935    14A      0.129624  
      15A      0.142635    16A      0.143900    17A      0.148858  
      18A      0.167759    19A      0.169272    20A      0.181917  
      21A      0.185582    22A      0.199464    23A      0.210677  
      24A      0.224624    25A      0.232814    26A      0.235034  
      27A      0.253930    28A      0.261927    29A      0.288945  
      30A      0.297624    31A      0.304837    32A      0.305871  
      33A      0.315705    34A      0.327565    35A      0.338404  
      36A      0.342679    37A      0.350246    38A      0.366128  
      39A      0.374074    40A      0.405296    41A      0.409145  
      42A      0.416572    43A      0.429357    44A      0.435530  
      45A      0.441595    46A      0.471596    47A      0.483335  
      48A      0.509246    49A      0.523437    50A      0.550544  
      51A      0.590327    52A      0.661215    53A      0.672731  
      54A      0.685284    55A      0.701179    56A      0.710754  
      57A      0.730754    58A      0.736258    59A      0.747080  
      60A      0.756546    61A      0.759654    62A      0.770248  
      63A      0.776411    64A      0.785886    65A      0.798978  
      66A      0.808767    67A      0.823146    68A      0.832243  
      69A      0.836451    70A      0.842747    71A      0.855308  
      72A      0.867081    73A      0.869079    74A      0.894600  
      75A      0.897932    76A      0.903665    77A      0.928109  
      78A      0.938479    79A      0.942776    80A      0.946310  
      81A      0.967343    82A      0.968055    83A      0.975342  
      84A      0.986738    85A      1.002218    86A      1.011880  
      87A      1.016620    88A      1.026191    89A      1.037045  
      90A      1.041498    91A      1.049897    92A      1.071596  
      93A      1.078641    94A      1.088715    95A      1.106539  
      96A      1.134384    97A      1.144376    98A      1.158364  
      99A      1.186869   100A      1.203264   101A      1.226394  
     102A      1.252817   103A      1.266625   104A      1.290167  
     105A      1.309919   106A      1.334308   107A      1.356089  
     108A      1.363284   109A      1.400606   110A      1.431071  
     111A      1.438306   112A      1.454209   113A      1.482944  
     114A      1.515966   115A      1.534861   116A      1.563666  
     117A      1.592656   118A      1.617374   119A      1.638065  
     120A      1.661016   121A      1.680933   122A      1.697058  
     123A      1.708455   124A      1.722199   125A      1.739993  
     126A      1.761256   127A      1.770192   128A      1.780555  
     129A      1.807147   130A      1.835567   131A      1.873555  
     132A      1.880144   133A      1.901678   134A      1.949945  
     135A      1.961242   136A      1.964261   137A      2.079933  
     138A      2.115175   139A      2.139535   140A      2.219827  
     141A      2.310050   142A      2.366148   143A      2.429665  
     144A      2.438807   145A      2.452790   146A      2.459881  
     147A      2.474426   148A      2.487106   149A      2.499861  
     150A      2.507755   151A      2.519898   152A      2.541216  
     153A      2.545914   154A      2.583106   155A      2.602153  
     156A      2.619959   157A      2.650089   158A      2.656081  
     159A      2.685891   160A      2.687532   161A      2.703414  
     162A      2.722048   163A      2.735656   164A      2.752668  
     165A      2.770563   166A      2.793251   167A      2.852072  
     168A      2.926839   169A      2.953428   170A      2.994497  
     171A      3.030941   172A      3.116254   173A      3.157900  
     174A      3.178523   175A      3.190445   176A      3.209360  
     177A      3.214143   178A      3.251817   179A      3.290243  
     180A      3.351212   181A      3.405347   182A      3.427504  
     183A      3.444959   184A      3.486645   185A      3.492546  
     186A      3.520289   187A      3.577722   188A      3.600630  
     189A      3.618992   190A      3.655790   191A      3.671343  
     192A      3.686543   193A      3.714218   194A      3.768632  
     195A      3.849460   196A      3.918145   197A      3.957496  
     198A      3.987762   199A      4.030241   200A      4.071718  
     201A      4.076324   202A      4.171054   203A      4.186604  
     204A      4.236528   205A      4.265454   206A      4.319153  
     207A      4.337207   208A      4.410633   209A      4.423999  
     210A      4.434698   211A      4.448619   212A      4.455632  
     213A      4.470498   214A      4.488412   215A      4.518806  
     216A      4.541019   217A      4.572524   218A      4.587939  
     219A      4.634480   220A      4.663009   221A      4.728315  
     222A      4.799295   223A      4.832989   224A      4.866105  
     225A      4.870920   226A      4.888106   227A      4.894672  
     228A      4.922847   229A      4.998587   230A      5.013083  
     231A      5.026912   232A      5.088333   233A      5.181899  
     234A      5.250228   235A      5.292653   236A      5.332292  
     237A      5.356156   238A      5.500045   239A      5.565594  
     240A      5.614718   241A      5.621901   242A      5.635520  
     243A      5.643101   244A      5.740058   245A      5.745715  
     246A      5.767952   247A      5.934910   248A      5.965999  
     249A      6.180876   250A      6.250496   251A      6.369016  
     252A      6.379417   253A      6.495349   254A      6.553063  
     255A      6.673358   256A      6.686971   257A      6.792686  
     258A      6.975813   259A      7.147644   260A      7.154882  
     261A      7.163844   262A      7.287224   263A      7.354797  
     264A      7.366554   265A      7.418057   266A      7.481972  
     267A      7.706214   268A      7.724045   269A      7.755357  
     270A      7.869395   271A      7.920796   272A      7.994586  
     273A      8.034001   274A      8.047306   275A      8.068197  
     276A      8.171971   277A      8.218850   278A      8.331058  
     279A      8.338063   280A      8.800434   281A      8.842398  
     282A      8.867808   283A      9.028245   284A      9.037932  
     285A      9.671380   286A      9.707541   287A      9.862981  
     288A      9.869896   289A     10.060743   290A     10.082987  
     291A     10.233335   292A     10.303519   293A     10.333222  
     294A     10.367319   295A     10.446712   296A     10.481064  
     297A     10.531151   298A     10.604095   299A     10.751000  
     300A     11.218823   301A     11.300405   302A     11.587456  
     303A     11.805235   304A     11.893402   305A     12.280672  
     306A     12.504075   307A     13.120339   308A     13.135984  
     309A     13.201148   310A     13.205182   311A     13.286977  
     312A     13.649954   313A     13.802249   314A     13.941418  
     315A     14.009028   316A     14.727923   317A     15.048732  
     318A     15.090826   319A     16.904038   320A     66.697099  
     321A     66.996329   322A     73.690846  

    Final Occupation by Irrep:
              A 
    DOCC [     5 ]
    NA   [     5 ]
    NB   [     5 ]

  @DF-RHF Final Energy:   -76.06056361278655

   => Energetics <=

    Nuclear Repulsion Energy =              9.1852790202734305
    One-Electron Energy =                -123.0259846661630974
    Two-Electron Energy =                  37.7801420331031181
    Total Energy =                        -76.0605636127865523

Computation Completed


Properties will be evaluated at   0.000000,   0.000000,   0.000000 [a0]

Properties computed using the SCF density matrix


 Multipole Moments:

 ------------------------------------------------------------------------------------
     Multipole            Electronic (a.u.)      Nuclear  (a.u.)        Total (a.u.)
 ------------------------------------------------------------------------------------

 L = 1.  Multiply by 2.5417464519 to convert [e a0] to [Debye]
 Dipole X            :         19.6907464          -19.1705572            0.5201892
 Dipole Y            :        -10.9809026           11.4925168            0.5116142
 Dipole Z            :        -47.0086687           46.7284881           -0.2801806
 Magnitude           :                                                    0.7815670

 ------------------------------------------------------------------------------------

*** tstop() called on ddmfs1 at Mon Jan 22 18:37:55 2024
Module time:
	user time   =      31.29 seconds =       0.52 minutes
	system time =       1.63 seconds =       0.03 minutes
	total time  =          2 seconds =       0.03 minutes
Total time:
	user time   =      31.29 seconds =       0.52 minutes
	system time =       1.63 seconds =       0.03 minutes
	total time  =          2 seconds =       0.03 minutes

*** tstart() called on ddmfs1
*** at Mon Jan 22 18:37:55 2024


  //>>>>>>>>>>>>>>>>>>>>>>>>>>>>>>>>>>>//
  //               DFMP2               //
  //<<<<<<<<<<<<<<<<<<<<<<<<<<<<<<<<<<<//

   => Loading Basis Set <=

    Name: (AUG-CC-PVTZ AUX)
    Role: RIFIT
    Keyword: DF_BASIS_MP2
    atoms 1              entry F          line   322 file /ddmfs1b/softs/psi4conda/share/psi4/basis/aug-cc-pvtz-ri.gbs 
    atoms 2, 5, 8        entry O          line   264 file /ddmfs1b/softs/psi4conda/share/psi4/basis/aug-cc-pvtz-ri.gbs 
    atoms 3-4, 6-7, 9-10 entry H          line    30 file /ddmfs1b/softs/psi4conda/share/psi4/basis/aug-cc-pvtz-ri.gbs 

	 --------------------------------------------------------
	                          DF-MP2                         
	      2nd-Order Density-Fitted Moller-Plesset Theory     
	              RMP2 Wavefunction,  20 Threads             
	                                                         
	        Rob Parrish, Justin Turney, Andy Simmonett,      
	           Ed Hohenstein, and C. David Sherrill          
	 --------------------------------------------------------

   => Auxiliary Basis Set <=

  Basis Set: (AUG-CC-PVTZ AUX)
    Blend: AUG-CC-PVTZ-RI
    Number of shells: 196
    Number of basis functions: 700
    Number of Cartesian functions: 874
    Spherical Harmonics?: true
    Max angular momentum: 4

	 --------------------------------------------------------
	                 NBF =   322, NAUX =   700
	 --------------------------------------------------------
	   CLASS    FOCC     OCC    AOCC    AVIR     VIR    FVIR
	   PAIRS       0       5       5     317     317       0
	 --------------------------------------------------------

	-----------------------------------------------------------
	 ==================> DF-MP2 Energies <==================== 
	-----------------------------------------------------------
	 Reference Energy          =     -76.0605636127865523 [Eh]
	 Singles Energy            =      -0.0000000000000000 [Eh]
	 Same-Spin Energy          =      -0.0684055964777192 [Eh]
	 Opposite-Spin Energy      =      -0.2159081439987273 [Eh]
	 Correlation Energy        =      -0.2843137404764465 [Eh]
	 Total Energy              =     -76.3448773532630014 [Eh]
	-----------------------------------------------------------
	 ================> DF-SCS-MP2 Energies <================== 
	-----------------------------------------------------------
	 SCS Same-Spin Scale       =       0.3333333333333333 [-]
	 SCS Opposite-Spin Scale   =       1.2000000000000000 [-]
	 SCS Same-Spin Energy      =      -0.0228018654925731 [Eh]
	 SCS Opposite-Spin Energy  =      -0.2590897727984728 [Eh]
	 SCS Correlation Energy    =      -0.2818916382910459 [Eh]
	 SCS Total Energy          =     -76.3424552510775953 [Eh]
	-----------------------------------------------------------


*** tstop() called on ddmfs1 at Mon Jan 22 18:37:57 2024
Module time:
	user time   =      10.49 seconds =       0.17 minutes
	system time =       0.55 seconds =       0.01 minutes
	total time  =          2 seconds =       0.03 minutes
Total time:
	user time   =      41.80 seconds =       0.70 minutes
	system time =       2.18 seconds =       0.04 minutes
	total time  =          4 seconds =       0.07 minutes

    Psi4 stopped on: Monday, 22 January 2024 06:37PM
    Psi4 wall time for execution: 0:00:03.43

*** Psi4 exiting successfully. Buy a developer a beer!
