
    -----------------------------------------------------------------------
          Psi4: An Open-Source Ab Initio Electronic Structure Package
                               Psi4 1.8.2 release

                         Git: Rev {} zzzzzzz 


    D. G. A. Smith, L. A. Burns, A. C. Simmonett, R. M. Parrish,
    M. C. Schieber, R. Galvelis, P. Kraus, H. Kruse, R. Di Remigio,
    A. Alenaizan, A. M. James, S. Lehtola, J. P. Misiewicz, M. Scheurer,
    R. A. Shaw, J. B. Schriber, Y. Xie, Z. L. Glick, D. A. Sirianni,
    J. S. O'Brien, J. M. Waldrop, A. Kumar, E. G. Hohenstein,
    B. P. Pritchard, B. R. Brooks, H. F. Schaefer III, A. Yu. Sokolov,
    K. Patkowski, A. E. DePrince III, U. Bozkaya, R. A. King,
    F. A. Evangelista, J. M. Turney, T. D. Crawford, C. D. Sherrill,
    J. Chem. Phys. 152(18) 184108 (2020). https://doi.org/10.1063/5.0006002

                            Additional Code Authors
    E. T. Seidl, C. L. Janssen, E. F. Valeev, M. L. Leininger,
    J. F. Gonthier, R. M. Richard, H. R. McAlexander, M. Saitow, X. Wang,
    P. Verma, M. H. Lechner, A. Jiang, S. Behnle, A. G. Heide,
    M. F. Herbst, and D. L. Poole

             Previous Authors, Complete List of Code Contributors,
                       and Citations for Specific Modules
    https://github.com/psi4/psi4/blob/master/codemeta.json
    https://github.com/psi4/psi4/graphs/contributors
    http://psicode.org/psi4manual/master/introduction.html#citing-psifour

    -----------------------------------------------------------------------


    Psi4 started on: Monday, 22 January 2024 06:52PM

    Process ID: 93562
    Host:       ddmfs1
    PSIDATADIR: /ddmfs1b/softs/psi4conda/share/psi4
    Memory:     500.0 MiB
    Threads:    20
    
  ==> Input File <==

--------------------------------------------------------------------------
MEMORY 60 GB

molecule dimer {
0 1
Gh(F)      0.000000     0.000000     0.000000
Gh(O)      2.385569     0.742591     1.674951
Gh(H)      1.619624     0.724586     1.100121
Gh(H)      2.424688    -0.125409     2.056396
O         -0.239041    -2.096331    -1.876795
H          0.025958    -2.893733    -1.489325
H         -0.471491    -1.429774    -1.203876
Gh(O)      0.205984    -2.249977     1.611546
Gh(H)     -0.314760    -2.967836     1.148222
Gh(H)      0.191515    -1.386093     1.171929
Gh(O)     -1.908189     0.748542     1.890951
Gh(H)     -1.585089     1.599532     2.357873
Gh(H)     -1.246971     0.562129     1.226859
Gh(O)     -0.543220     2.567600    -0.603874
Gh(H)     -0.100372     1.702524    -0.500902
Gh(H)     -1.436617     2.597652    -0.284137
Gh(O)      2.601881     0.224157    -1.352015
Gh(H)      1.685409     0.167066    -1.062671
Gh(H)      2.612419     0.812342    -2.122170

units ang
no_reorient
no_com
symmetry c1
}

set {
basis        aug-cc-pVTZ
scf_type     df
}

energy("mp2")
--------------------------------------------------------------------------

  Memory set to  55.879 GiB by Python driver.

Scratch directory: /ddmfs1a/scratch/
   => Libint2 <=

    Primary   basis highest AM E, G, H:  5, 4, 3
    Auxiliary basis highest AM E, G, H:  6, 5, 4
    Onebody   basis highest AM E, G, H:  6, 5, 4
    Solid Harmonics ordering:            gaussian

*** tstart() called on ddmfs1
*** at Mon Jan 22 18:52:53 2024

   => Loading Basis Set <=

    Name: AUG-CC-PVTZ
    Role: ORBITAL
    Keyword: BASIS
    atoms 1                                   entry F          line   377 file /ddmfs1b/softs/psi4conda/share/psi4/basis/aug-cc-pvtz.gbs 
    atoms 2, 5, 8, 11, 14, 17                 entry O          line   331 file /ddmfs1b/softs/psi4conda/share/psi4/basis/aug-cc-pvtz.gbs 
    atoms 3-4, 6-7, 9-10, 12-13, 15-16, 18-19 entry H          line    40 file /ddmfs1b/softs/psi4conda/share/psi4/basis/aug-cc-pvtz.gbs 


         ---------------------------------------------------------
                                   SCF
               by Justin Turney, Rob Parrish, Andy Simmonett
                          and Daniel G. A. Smith
                              RHF Reference
                       20 Threads,  57220 MiB Core
         ---------------------------------------------------------

  ==> Geometry <==

    Molecular point group: c1
    Full point group: C1

    Geometry (in Angstrom), charge = 0, multiplicity = 1:

       Center              X                  Y                   Z               Mass       
    ------------   -----------------  -----------------  -----------------  -----------------
      Gh(F)           0.000000000000     0.000000000000     0.000000000000    18.998403162730
      Gh(O)           2.385569000000     0.742591000000     1.674951000000    15.994914619570
      Gh(H)           1.619624000000     0.724586000000     1.100121000000     1.007825032230
      Gh(H)           2.424688000000    -0.125409000000     2.056396000000     1.007825032230
         O           -0.239041000000    -2.096331000000    -1.876795000000    15.994914619570
         H            0.025958000000    -2.893733000000    -1.489325000000     1.007825032230
         H           -0.471491000000    -1.429774000000    -1.203876000000     1.007825032230
      Gh(O)           0.205984000000    -2.249977000000     1.611546000000    15.994914619570
      Gh(H)          -0.314760000000    -2.967836000000     1.148222000000     1.007825032230
      Gh(H)           0.191515000000    -1.386093000000     1.171929000000     1.007825032230
      Gh(O)          -1.908189000000     0.748542000000     1.890951000000    15.994914619570
      Gh(H)          -1.585089000000     1.599532000000     2.357873000000     1.007825032230
      Gh(H)          -1.246971000000     0.562129000000     1.226859000000     1.007825032230
      Gh(O)          -0.543220000000     2.567600000000    -0.603874000000    15.994914619570
      Gh(H)          -0.100372000000     1.702524000000    -0.500902000000     1.007825032230
      Gh(H)          -1.436617000000     2.597652000000    -0.284137000000     1.007825032230
      Gh(O)           2.601881000000     0.224157000000    -1.352015000000    15.994914619570
      Gh(H)           1.685409000000     0.167066000000    -1.062671000000     1.007825032230
      Gh(H)           2.612419000000     0.812342000000    -2.122170000000     1.007825032230

  Running in c1 symmetry.

  Rotational constants: A =      0.03200  B =      0.02983  C =      0.02690 [cm^-1]
  Rotational constants: A =    959.46530  B =    894.33146  C =    806.49766 [MHz]
  Nuclear repulsion =    9.252440008587444

  Charge       = 0
  Multiplicity = 1
  Electrons    = 10
  Nalpha       = 5
  Nbeta        = 5

  ==> Algorithm <==

  SCF Algorithm Type is DF.
  DIIS enabled.
  MOM disabled.
  Fractional occupation disabled.
  Guess Type is SAD.
  Energy threshold   = 1.00e-08
  Density threshold  = 1.00e-08
  Integral threshold = 1.00e-12

  ==> Primary Basis <==

  Basis Set: AUG-CC-PVTZ
    Blend: AUG-CC-PVTZ
    Number of shells: 206
    Number of basis functions: 598
    Number of Cartesian functions: 685
    Spherical Harmonics?: true
    Max angular momentum: 3

   => Loading Basis Set <=

    Name: (AUG-CC-PVTZ AUX)
    Role: JKFIT
    Keyword: DF_BASIS_SCF
    atoms 1                                   entry F          line   348 file /ddmfs1b/softs/psi4conda/share/psi4/basis/aug-cc-pvtz-jkfit.gbs 
    atoms 2, 5, 8, 11, 14, 17                 entry O          line   286 file /ddmfs1b/softs/psi4conda/share/psi4/basis/aug-cc-pvtz-jkfit.gbs 
    atoms 3-4, 6-7, 9-10, 12-13, 15-16, 18-19 entry H          line    70 file /ddmfs1b/softs/psi4conda/share/psi4/basis/aug-cc-pvtz-jkfit.gbs 

  ==> Integral Setup <==

  DFHelper Memory: AOs need 3.188 GiB; user supplied 41.910 GiB. 
  Using in-core AOs.

  ==> MemDFJK: Density-Fitted J/K Matrices <==

    J tasked:                   Yes
    K tasked:                   Yes
    wK tasked:                   No
    OpenMP threads:              20
    Memory [MiB]:             42915
    Algorithm:                 Core
    Schwarz Cutoff:           1E-12
    Mask sparsity (%):      10.5625
    Fitting Condition:        1E-10

   => Auxiliary Basis Set <=

  Basis Set: (AUG-CC-PVTZ AUX)
    Blend: AUG-CC-PVTZ-JKFIT
    Number of shells: 378
    Number of basis functions: 1280
    Number of Cartesian functions: 1577
    Spherical Harmonics?: true
    Max angular momentum: 4

  Minimum eigenvalue in the overlap matrix is 1.9144791884E-05.
  Reciprocal condition number of the overlap matrix is 1.2221252260E-06.
    Using symmetric orthogonalization.

  ==> Pre-Iterations <==

  SCF Guess: Superposition of Atomic Densities via on-the-fly atomic UHF (no occupation information).

   -------------------------
    Irrep   Nso     Nmo    
   -------------------------
     A        598     598 
   -------------------------
    Total     598     598
   -------------------------

  ==> Iterations <==

                           Total Energy        Delta E     RMS |[F,P]|

   @DF-RHF iter SAD:   -75.47843474676452   -7.54784e+01   0.00000e+00 
   @DF-RHF iter   1:   -75.97535472157296   -4.96920e-01   7.86543e-04 DIIS/ADIIS
   @DF-RHF iter   2:   -76.02807694497125   -5.27222e-02   5.27799e-04 DIIS/ADIIS
   @DF-RHF iter   3:   -76.05857317205117   -3.04962e-02   3.58194e-05 DIIS
   @DF-RHF iter   4:   -76.05896114171939   -3.87970e-04   8.49777e-06 DIIS
   @DF-RHF iter   5:   -76.05898462556033   -2.34838e-05   1.92670e-06 DIIS
   @DF-RHF iter   6:   -76.05898658941661   -1.96386e-06   4.38576e-07 DIIS
   @DF-RHF iter   7:   -76.05898670310557   -1.13689e-07   8.47474e-08 DIIS
   @DF-RHF iter   8:   -76.05898670687510   -3.76953e-09   1.37221e-08 DIIS
   @DF-RHF iter   9:   -76.05898670695298   -7.78755e-11   3.41415e-09 DIIS
  Energy and wave function converged.


  ==> Post-Iterations <==

    Orbital Energies [Eh]
    ---------------------

    Doubly Occupied:                                                      

       1A    -20.562463     2A     -1.352734     3A     -0.735040  
       4A     -0.572228     5A     -0.508852  

    Virtual:                                                              

       6A      0.014987     7A      0.031222     8A      0.036039  
       9A      0.039418    10A      0.055971    11A      0.056559  
      12A      0.060244    13A      0.062144    14A      0.068175  
      15A      0.074925    16A      0.087166    17A      0.088763  
      18A      0.112211    19A      0.124553    20A      0.130765  
      21A      0.140421    22A      0.141775    23A      0.144135  
      24A      0.152242    25A      0.155964    26A      0.161412  
      27A      0.165005    28A      0.172319    29A      0.174344  
      30A      0.181834    31A      0.192564    32A      0.197992  
      33A      0.202220    34A      0.204612    35A      0.208149  
      36A      0.213866    37A      0.216247    38A      0.221155  
      39A      0.238643    40A      0.242031    41A      0.245583  
      42A      0.258130    43A      0.261049    44A      0.267220  
      45A      0.283843    46A      0.293933    47A      0.297817  
      48A      0.303041    49A      0.318747    50A      0.324159  
      51A      0.326997    52A      0.330306    53A      0.332189  
      54A      0.338840    55A      0.344609    56A      0.356049  
      57A      0.366973    58A      0.368633    59A      0.374159  
      60A      0.378049    61A      0.378760    62A      0.385922  
      63A      0.396690    64A      0.397432    65A      0.405072  
      66A      0.412171    67A      0.417448    68A      0.423209  
      69A      0.434091    70A      0.441553    71A      0.442483  
      72A      0.445856    73A      0.455982    74A      0.463564  
      75A      0.472663    76A      0.476529    77A      0.481319  
      78A      0.488295    79A      0.499141    80A      0.512609  
      81A      0.519780    82A      0.521814    83A      0.534785  
      84A      0.543035    85A      0.550810    86A      0.565883  
      87A      0.572303    88A      0.578028    89A      0.587832  
      90A      0.609316    91A      0.629149    92A      0.637922  
      93A      0.657833    94A      0.680268    95A      0.701112  
      96A      0.704549    97A      0.708758    98A      0.709801  
      99A      0.724511   100A      0.735820   101A      0.742490  
     102A      0.747849   103A      0.755773   104A      0.761740  
     105A      0.776387   106A      0.779921   107A      0.784707  
     108A      0.786629   109A      0.793038   110A      0.796901  
     111A      0.800848   112A      0.816286   113A      0.820757  
     114A      0.828196   115A      0.837446   116A      0.839926  
     117A      0.851208   118A      0.855469   119A      0.864222  
     120A      0.868296   121A      0.873263   122A      0.878602  
     123A      0.885968   124A      0.894370   125A      0.898144  
     126A      0.904693   127A      0.908439   128A      0.910395  
     129A      0.918243   130A      0.924903   131A      0.932205  
     132A      0.941811   133A      0.947303   134A      0.951938  
     135A      0.962071   136A      0.962422   137A      0.973001  
     138A      0.973879   139A      0.980989   140A      0.989403  
     141A      0.992130   142A      0.996293   143A      1.005849  
     144A      1.012731   145A      1.020790   146A      1.022806  
     147A      1.026884   148A      1.033355   149A      1.045041  
     150A      1.052605   151A      1.060717   152A      1.061576  
     153A      1.068145   154A      1.072413   155A      1.076811  
     156A      1.088103   157A      1.092008   158A      1.096591  
     159A      1.108148   160A      1.116786   161A      1.127549  
     162A      1.131841   163A      1.137144   164A      1.139255  
     165A      1.143089   166A      1.160336   167A      1.174358  
     168A      1.181792   169A      1.193229   170A      1.195742  
     171A      1.204510   172A      1.211254   173A      1.226003  
     174A      1.231518   175A      1.245155   176A      1.250997  
     177A      1.258292   178A      1.267489   179A      1.271686  
     180A      1.288438   181A      1.292281   182A      1.297377  
     183A      1.313877   184A      1.333561   185A      1.339253  
     186A      1.346526   187A      1.350260   188A      1.371165  
     189A      1.375750   190A      1.384570   191A      1.398273  
     192A      1.409725   193A      1.414458   194A      1.426027  
     195A      1.434695   196A      1.442444   197A      1.455946  
     198A      1.476482   199A      1.477591   200A      1.484498  
     201A      1.504828   202A      1.514001   203A      1.521459  
     204A      1.538412   205A      1.548049   206A      1.551394  
     207A      1.561479   208A      1.564401   209A      1.576732  
     210A      1.603323   211A      1.620537   212A      1.625150  
     213A      1.658178   214A      1.675917   215A      1.691264  
     216A      1.693234   217A      1.702971   218A      1.719094  
     219A      1.720071   220A      1.737526   221A      1.750185  
     222A      1.759141   223A      1.769357   224A      1.771516  
     225A      1.784846   226A      1.788499   227A      1.799428  
     228A      1.813671   229A      1.821834   230A      1.826012  
     231A      1.840846   232A      1.844107   233A      1.859763  
     234A      1.866456   235A      1.871503   236A      1.880355  
     237A      1.900125   238A      1.907361   239A      1.909964  
     240A      1.924247   241A      1.935955   242A      1.937600  
     243A      1.968468   244A      1.969768   245A      1.988817  
     246A      2.007469   247A      2.012557   248A      2.037206  
     249A      2.054848   250A      2.067671   251A      2.068025  
     252A      2.092037   253A      2.107698   254A      2.116778  
     255A      2.146489   256A      2.177114   257A      2.180200  
     258A      2.217940   259A      2.233131   260A      2.265849  
     261A      2.291901   262A      2.325859   263A      2.334974  
     264A      2.362208   265A      2.396006   266A      2.446035  
     267A      2.476961   268A      2.491465   269A      2.496487  
     270A      2.505192   271A      2.509922   272A      2.522898  
     273A      2.531718   274A      2.540577   275A      2.551241  
     276A      2.559266   277A      2.576688   278A      2.583505  
     279A      2.585602   280A      2.603445   281A      2.611485  
     282A      2.628825   283A      2.639601   284A      2.647207  
     285A      2.662382   286A      2.673996   287A      2.680762  
     288A      2.691626   289A      2.705334   290A      2.710996  
     291A      2.725540   292A      2.739680   293A      2.740803  
     294A      2.755357   295A      2.758408   296A      2.769019  
     297A      2.782818   298A      2.795495   299A      2.803797  
     300A      2.819685   301A      2.827318   302A      2.841114  
     303A      2.855749   304A      2.873162   305A      2.888791  
     306A      2.890593   307A      2.906304   308A      2.919342  
     309A      2.940179   310A      2.942880   311A      2.968415  
     312A      2.981636   313A      2.993058   314A      3.009201  
     315A      3.012949   316A      3.038319   317A      3.063121  
     318A      3.083514   319A      3.104809   320A      3.120932  
     321A      3.153473   322A      3.173554   323A      3.186385  
     324A      3.201904   325A      3.212039   326A      3.226983  
     327A      3.242545   328A      3.246493   329A      3.253668  
     330A      3.270550   331A      3.280843   332A      3.292901  
     333A      3.316597   334A      3.345154   335A      3.348471  
     336A      3.375397   337A      3.391667   338A      3.430329  
     339A      3.447967   340A      3.478089   341A      3.498820  
     342A      3.523840   343A      3.551577   344A      3.562007  
     345A      3.583058   346A      3.614275   347A      3.616033  
     348A      3.644115   349A      3.658136   350A      3.685736  
     351A      3.692188   352A      3.712041   353A      3.737980  
     354A      3.744070   355A      3.767552   356A      3.788308  
     357A      3.803641   358A      3.832102   359A      3.858605  
     360A      3.872849   361A      3.879208   362A      3.925132  
     363A      3.955638   364A      3.989647   365A      4.036137  
     366A      4.112036   367A      4.128738   368A      4.170447  
     369A      4.189622   370A      4.227613   371A      4.308473  
     372A      4.339139   373A      4.345708   374A      4.372245  
     375A      4.383432   376A      4.394361   377A      4.415600  
     378A      4.433735   379A      4.437117   380A      4.455478  
     381A      4.460365   382A      4.465988   383A      4.491656  
     384A      4.502065   385A      4.511749   386A      4.518378  
     387A      4.523657   388A      4.535699   389A      4.557301  
     390A      4.560566   391A      4.586179   392A      4.602021  
     393A      4.615850   394A      4.635066   395A      4.641024  
     396A      4.643152   397A      4.655454   398A      4.660230  
     399A      4.675317   400A      4.694822   401A      4.707074  
     402A      4.737363   403A      4.746883   404A      4.755712  
     405A      4.766218   406A      4.796696   407A      4.819478  
     408A      4.826746   409A      4.868618   410A      4.905907  
     411A      4.919237   412A      4.939740   413A      4.949974  
     414A      4.957227   415A      4.973194   416A      4.995930  
     417A      5.002285   418A      5.011403   419A      5.029696  
     420A      5.040275   421A      5.064919   422A      5.079372  
     423A      5.089381   424A      5.109048   425A      5.125215  
     426A      5.148999   427A      5.189021   428A      5.211569  
     429A      5.244315   430A      5.248833   431A      5.274627  
     432A      5.289489   433A      5.325248   434A      5.340076  
     435A      5.362179   436A      5.382772   437A      5.404897  
     438A      5.461878   439A      5.467526   440A      5.495288  
     441A      5.503820   442A      5.511703   443A      5.530145  
     444A      5.565361   445A      5.584605   446A      5.600400  
     447A      5.629429   448A      5.638876   449A      5.660528  
     450A      5.688332   451A      5.702977   452A      5.706287  
     453A      5.749573   454A      5.759486   455A      5.773534  
     456A      5.784065   457A      5.896442   458A      5.931682  
     459A      5.937649   460A      5.969258   461A      5.983006  
     462A      6.198404   463A      6.211071   464A      6.246487  
     465A      6.284870   466A      6.313157   467A      6.336086  
     468A      6.363221   469A      6.457450   470A      6.467976  
     471A      6.519428   472A      6.580213   473A      6.597270  
     474A      6.624185   475A      6.775103   476A      6.779708  
     477A      6.831529   478A      6.854565   479A      6.918678  
     480A      6.958940   481A      7.086771   482A      7.111310  
     483A      7.118740   484A      7.171512   485A      7.185309  
     486A      7.222391   487A      7.358553   488A      7.376954  
     489A      7.394647   490A      7.515218   491A      7.574258  
     492A      7.711195   493A      7.718057   494A      7.759430  
     495A      7.768907   496A      7.794920   497A      7.800275  
     498A      7.807890   499A      7.830630   500A      7.864539  
     501A      7.869012   502A      7.922061   503A      7.973619  
     504A      8.057969   505A      8.096738   506A      8.116939  
     507A      8.141192   508A      8.162779   509A      8.176555  
     510A      8.238827   511A      8.248165   512A      8.264926  
     513A      8.288945   514A      8.296750   515A      8.335879  
     516A      8.352314   517A      8.384024   518A      8.386592  
     519A      8.475055   520A      8.676227   521A      8.720440  
     522A      8.816065   523A      8.837956   524A      8.857107  
     525A      8.876530   526A      9.026390   527A      9.047142  
     528A      9.067732   529A      9.108298   530A      9.140624  
     531A      9.733848   532A      9.771704   533A      9.815504  
     534A      9.846729   535A      9.847179   536A      9.878576  
     537A      9.897470   538A      9.914269   539A      9.928133  
     540A      9.968449   541A     10.101189   542A     10.127976  
     543A     10.132382   544A     10.154545   545A     10.176427  
     546A     10.286728   547A     10.332798   548A     10.352762  
     549A     10.379831   550A     10.410171   551A     10.437789  
     552A     10.511645   553A     10.569961   554A     10.616773  
     555A     10.652970   556A     10.760107   557A     10.834721  
     558A     11.000313   559A     11.027108   560A     11.182303  
     561A     11.250580   562A     11.310066   563A     11.711031  
     564A     11.807810   565A     11.831948   566A     11.860522  
     567A     11.869391   568A     11.930624   569A     12.240922  
     570A     12.333501   571A     12.364766   572A     12.398403  
     573A     12.645565   574A     13.347065   575A     13.372094  
     576A     13.425774   577A     13.503987   578A     13.558845  
     579A     13.577368   580A     13.615993   581A     13.715202  
     582A     13.748666   583A     13.799174   584A     14.037422  
     585A     14.054154   586A     14.059732   587A     14.079069  
     588A     14.112940   589A     15.226131   590A     15.479199  
     591A     15.542767   592A     17.000444   593A     66.105845  
     594A     66.611906   595A     67.032797   596A     67.777844  
     597A     67.939184   598A     75.385892  

    Final Occupation by Irrep:
              A 
    DOCC [     5 ]
    NA   [     5 ]
    NB   [     5 ]

  @DF-RHF Final Energy:   -76.05898670695298

   => Energetics <=

    Nuclear Repulsion Energy =              9.2524400085874436
    One-Electron Energy =                -123.1602151507025837
    Two-Electron Energy =                  37.8487884351621702
    Total Energy =                        -76.0589867069529646

Computation Completed


Properties will be evaluated at   0.000000,   0.000000,   0.000000 [a0]

Properties computed using the SCF density matrix


 Multipole Moments:

 ------------------------------------------------------------------------------------
     Multipole            Electronic (a.u.)      Nuclear  (a.u.)        Total (a.u.)
 ------------------------------------------------------------------------------------

 L = 1.  Multiply by 2.5417464519 to convert [e a0] to [Debye]
 Dipole X            :          4.4796656           -4.4557115            0.0239541
 Dipole Y            :         39.7665369          -39.8621758           -0.0956389
 Dipole Z            :         34.1859532          -33.4624406            0.7235125
 Magnitude           :                                                    0.7301993

 ------------------------------------------------------------------------------------

*** tstop() called on ddmfs1 at Mon Jan 22 18:53:01 2024
Module time:
	user time   =     127.41 seconds =       2.12 minutes
	system time =       5.76 seconds =       0.10 minutes
	total time  =          8 seconds =       0.13 minutes
Total time:
	user time   =     127.41 seconds =       2.12 minutes
	system time =       5.76 seconds =       0.10 minutes
	total time  =          8 seconds =       0.13 minutes

*** tstart() called on ddmfs1
*** at Mon Jan 22 18:53:01 2024


  //>>>>>>>>>>>>>>>>>>>>>>>>>>>>>>>>>>>//
  //               DFMP2               //
  //<<<<<<<<<<<<<<<<<<<<<<<<<<<<<<<<<<<//

   => Loading Basis Set <=

    Name: (AUG-CC-PVTZ AUX)
    Role: RIFIT
    Keyword: DF_BASIS_MP2
    atoms 1                                   entry F          line   322 file /ddmfs1b/softs/psi4conda/share/psi4/basis/aug-cc-pvtz-ri.gbs 
    atoms 2, 5, 8, 11, 14, 17                 entry O          line   264 file /ddmfs1b/softs/psi4conda/share/psi4/basis/aug-cc-pvtz-ri.gbs 
    atoms 3-4, 6-7, 9-10, 12-13, 15-16, 18-19 entry H          line    30 file /ddmfs1b/softs/psi4conda/share/psi4/basis/aug-cc-pvtz-ri.gbs 

	 --------------------------------------------------------
	                          DF-MP2                         
	      2nd-Order Density-Fitted Moller-Plesset Theory     
	              RMP2 Wavefunction,  20 Threads             
	                                                         
	        Rob Parrish, Justin Turney, Andy Simmonett,      
	           Ed Hohenstein, and C. David Sherrill          
	 --------------------------------------------------------

   => Auxiliary Basis Set <=

  Basis Set: (AUG-CC-PVTZ AUX)
    Blend: AUG-CC-PVTZ-RI
    Number of shells: 364
    Number of basis functions: 1294
    Number of Cartesian functions: 1612
    Spherical Harmonics?: true
    Max angular momentum: 4

	 --------------------------------------------------------
	                 NBF =   598, NAUX =  1294
	 --------------------------------------------------------
	   CLASS    FOCC     OCC    AOCC    AVIR     VIR    FVIR
	   PAIRS       0       5       5     593     593       0
	 --------------------------------------------------------

	-----------------------------------------------------------
	 ==================> DF-MP2 Energies <==================== 
	-----------------------------------------------------------
	 Reference Energy          =     -76.0589867069529788 [Eh]
	 Singles Energy            =      -0.0000000000000000 [Eh]
	 Same-Spin Energy          =      -0.0682075962392678 [Eh]
	 Opposite-Spin Energy      =      -0.2152730291649001 [Eh]
	 Correlation Energy        =      -0.2834806254041680 [Eh]
	 Total Energy              =     -76.3424673323571454 [Eh]
	-----------------------------------------------------------
	 ================> DF-SCS-MP2 Energies <================== 
	-----------------------------------------------------------
	 SCS Same-Spin Scale       =       0.3333333333333333 [-]
	 SCS Opposite-Spin Scale   =       1.2000000000000000 [-]
	 SCS Same-Spin Energy      =      -0.0227358654130893 [Eh]
	 SCS Opposite-Spin Energy  =      -0.2583276349978801 [Eh]
	 SCS Correlation Energy    =      -0.2810635004109694 [Eh]
	 SCS Total Energy          =     -76.3400502073639444 [Eh]
	-----------------------------------------------------------


*** tstop() called on ddmfs1 at Mon Jan 22 18:53:06 2024
Module time:
	user time   =      32.89 seconds =       0.55 minutes
	system time =       1.85 seconds =       0.03 minutes
	total time  =          5 seconds =       0.08 minutes
Total time:
	user time   =     160.32 seconds =       2.67 minutes
	system time =       7.61 seconds =       0.13 minutes
	total time  =         13 seconds =       0.22 minutes

    Psi4 stopped on: Monday, 22 January 2024 06:53PM
    Psi4 wall time for execution: 0:00:13.27

*** Psi4 exiting successfully. Buy a developer a beer!
