
    -----------------------------------------------------------------------
          Psi4: An Open-Source Ab Initio Electronic Structure Package
                               Psi4 1.8.2 release

                         Git: Rev {} zzzzzzz 


    D. G. A. Smith, L. A. Burns, A. C. Simmonett, R. M. Parrish,
    M. C. Schieber, R. Galvelis, P. Kraus, H. Kruse, R. Di Remigio,
    A. Alenaizan, A. M. James, S. Lehtola, J. P. Misiewicz, M. Scheurer,
    R. A. Shaw, J. B. Schriber, Y. Xie, Z. L. Glick, D. A. Sirianni,
    J. S. O'Brien, J. M. Waldrop, A. Kumar, E. G. Hohenstein,
    B. P. Pritchard, B. R. Brooks, H. F. Schaefer III, A. Yu. Sokolov,
    K. Patkowski, A. E. DePrince III, U. Bozkaya, R. A. King,
    F. A. Evangelista, J. M. Turney, T. D. Crawford, C. D. Sherrill,
    J. Chem. Phys. 152(18) 184108 (2020). https://doi.org/10.1063/5.0006002

                            Additional Code Authors
    E. T. Seidl, C. L. Janssen, E. F. Valeev, M. L. Leininger,
    J. F. Gonthier, R. M. Richard, H. R. McAlexander, M. Saitow, X. Wang,
    P. Verma, M. H. Lechner, A. Jiang, S. Behnle, A. G. Heide,
    M. F. Herbst, and D. L. Poole

             Previous Authors, Complete List of Code Contributors,
                       and Citations for Specific Modules
    https://github.com/psi4/psi4/blob/master/codemeta.json
    https://github.com/psi4/psi4/graphs/contributors
    http://psicode.org/psi4manual/master/introduction.html#citing-psifour

    -----------------------------------------------------------------------


    Psi4 started on: Monday, 22 January 2024 06:23PM

    Process ID: 90131
    Host:       ddmfs1
    PSIDATADIR: /ddmfs1b/softs/psi4conda/share/psi4
    Memory:     500.0 MiB
    Threads:    20
    
  ==> Input File <==

--------------------------------------------------------------------------
MEMORY 60 GB

molecule dimer {
0 1
Gh(F)      0.000000     0.000000     0.000000
Gh(O)     -2.535941    -0.518749    -0.841397
Gh(H)     -2.920259     0.371723    -0.962405
Gh(H)     -1.599270    -0.369082    -0.662928
Gh(O)      1.559802     1.999498     1.426683
Gh(H)      1.052305     1.577903     0.700547
Gh(H)      2.485581     1.914871     1.234694
Gh(O)      1.354501    -1.676034    -1.827240
Gh(H)      2.081264    -1.020441    -1.804735
Gh(H)      0.735366    -1.229436    -1.225870
O          2.371662    -0.821742     1.847114
H          1.868561    -0.165946     1.393601
H          2.048718    -0.788545     2.707674
Gh(O)     -0.396813    -1.938838     2.239603
Gh(H)     -0.284999    -1.373573     1.502641
Gh(H)     -1.382193    -1.991135     2.209240
Gh(O)     -2.085558     1.288771     1.727221
Gh(H)     -1.503937     2.039451     1.584522
Gh(H)     -1.562251     0.562158     1.399159
Gh(O)     -0.164884     1.767301    -2.325383
Gh(H)     -0.793236     1.519173    -3.058380
Gh(H)     -0.020245     1.007979    -1.706815

units ang
no_reorient
no_com
symmetry c1
}

set {
basis        aug-cc-pVTZ
scf_type     df
}

energy("mp2")
--------------------------------------------------------------------------

  Memory set to  55.879 GiB by Python driver.

Scratch directory: /ddmfs1a/scratch/
   => Libint2 <=

    Primary   basis highest AM E, G, H:  5, 4, 3
    Auxiliary basis highest AM E, G, H:  6, 5, 4
    Onebody   basis highest AM E, G, H:  6, 5, 4
    Solid Harmonics ordering:            gaussian

*** tstart() called on ddmfs1
*** at Mon Jan 22 18:23:57 2024

   => Loading Basis Set <=

    Name: AUG-CC-PVTZ
    Role: ORBITAL
    Keyword: BASIS
    atoms 1                                          entry F          line   377 file /ddmfs1b/softs/psi4conda/share/psi4/basis/aug-cc-pvtz.gbs 
    atoms 2, 5, 8, 11, 14, 17, 20                    entry O          line   331 file /ddmfs1b/softs/psi4conda/share/psi4/basis/aug-cc-pvtz.gbs 
    atoms 3-4, 6-7, 9-10, 12-13, 15-16, 18-19, 21-22 entry H          line    40 file /ddmfs1b/softs/psi4conda/share/psi4/basis/aug-cc-pvtz.gbs 


         ---------------------------------------------------------
                                   SCF
               by Justin Turney, Rob Parrish, Andy Simmonett
                          and Daniel G. A. Smith
                              RHF Reference
                       20 Threads,  57220 MiB Core
         ---------------------------------------------------------

  ==> Geometry <==

    Molecular point group: c1
    Full point group: C1

    Geometry (in Angstrom), charge = 0, multiplicity = 1:

       Center              X                  Y                   Z               Mass       
    ------------   -----------------  -----------------  -----------------  -----------------
      Gh(F)           0.000000000000     0.000000000000     0.000000000000    18.998403162730
      Gh(O)          -2.535941000000    -0.518749000000    -0.841397000000    15.994914619570
      Gh(H)          -2.920259000000     0.371723000000    -0.962405000000     1.007825032230
      Gh(H)          -1.599270000000    -0.369082000000    -0.662928000000     1.007825032230
      Gh(O)           1.559802000000     1.999498000000     1.426683000000    15.994914619570
      Gh(H)           1.052305000000     1.577903000000     0.700547000000     1.007825032230
      Gh(H)           2.485581000000     1.914871000000     1.234694000000     1.007825032230
      Gh(O)           1.354501000000    -1.676034000000    -1.827240000000    15.994914619570
      Gh(H)           2.081264000000    -1.020441000000    -1.804735000000     1.007825032230
      Gh(H)           0.735366000000    -1.229436000000    -1.225870000000     1.007825032230
         O            2.371662000000    -0.821742000000     1.847114000000    15.994914619570
         H            1.868561000000    -0.165946000000     1.393601000000     1.007825032230
         H            2.048718000000    -0.788545000000     2.707674000000     1.007825032230
      Gh(O)          -0.396813000000    -1.938838000000     2.239603000000    15.994914619570
      Gh(H)          -0.284999000000    -1.373573000000     1.502641000000     1.007825032230
      Gh(H)          -1.382193000000    -1.991135000000     2.209240000000     1.007825032230
      Gh(O)          -2.085558000000     1.288771000000     1.727221000000    15.994914619570
      Gh(H)          -1.503937000000     2.039451000000     1.584522000000     1.007825032230
      Gh(H)          -1.562251000000     0.562158000000     1.399159000000     1.007825032230
      Gh(O)          -0.164884000000     1.767301000000    -2.325383000000    15.994914619570
      Gh(H)          -0.793236000000     1.519173000000    -3.058380000000     1.007825032230
      Gh(H)          -0.020245000000     1.007979000000    -1.706815000000     1.007825032230

  Running in c1 symmetry.

  Rotational constants: A =      0.02719  B =      0.02354  C =      0.02127 [cm^-1]
  Rotational constants: A =    815.25479  B =    705.82662  C =    637.75328 [MHz]
  Nuclear repulsion =    9.454208453336017

  Charge       = 0
  Multiplicity = 1
  Electrons    = 10
  Nalpha       = 5
  Nbeta        = 5

  ==> Algorithm <==

  SCF Algorithm Type is DF.
  DIIS enabled.
  MOM disabled.
  Fractional occupation disabled.
  Guess Type is SAD.
  Energy threshold   = 1.00e-08
  Density threshold  = 1.00e-08
  Integral threshold = 1.00e-12

  ==> Primary Basis <==

  Basis Set: AUG-CC-PVTZ
    Blend: AUG-CC-PVTZ
    Number of shells: 238
    Number of basis functions: 690
    Number of Cartesian functions: 790
    Spherical Harmonics?: true
    Max angular momentum: 3

   => Loading Basis Set <=

    Name: (AUG-CC-PVTZ AUX)
    Role: JKFIT
    Keyword: DF_BASIS_SCF
    atoms 1                                          entry F          line   348 file /ddmfs1b/softs/psi4conda/share/psi4/basis/aug-cc-pvtz-jkfit.gbs 
    atoms 2, 5, 8, 11, 14, 17, 20                    entry O          line   286 file /ddmfs1b/softs/psi4conda/share/psi4/basis/aug-cc-pvtz-jkfit.gbs 
    atoms 3-4, 6-7, 9-10, 12-13, 15-16, 18-19, 21-22 entry H          line    70 file /ddmfs1b/softs/psi4conda/share/psi4/basis/aug-cc-pvtz-jkfit.gbs 

  ==> Integral Setup <==

  DFHelper Memory: AOs need 4.809 GiB; user supplied 41.910 GiB. 
  Using in-core AOs.

  ==> MemDFJK: Density-Fitted J/K Matrices <==

    J tasked:                   Yes
    K tasked:                   Yes
    wK tasked:                   No
    OpenMP threads:              20
    Memory [MiB]:             42915
    Algorithm:                 Core
    Schwarz Cutoff:           1E-12
    Mask sparsity (%):      11.6471
    Fitting Condition:        1E-10

   => Auxiliary Basis Set <=

  Basis Set: (AUG-CC-PVTZ AUX)
    Blend: AUG-CC-PVTZ-JKFIT
    Number of shells: 436
    Number of basis functions: 1476
    Number of Cartesian functions: 1818
    Spherical Harmonics?: true
    Max angular momentum: 4

  Minimum eigenvalue in the overlap matrix is 1.9398663378E-05.
  Reciprocal condition number of the overlap matrix is 1.1361377173E-06.
    Using symmetric orthogonalization.

  ==> Pre-Iterations <==

  SCF Guess: Superposition of Atomic Densities via on-the-fly atomic UHF (no occupation information).

   -------------------------
    Irrep   Nso     Nmo    
   -------------------------
     A        690     690 
   -------------------------
    Total     690     690
   -------------------------

  ==> Iterations <==

                           Total Energy        Delta E     RMS |[F,P]|

   @DF-RHF iter SAD:   -75.50768150878561   -7.55077e+01   0.00000e+00 
   @DF-RHF iter   1:   -75.97698595139894   -4.69304e-01   6.84359e-04 DIIS/ADIIS
   @DF-RHF iter   2:   -76.03060509076377   -5.36191e-02   4.52295e-04 DIIS/ADIIS
   @DF-RHF iter   3:   -76.06019389220684   -2.95888e-02   3.05836e-05 DIIS
   @DF-RHF iter   4:   -76.06054837509072   -3.54483e-04   6.86013e-06 DIIS
   @DF-RHF iter   5:   -76.06056741821797   -1.90431e-05   1.51215e-06 DIIS
   @DF-RHF iter   6:   -76.06056889409737   -1.47588e-06   3.27518e-07 DIIS
   @DF-RHF iter   7:   -76.06056897171601   -7.76186e-08   6.12103e-08 DIIS
   @DF-RHF iter   8:   -76.06056897416326   -2.44725e-09   1.00260e-08 DIIS
   @DF-RHF iter   9:   -76.06056897421325   -4.99938e-11   2.31937e-09 DIIS
  Energy and wave function converged.


  ==> Post-Iterations <==

    Orbital Energies [Eh]
    ---------------------

    Doubly Occupied:                                                      

       1A    -20.562622     2A     -1.368123     3A     -0.730721  
       4A     -0.591299     5A     -0.512798  

    Virtual:                                                              

       6A      0.013795     7A      0.031408     8A      0.033367  
       9A      0.038384    10A      0.051962    11A      0.055828  
      12A      0.058382    13A      0.060404    14A      0.063162  
      15A      0.071212    16A      0.082867    17A      0.086828  
      18A      0.088449    19A      0.094809    20A      0.113585  
      21A      0.118805    22A      0.130711    23A      0.134721  
      24A      0.135937    25A      0.142294    26A      0.151524  
      27A      0.154606    28A      0.162105    29A      0.163811  
      30A      0.166937    31A      0.172328    32A      0.178806  
      33A      0.185636    34A      0.191454    35A      0.194189  
      36A      0.196179    37A      0.199448    38A      0.205321  
      39A      0.213861    40A      0.220575    41A      0.225821  
      42A      0.230688    43A      0.232632    44A      0.239212  
      45A      0.247872    46A      0.250417    47A      0.263833  
      48A      0.265014    49A      0.270684    50A      0.276351  
      51A      0.287103    52A      0.291102    53A      0.306038  
      54A      0.310657    55A      0.312350    56A      0.318952  
      57A      0.325994    58A      0.335000    59A      0.338617  
      60A      0.345491    61A      0.348801    62A      0.353885  
      63A      0.355860    64A      0.359459    65A      0.367320  
      66A      0.373955    67A      0.378711    68A      0.383085  
      69A      0.390294    70A      0.399267    71A      0.402973  
      72A      0.407240    73A      0.414809    74A      0.417946  
      75A      0.425106    76A      0.429545    77A      0.432696  
      78A      0.436730    79A      0.441872    80A      0.451166  
      81A      0.454001    82A      0.458258    83A      0.462405  
      84A      0.470569    85A      0.475855    86A      0.481635  
      87A      0.482092    88A      0.491025    89A      0.499303  
      90A      0.505452    91A      0.509105    92A      0.528206  
      93A      0.533217    94A      0.546528    95A      0.548505  
      96A      0.556919    97A      0.561101    98A      0.571144  
      99A      0.584357   100A      0.593894   101A      0.602959  
     102A      0.608806   103A      0.617638   104A      0.624079  
     105A      0.632727   106A      0.646515   107A      0.670848  
     108A      0.687640   109A      0.692997   110A      0.702224  
     111A      0.708506   112A      0.714018   113A      0.734472  
     114A      0.734918   115A      0.739739   116A      0.744905  
     117A      0.756942   118A      0.767447   119A      0.771436  
     120A      0.774439   121A      0.783134   122A      0.789170  
     123A      0.794225   124A      0.800722   125A      0.805313  
     126A      0.807022   127A      0.819335   128A      0.830084  
     129A      0.833916   130A      0.836949   131A      0.843603  
     132A      0.852122   133A      0.853341   134A      0.855590  
     135A      0.863603   136A      0.866630   137A      0.874002  
     138A      0.880405   139A      0.889617   140A      0.891621  
     141A      0.901827   142A      0.907609   143A      0.912420  
     144A      0.913999   145A      0.923188   146A      0.926307  
     147A      0.928623   148A      0.935177   149A      0.937287  
     150A      0.944306   151A      0.947089   152A      0.956919  
     153A      0.960780   154A      0.969645   155A      0.970651  
     156A      0.978430   157A      0.985335   158A      0.988056  
     159A      0.990616   160A      0.997288   161A      1.008005  
     162A      1.009591   163A      1.019006   164A      1.021675  
     165A      1.023826   166A      1.034251   167A      1.042213  
     168A      1.047438   169A      1.051039   170A      1.060593  
     171A      1.068410   172A      1.074834   173A      1.084293  
     174A      1.086234   175A      1.091576   176A      1.097841  
     177A      1.104621   178A      1.112522   179A      1.116668  
     180A      1.123782   181A      1.126801   182A      1.136413  
     183A      1.139690   184A      1.150563   185A      1.156330  
     186A      1.160703   187A      1.171014   188A      1.176493  
     189A      1.187638   190A      1.191254   191A      1.200378  
     192A      1.202704   193A      1.212361   194A      1.222607  
     195A      1.226220   196A      1.236723   197A      1.238690  
     198A      1.246586   199A      1.249491   200A      1.253444  
     201A      1.258074   202A      1.274289   203A      1.277691  
     204A      1.289615   205A      1.290834   206A      1.309803  
     207A      1.319972   208A      1.320585   209A      1.330297  
     210A      1.336404   211A      1.350502   212A      1.368573  
     213A      1.377209   214A      1.380283   215A      1.383578  
     216A      1.391849   217A      1.396648   218A      1.409766  
     219A      1.411658   220A      1.413424   221A      1.429027  
     222A      1.441902   223A      1.454131   224A      1.460584  
     225A      1.470604   226A      1.481535   227A      1.486061  
     228A      1.491044   229A      1.499971   230A      1.504271  
     231A      1.519159   232A      1.537663   233A      1.539226  
     234A      1.550368   235A      1.561323   236A      1.565042  
     237A      1.572010   238A      1.575602   239A      1.589433  
     240A      1.597323   241A      1.610697   242A      1.625617  
     243A      1.642243   244A      1.649465   245A      1.659983  
     246A      1.669184   247A      1.680728   248A      1.688144  
     249A      1.693877   250A      1.715388   251A      1.727548  
     252A      1.742481   253A      1.750516   254A      1.751710  
     255A      1.763319   256A      1.769977   257A      1.783896  
     258A      1.788503   259A      1.800310   260A      1.803353  
     261A      1.819261   262A      1.823136   263A      1.825475  
     264A      1.833368   265A      1.837682   266A      1.860106  
     267A      1.866342   268A      1.867413   269A      1.877993  
     270A      1.884258   271A      1.888843   272A      1.905828  
     273A      1.911744   274A      1.920052   275A      1.931857  
     276A      1.951530   277A      1.959210   278A      1.964632  
     279A      1.983329   280A      1.984687   281A      2.000363  
     282A      2.007206   283A      2.019587   284A      2.025912  
     285A      2.043940   286A      2.048418   287A      2.067132  
     288A      2.073634   289A      2.077215   290A      2.099069  
     291A      2.114541   292A      2.122785   293A      2.126820  
     294A      2.146934   295A      2.167810   296A      2.173683  
     297A      2.192159   298A      2.204350   299A      2.218759  
     300A      2.234498   301A      2.284404   302A      2.322339  
     303A      2.330632   304A      2.378429   305A      2.420912  
     306A      2.469137   307A      2.479710   308A      2.493662  
     309A      2.505225   310A      2.513395   311A      2.519411  
     312A      2.534280   313A      2.542701   314A      2.547835  
     315A      2.558606   316A      2.571539   317A      2.575146  
     318A      2.584288   319A      2.589556   320A      2.594432  
     321A      2.620010   322A      2.634976   323A      2.639208  
     324A      2.647826   325A      2.656115   326A      2.664444  
     327A      2.672431   328A      2.677436   329A      2.685775  
     330A      2.707221   331A      2.708869   332A      2.719934  
     333A      2.726242   334A      2.743157   335A      2.754713  
     336A      2.762872   337A      2.768480   338A      2.772426  
     339A      2.779077   340A      2.787410   341A      2.806548  
     342A      2.811483   343A      2.826803   344A      2.837120  
     345A      2.840698   346A      2.849538   347A      2.859176  
     348A      2.861840   349A      2.872375   350A      2.889547  
     351A      2.898138   352A      2.908971   353A      2.924423  
     354A      2.930789   355A      2.944592   356A      2.959516  
     357A      2.975703   358A      2.979113   359A      2.988736  
     360A      3.010218   361A      3.020682   362A      3.035400  
     363A      3.049015   364A      3.058812   365A      3.064043  
     366A      3.088249   367A      3.095533   368A      3.112879  
     369A      3.137951   370A      3.152545   371A      3.192287  
     372A      3.202372   373A      3.210173   374A      3.220109  
     375A      3.234765   376A      3.237551   377A      3.245870  
     378A      3.251201   379A      3.257545   380A      3.267521  
     381A      3.290875   382A      3.294012   383A      3.313281  
     384A      3.324547   385A      3.338079   386A      3.343761  
     387A      3.363785   388A      3.390588   389A      3.398118  
     390A      3.432777   391A      3.450781   392A      3.454815  
     393A      3.466936   394A      3.498943   395A      3.513388  
     396A      3.545838   397A      3.555327   398A      3.570751  
     399A      3.596246   400A      3.609455   401A      3.617304  
     402A      3.632565   403A      3.658735   404A      3.670115  
     405A      3.685969   406A      3.691685   407A      3.703343  
     408A      3.721589   409A      3.738103   410A      3.787695  
     411A      3.810880   412A      3.818931   413A      3.830205  
     414A      3.847710   415A      3.864935   416A      3.898879  
     417A      3.917090   418A      3.937136   419A      3.970989  
     420A      3.985566   421A      4.049229   422A      4.103202  
     423A      4.126617   424A      4.144985   425A      4.200716  
     426A      4.215841   427A      4.250861   428A      4.270934  
     429A      4.331871   430A      4.342053   431A      4.359670  
     432A      4.379423   433A      4.418330   434A      4.424651  
     435A      4.442916   436A      4.454811   437A      4.466909  
     438A      4.479145   439A      4.485747   440A      4.496505  
     441A      4.503611   442A      4.512787   443A      4.527424  
     444A      4.530840   445A      4.536207   446A      4.553314  
     447A      4.560965   448A      4.570576   449A      4.584752  
     450A      4.604512   451A      4.614773   452A      4.625501  
     453A      4.635720   454A      4.657504   455A      4.665495  
     456A      4.672440   457A      4.687488   458A      4.706637  
     459A      4.707557   460A      4.710952   461A      4.735228  
     462A      4.744082   463A      4.753894   464A      4.776912  
     465A      4.792822   466A      4.797703   467A      4.833277  
     468A      4.849001   469A      4.854246   470A      4.883279  
     471A      4.903653   472A      4.916945   473A      4.924813  
     474A      4.942928   475A      4.955479   476A      4.964632  
     477A      4.969005   478A      4.992250   479A      4.994976  
     480A      5.006447   481A      5.025418   482A      5.042560  
     483A      5.056803   484A      5.073238   485A      5.084292  
     486A      5.086029   487A      5.102537   488A      5.135160  
     489A      5.137804   490A      5.159091   491A      5.170624  
     492A      5.192738   493A      5.220292   494A      5.237905  
     495A      5.274632   496A      5.283298   497A      5.288905  
     498A      5.305822   499A      5.341482   500A      5.348939  
     501A      5.394142   502A      5.418595   503A      5.431707  
     504A      5.439628   505A      5.456855   506A      5.466105  
     507A      5.517755   508A      5.539002   509A      5.577368  
     510A      5.600088   511A      5.600806   512A      5.620087  
     513A      5.630568   514A      5.648213   515A      5.660396  
     516A      5.663571   517A      5.679728   518A      5.683312  
     519A      5.692136   520A      5.709079   521A      5.729219  
     522A      5.752787   523A      5.756637   524A      5.805286  
     525A      5.817310   526A      5.831994   527A      5.879080  
     528A      5.930056   529A      5.968800   530A      5.981015  
     531A      6.032290   532A      6.045825   533A      6.195881  
     534A      6.206524   535A      6.223247   536A      6.232098  
     537A      6.282900   538A      6.353833   539A      6.373834  
     540A      6.376270   541A      6.385718   542A      6.416554  
     543A      6.513771   544A      6.537233   545A      6.588911  
     546A      6.640258   547A      6.681550   548A      6.715585  
     549A      6.744365   550A      6.768300   551A      6.789757  
     552A      6.884072   553A      6.897522   554A      7.008819  
     555A      7.097596   556A      7.108203   557A      7.121122  
     558A      7.145665   559A      7.183894   560A      7.207870  
     561A      7.249556   562A      7.410015   563A      7.449358  
     564A      7.484100   565A      7.497835   566A      7.671409  
     567A      7.740053   568A      7.769248   569A      7.794329  
     570A      7.804512   571A      7.816411   572A      7.828969  
     573A      7.846284   574A      7.858982   575A      7.901710  
     576A      7.929015   577A      7.959977   578A      7.970383  
     579A      8.016532   580A      8.043072   581A      8.094510  
     582A      8.100887   583A      8.117319   584A      8.133790  
     585A      8.154645   586A      8.172041   587A      8.187069  
     588A      8.202792   589A      8.242489   590A      8.254012  
     591A      8.277748   592A      8.293123   593A      8.297321  
     594A      8.309353   595A      8.320001   596A      8.358132  
     597A      8.368204   598A      8.379866   599A      8.395597  
     600A      8.666140   601A      8.754945   602A      8.789804  
     603A      8.821638   604A      8.855445   605A      8.863373  
     606A      8.926018   607A      8.981876   608A      9.007744  
     609A      9.033701   610A      9.055989   611A      9.087456  
     612A      9.157827   613A      9.750694   614A      9.814660  
     615A      9.821767   616A      9.842086   617A      9.885228  
     618A      9.893181   619A      9.908334   620A      9.927384  
     621A      9.941085   622A      9.950463   623A      9.967091  
     624A      9.981550   625A     10.076174   626A     10.115811  
     627A     10.137329   628A     10.150059   629A     10.153913  
     630A     10.201610   631A     10.264114   632A     10.295436  
     633A     10.361875   634A     10.374979   635A     10.405466  
     636A     10.427136   637A     10.470336   638A     10.534965  
     639A     10.587433   640A     10.606391   641A     10.642779  
     642A     10.740328   643A     10.813460   644A     11.003209  
     645A     11.165838   646A     11.182784   647A     11.247305  
     648A     11.268093   649A     11.292702   650A     11.597907  
     651A     11.845712   652A     11.867775   653A     11.886090  
     654A     11.916264   655A     11.987344   656A     11.989024  
     657A     12.046734   658A     12.215936   659A     12.251623  
     660A     12.295234   661A     12.480319   662A     12.649656  
     663A     13.326275   664A     13.377419   665A     13.458912  
     666A     13.477823   667A     13.619187   668A     13.640540  
     669A     13.705332   670A     13.745424   671A     13.772646  
     672A     13.798839   673A     13.806990   674A     13.993877  
     675A     14.004115   676A     14.027130   677A     14.074445  
     678A     14.137760   679A     14.162922   680A     15.305067  
     681A     15.401712   682A     15.467466   683A     18.052886  
     684A     65.071952   685A     66.474300   686A     66.691807  
     687A     67.075124   688A     67.591820   689A     68.429446  
     690A     75.010027  

    Final Occupation by Irrep:
              A 
    DOCC [     5 ]
    NA   [     5 ]
    NB   [     5 ]

  @DF-RHF Final Energy:   -76.06056897421325

   => Energetics <=

    Nuclear Repulsion Energy =              9.4542084533360171
    One-Electron Energy =                -123.4984258931718273
    Two-Electron Energy =                  37.9836484656225508
    Total Energy =                        -76.0605689742132540

Computation Completed


Properties will be evaluated at   0.000000,   0.000000,   0.000000 [a0]

Properties computed using the SCF density matrix


 Multipole Moments:

 ------------------------------------------------------------------------------------
     Multipole            Electronic (a.u.)      Nuclear  (a.u.)        Total (a.u.)
 ------------------------------------------------------------------------------------

 L = 1.  Multiply by 2.5417464519 to convert [e a0] to [Debye]
 Dipole X            :        -43.8136736           43.2569176           -0.5567560
 Dipole Y            :         14.6899368          -14.2266652            0.4632716
 Dipole Z            :        -35.3964866           35.6746032            0.2781165
 Magnitude           :                                                    0.7758522

 ------------------------------------------------------------------------------------

*** tstop() called on ddmfs1 at Mon Jan 22 18:24:09 2024
Module time:
	user time   =     184.04 seconds =       3.07 minutes
	system time =       8.30 seconds =       0.14 minutes
	total time  =         12 seconds =       0.20 minutes
Total time:
	user time   =     184.04 seconds =       3.07 minutes
	system time =       8.30 seconds =       0.14 minutes
	total time  =         12 seconds =       0.20 minutes

*** tstart() called on ddmfs1
*** at Mon Jan 22 18:24:09 2024


  //>>>>>>>>>>>>>>>>>>>>>>>>>>>>>>>>>>>//
  //               DFMP2               //
  //<<<<<<<<<<<<<<<<<<<<<<<<<<<<<<<<<<<//

   => Loading Basis Set <=

    Name: (AUG-CC-PVTZ AUX)
    Role: RIFIT
    Keyword: DF_BASIS_MP2
    atoms 1                                          entry F          line   322 file /ddmfs1b/softs/psi4conda/share/psi4/basis/aug-cc-pvtz-ri.gbs 
    atoms 2, 5, 8, 11, 14, 17, 20                    entry O          line   264 file /ddmfs1b/softs/psi4conda/share/psi4/basis/aug-cc-pvtz-ri.gbs 
    atoms 3-4, 6-7, 9-10, 12-13, 15-16, 18-19, 21-22 entry H          line    30 file /ddmfs1b/softs/psi4conda/share/psi4/basis/aug-cc-pvtz-ri.gbs 

	 --------------------------------------------------------
	                          DF-MP2                         
	      2nd-Order Density-Fitted Moller-Plesset Theory     
	              RMP2 Wavefunction,  20 Threads             
	                                                         
	        Rob Parrish, Justin Turney, Andy Simmonett,      
	           Ed Hohenstein, and C. David Sherrill          
	 --------------------------------------------------------

   => Auxiliary Basis Set <=

  Basis Set: (AUG-CC-PVTZ AUX)
    Blend: AUG-CC-PVTZ-RI
    Number of shells: 420
    Number of basis functions: 1492
    Number of Cartesian functions: 1858
    Spherical Harmonics?: true
    Max angular momentum: 4

	 --------------------------------------------------------
	                 NBF =   690, NAUX =  1492
	 --------------------------------------------------------
	   CLASS    FOCC     OCC    AOCC    AVIR     VIR    FVIR
	   PAIRS       0       5       5     685     685       0
	 --------------------------------------------------------

	-----------------------------------------------------------
	 ==================> DF-MP2 Energies <==================== 
	-----------------------------------------------------------
	 Reference Energy          =     -76.0605689742132540 [Eh]
	 Singles Energy            =      -0.0000000000000000 [Eh]
	 Same-Spin Energy          =      -0.0679935375145253 [Eh]
	 Opposite-Spin Energy      =      -0.2149416155425110 [Eh]
	 Correlation Energy        =      -0.2829351530570363 [Eh]
	 Total Energy              =     -76.3435041272702932 [Eh]
	-----------------------------------------------------------
	 ================> DF-SCS-MP2 Energies <================== 
	-----------------------------------------------------------
	 SCS Same-Spin Scale       =       0.3333333333333333 [-]
	 SCS Opposite-Spin Scale   =       1.2000000000000000 [-]
	 SCS Same-Spin Energy      =      -0.0226645125048418 [Eh]
	 SCS Opposite-Spin Energy  =      -0.2579299386510132 [Eh]
	 SCS Correlation Energy    =      -0.2805944511558550 [Eh]
	 SCS Total Energy          =     -76.3411634253691034 [Eh]
	-----------------------------------------------------------


*** tstop() called on ddmfs1 at Mon Jan 22 18:24:16 2024
Module time:
	user time   =      43.62 seconds =       0.73 minutes
	system time =       2.61 seconds =       0.04 minutes
	total time  =          7 seconds =       0.12 minutes
Total time:
	user time   =     227.68 seconds =       3.79 minutes
	system time =      10.91 seconds =       0.18 minutes
	total time  =         19 seconds =       0.32 minutes

    Psi4 stopped on: Monday, 22 January 2024 06:24PM
    Psi4 wall time for execution: 0:00:19.05

*** Psi4 exiting successfully. Buy a developer a beer!
