
    -----------------------------------------------------------------------
          Psi4: An Open-Source Ab Initio Electronic Structure Package
                               Psi4 1.8.2 release

                         Git: Rev {} zzzzzzz 


    D. G. A. Smith, L. A. Burns, A. C. Simmonett, R. M. Parrish,
    M. C. Schieber, R. Galvelis, P. Kraus, H. Kruse, R. Di Remigio,
    A. Alenaizan, A. M. James, S. Lehtola, J. P. Misiewicz, M. Scheurer,
    R. A. Shaw, J. B. Schriber, Y. Xie, Z. L. Glick, D. A. Sirianni,
    J. S. O'Brien, J. M. Waldrop, A. Kumar, E. G. Hohenstein,
    B. P. Pritchard, B. R. Brooks, H. F. Schaefer III, A. Yu. Sokolov,
    K. Patkowski, A. E. DePrince III, U. Bozkaya, R. A. King,
    F. A. Evangelista, J. M. Turney, T. D. Crawford, C. D. Sherrill,
    J. Chem. Phys. 152(18) 184108 (2020). https://doi.org/10.1063/5.0006002

                            Additional Code Authors
    E. T. Seidl, C. L. Janssen, E. F. Valeev, M. L. Leininger,
    J. F. Gonthier, R. M. Richard, H. R. McAlexander, M. Saitow, X. Wang,
    P. Verma, M. H. Lechner, A. Jiang, S. Behnle, A. G. Heide,
    M. F. Herbst, and D. L. Poole

             Previous Authors, Complete List of Code Contributors,
                       and Citations for Specific Modules
    https://github.com/psi4/psi4/blob/master/codemeta.json
    https://github.com/psi4/psi4/graphs/contributors
    http://psicode.org/psi4manual/master/introduction.html#citing-psifour

    -----------------------------------------------------------------------


    Psi4 started on: Monday, 22 January 2024 06:38PM

    Process ID: 91771
    Host:       ddmfs1
    PSIDATADIR: /ddmfs1b/softs/psi4conda/share/psi4
    Memory:     500.0 MiB
    Threads:    20
    
  ==> Input File <==

--------------------------------------------------------------------------
MEMORY 60 GB

molecule dimer {
0 1
Gh(F)      0.000000     0.000000     0.000000
Gh(O)     -2.498532    -0.881431    -0.464596
Gh(H)     -3.244844    -0.373050    -0.742977
Gh(H)     -1.787443    -0.231783    -0.439473
Gh(O)      0.821961    -0.941013    -2.487806
Gh(H)      0.553219    -0.751966    -1.546993
Gh(H)      0.984333    -1.880222    -2.681248
Gh(O)      2.741876     1.268113     0.623068
Gh(H)      1.805546     0.967787     0.731277
Gh(H)      2.912001     1.778305     1.404663
Gh(O)      0.039880    -2.040644     1.862439
Gh(H)     -0.844297    -2.487575     1.683009
Gh(H)      0.092425    -1.237739     1.280131
O         -0.422554     1.200836     2.437095
H         -0.724798     2.111332     2.489843
H         -0.282246     0.936943     1.519701

units ang
no_reorient
no_com
symmetry c1
}

set {
basis        aug-cc-pVTZ
scf_type     df
}

energy("mp2")
--------------------------------------------------------------------------

  Memory set to  55.879 GiB by Python driver.

Scratch directory: /ddmfs1a/scratch/
   => Libint2 <=

    Primary   basis highest AM E, G, H:  5, 4, 3
    Auxiliary basis highest AM E, G, H:  6, 5, 4
    Onebody   basis highest AM E, G, H:  6, 5, 4
    Solid Harmonics ordering:            gaussian

*** tstart() called on ddmfs1
*** at Mon Jan 22 18:38:54 2024

   => Loading Basis Set <=

    Name: AUG-CC-PVTZ
    Role: ORBITAL
    Keyword: BASIS
    atoms 1                            entry F          line   377 file /ddmfs1b/softs/psi4conda/share/psi4/basis/aug-cc-pvtz.gbs 
    atoms 2, 5, 8, 11, 14              entry O          line   331 file /ddmfs1b/softs/psi4conda/share/psi4/basis/aug-cc-pvtz.gbs 
    atoms 3-4, 6-7, 9-10, 12-13, 15-16 entry H          line    40 file /ddmfs1b/softs/psi4conda/share/psi4/basis/aug-cc-pvtz.gbs 


         ---------------------------------------------------------
                                   SCF
               by Justin Turney, Rob Parrish, Andy Simmonett
                          and Daniel G. A. Smith
                              RHF Reference
                       20 Threads,  57220 MiB Core
         ---------------------------------------------------------

  ==> Geometry <==

    Molecular point group: c1
    Full point group: C1

    Geometry (in Angstrom), charge = 0, multiplicity = 1:

       Center              X                  Y                   Z               Mass       
    ------------   -----------------  -----------------  -----------------  -----------------
      Gh(F)           0.000000000000     0.000000000000     0.000000000000    18.998403162730
      Gh(O)          -2.498532000000    -0.881431000000    -0.464596000000    15.994914619570
      Gh(H)          -3.244844000000    -0.373050000000    -0.742977000000     1.007825032230
      Gh(H)          -1.787443000000    -0.231783000000    -0.439473000000     1.007825032230
      Gh(O)           0.821961000000    -0.941013000000    -2.487806000000    15.994914619570
      Gh(H)           0.553219000000    -0.751966000000    -1.546993000000     1.007825032230
      Gh(H)           0.984333000000    -1.880222000000    -2.681248000000     1.007825032230
      Gh(O)           2.741876000000     1.268113000000     0.623068000000    15.994914619570
      Gh(H)           1.805546000000     0.967787000000     0.731277000000     1.007825032230
      Gh(H)           2.912001000000     1.778305000000     1.404663000000     1.007825032230
      Gh(O)           0.039880000000    -2.040644000000     1.862439000000    15.994914619570
      Gh(H)          -0.844297000000    -2.487575000000     1.683009000000     1.007825032230
      Gh(H)           0.092425000000    -1.237739000000     1.280131000000     1.007825032230
         O           -0.422554000000     1.200836000000     2.437095000000    15.994914619570
         H           -0.724798000000     2.111332000000     2.489843000000     1.007825032230
         H           -0.282246000000     0.936943000000     1.519701000000     1.007825032230

  Running in c1 symmetry.

  Rotational constants: A =      0.04368  B =      0.03879  C =      0.02804 [cm^-1]
  Rotational constants: A =   1309.37263  B =   1163.00626  C =    840.70325 [MHz]
  Nuclear repulsion =    9.127377269683773

  Charge       = 0
  Multiplicity = 1
  Electrons    = 10
  Nalpha       = 5
  Nbeta        = 5

  ==> Algorithm <==

  SCF Algorithm Type is DF.
  DIIS enabled.
  MOM disabled.
  Fractional occupation disabled.
  Guess Type is SAD.
  Energy threshold   = 1.00e-08
  Density threshold  = 1.00e-08
  Integral threshold = 1.00e-12

  ==> Primary Basis <==

  Basis Set: AUG-CC-PVTZ
    Blend: AUG-CC-PVTZ
    Number of shells: 174
    Number of basis functions: 506
    Number of Cartesian functions: 580
    Spherical Harmonics?: true
    Max angular momentum: 3

   => Loading Basis Set <=

    Name: (AUG-CC-PVTZ AUX)
    Role: JKFIT
    Keyword: DF_BASIS_SCF
    atoms 1                            entry F          line   348 file /ddmfs1b/softs/psi4conda/share/psi4/basis/aug-cc-pvtz-jkfit.gbs 
    atoms 2, 5, 8, 11, 14              entry O          line   286 file /ddmfs1b/softs/psi4conda/share/psi4/basis/aug-cc-pvtz-jkfit.gbs 
    atoms 3-4, 6-7, 9-10, 12-13, 15-16 entry H          line    70 file /ddmfs1b/softs/psi4conda/share/psi4/basis/aug-cc-pvtz-jkfit.gbs 

  ==> Integral Setup <==

  DFHelper Memory: AOs need 1.945 GiB; user supplied 41.910 GiB. 
  Using in-core AOs.

  ==> MemDFJK: Density-Fitted J/K Matrices <==

    J tasked:                   Yes
    K tasked:                   Yes
    wK tasked:                   No
    OpenMP threads:              20
    Memory [MiB]:             42915
    Algorithm:                 Core
    Schwarz Cutoff:           1E-12
    Mask sparsity (%):      10.7008
    Fitting Condition:        1E-10

   => Auxiliary Basis Set <=

  Basis Set: (AUG-CC-PVTZ AUX)
    Blend: AUG-CC-PVTZ-JKFIT
    Number of shells: 320
    Number of basis functions: 1084
    Number of Cartesian functions: 1336
    Spherical Harmonics?: true
    Max angular momentum: 4

  Minimum eigenvalue in the overlap matrix is 5.5516025013E-05.
  Reciprocal condition number of the overlap matrix is 4.1408407760E-06.
    Using symmetric orthogonalization.

  ==> Pre-Iterations <==

  SCF Guess: Superposition of Atomic Densities via on-the-fly atomic UHF (no occupation information).

   -------------------------
    Irrep   Nso     Nmo    
   -------------------------
     A        506     506 
   -------------------------
    Total     506     506
   -------------------------

  ==> Iterations <==

                           Total Energy        Delta E     RMS |[F,P]|

   @DF-RHF iter SAD:   -75.46553031696945   -7.54655e+01   0.00000e+00 
   @DF-RHF iter   1:   -75.97572824721759   -5.10198e-01   9.25415e-04 DIIS/ADIIS
   @DF-RHF iter   2:   -76.02787295105776   -5.21447e-02   6.29627e-04 DIIS/ADIIS
   @DF-RHF iter   3:   -76.05914238435417   -3.12694e-02   4.27906e-05 DIIS
   @DF-RHF iter   4:   -76.05954215813129   -3.99774e-04   1.03664e-05 DIIS
   @DF-RHF iter   5:   -76.05956753902773   -2.53809e-05   2.35444e-06 DIIS
   @DF-RHF iter   6:   -76.05956965957922   -2.12055e-06   5.31496e-07 DIIS
   @DF-RHF iter   7:   -76.05956977989426   -1.20315e-07   1.02195e-07 DIIS
   @DF-RHF iter   8:   -76.05956978382628   -3.93202e-09   1.68199e-08 DIIS
   @DF-RHF iter   9:   -76.05956978391136   -8.50804e-11   4.22922e-09 DIIS
  Energy and wave function converged.


  ==> Post-Iterations <==

    Orbital Energies [Eh]
    ---------------------

    Doubly Occupied:                                                      

       1A    -20.565109     2A     -1.346216     3A     -0.726493  
       4A     -0.571397     5A     -0.507915  

    Virtual:                                                              

       6A      0.016916     7A      0.033465     8A      0.035488  
       9A      0.044680    10A      0.049913    11A      0.056260  
      12A      0.068914    13A      0.076772    14A      0.086354  
      15A      0.096521    16A      0.104097    17A      0.125190  
      18A      0.135017    19A      0.136964    20A      0.144925  
      21A      0.145791    22A      0.151870    23A      0.154745  
      24A      0.159461    25A      0.161855    26A      0.173180  
      27A      0.178624    28A      0.191766    29A      0.193137  
      30A      0.200520    31A      0.204245    32A      0.211203  
      33A      0.215573    34A      0.224145    35A      0.240800  
      36A      0.256488    37A      0.261607    38A      0.263296  
      39A      0.282020    40A      0.290825    41A      0.295857  
      42A      0.312702    43A      0.314891    44A      0.316826  
      45A      0.325714    46A      0.326398    47A      0.329016  
      48A      0.342908    49A      0.355537    50A      0.358816  
      51A      0.361524    52A      0.366145    53A      0.373299  
      54A      0.376787    55A      0.384895    56A      0.387910  
      57A      0.394065    58A      0.402738    59A      0.405862  
      60A      0.413719    61A      0.425488    62A      0.431612  
      63A      0.445217    64A      0.447687    65A      0.455608  
      66A      0.462937    67A      0.469203    68A      0.483528  
      69A      0.497409    70A      0.513110    71A      0.519369  
      72A      0.529142    73A      0.546150    74A      0.566563  
      75A      0.580086    76A      0.587964    77A      0.620674  
      78A      0.622505    79A      0.648884    80A      0.656456  
      81A      0.670624    82A      0.700227    83A      0.702405  
      84A      0.711708    85A      0.720596    86A      0.735088  
      87A      0.738150    88A      0.746741    89A      0.750578  
      90A      0.763943    91A      0.773474    92A      0.777090  
      93A      0.783475    94A      0.791146    95A      0.799073  
      96A      0.802534    97A      0.807913    98A      0.813027  
      99A      0.822849   100A      0.829640   101A      0.840635  
     102A      0.844171   103A      0.845292   104A      0.856050  
     105A      0.860288   106A      0.864584   107A      0.871844  
     108A      0.876252   109A      0.880176   110A      0.892646  
     111A      0.899671   112A      0.903517   113A      0.911928  
     114A      0.916068   115A      0.923423   116A      0.941824  
     117A      0.945111   118A      0.958276   119A      0.960660  
     120A      0.972277   121A      0.978435   122A      0.987982  
     123A      0.990709   124A      1.001689   125A      1.004658  
     126A      1.010137   127A      1.018327   128A      1.025500  
     129A      1.028986   130A      1.034414   131A      1.044215  
     132A      1.047445   133A      1.053031   134A      1.059114  
     135A      1.061225   136A      1.067450   137A      1.074741  
     138A      1.085646   139A      1.091454   140A      1.102306  
     141A      1.107197   142A      1.116366   143A      1.120842  
     144A      1.139477   145A      1.154352   146A      1.157463  
     147A      1.168548   148A      1.175399   149A      1.191650  
     150A      1.194352   151A      1.216324   152A      1.225804  
     153A      1.233941   154A      1.244659   155A      1.252000  
     156A      1.277528   157A      1.291542   158A      1.305820  
     159A      1.317842   160A      1.321461   161A      1.337001  
     162A      1.349302   163A      1.357443   164A      1.371387  
     165A      1.382789   166A      1.399064   167A      1.406118  
     168A      1.411393   169A      1.441623   170A      1.454131  
     171A      1.468091   172A      1.475666   173A      1.503849  
     174A      1.514564   175A      1.534174   176A      1.538222  
     177A      1.548576   178A      1.579297   179A      1.597448  
     180A      1.623890   181A      1.641442   182A      1.652623  
     183A      1.670322   184A      1.686092   185A      1.693866  
     186A      1.714708   187A      1.717088   188A      1.727446  
     189A      1.734376   190A      1.736486   191A      1.742930  
     192A      1.751246   193A      1.771813   194A      1.773933  
     195A      1.781893   196A      1.793359   197A      1.815321  
     198A      1.837292   199A      1.843570   200A      1.859887  
     201A      1.865536   202A      1.882465   203A      1.888518  
     204A      1.901095   205A      1.905461   206A      1.924073  
     207A      1.938800   208A      1.946421   209A      1.965308  
     210A      2.008142   211A      2.015215   212A      2.023852  
     213A      2.036779   214A      2.053164   215A      2.060094  
     216A      2.143186   217A      2.160678   218A      2.199033  
     219A      2.237611   220A      2.270483   221A      2.308221  
     222A      2.330129   223A      2.374330   224A      2.430996  
     225A      2.442581   226A      2.468085   227A      2.475656  
     228A      2.478601   229A      2.484280   230A      2.490800  
     231A      2.509888   232A      2.512873   233A      2.520641  
     234A      2.533260   235A      2.546398   236A      2.549604  
     237A      2.561672   238A      2.568185   239A      2.581315  
     240A      2.589593   241A      2.602983   242A      2.617559  
     243A      2.628794   244A      2.642986   245A      2.651003  
     246A      2.667237   247A      2.673121   248A      2.687608  
     249A      2.698012   250A      2.708782   251A      2.720638  
     252A      2.731673   253A      2.749661   254A      2.763773  
     255A      2.789240   256A      2.792809   257A      2.802446  
     258A      2.809543   259A      2.844238   260A      2.848256  
     261A      2.863557   262A      2.912916   263A      2.921261  
     264A      2.926329   265A      2.953787   266A      2.983571  
     267A      3.041409   268A      3.052458   269A      3.066763  
     270A      3.081217   271A      3.143857   272A      3.169773  
     273A      3.179572   274A      3.191421   275A      3.201395  
     276A      3.221523   277A      3.234284   278A      3.244398  
     279A      3.254267   280A      3.265658   281A      3.289636  
     282A      3.319317   283A      3.328160   284A      3.371676  
     285A      3.383613   286A      3.404502   287A      3.429109  
     288A      3.458256   289A      3.465996   290A      3.481585  
     291A      3.521802   292A      3.532413   293A      3.552588  
     294A      3.576006   295A      3.607327   296A      3.614169  
     297A      3.662285   298A      3.667958   299A      3.680654  
     300A      3.690097   301A      3.718502   302A      3.737692  
     303A      3.778829   304A      3.813588   305A      3.834843  
     306A      3.853786   307A      3.893671   308A      4.054283  
     309A      4.078087   310A      4.104102   311A      4.132613  
     312A      4.154080   313A      4.181965   314A      4.210758  
     315A      4.257100   316A      4.264550   317A      4.335651  
     318A      4.348502   319A      4.360980   320A      4.378702  
     321A      4.407492   322A      4.421478   323A      4.441359  
     324A      4.454499   325A      4.459151   326A      4.467392  
     327A      4.485751   328A      4.497758   329A      4.500613  
     330A      4.512458   331A      4.539561   332A      4.554555  
     333A      4.567212   334A      4.584929   335A      4.599849  
     336A      4.606432   337A      4.614415   338A      4.625769  
     339A      4.645334   340A      4.661404   341A      4.701517  
     342A      4.719183   343A      4.731375   344A      4.755822  
     345A      4.781893   346A      4.811298   347A      4.852251  
     348A      4.880880   349A      4.895369   350A      4.900397  
     351A      4.917885   352A      4.936829   353A      4.953093  
     354A      4.963322   355A      4.973401   356A      4.987860  
     357A      5.010239   358A      5.023372   359A      5.055040  
     360A      5.067981   361A      5.109127   362A      5.138796  
     363A      5.166253   364A      5.190477   365A      5.203953  
     366A      5.245798   367A      5.273471   368A      5.336798  
     369A      5.367981   370A      5.412574   371A      5.431007  
     372A      5.449188   373A      5.479928   374A      5.510950  
     375A      5.526544   376A      5.539751   377A      5.554088  
     378A      5.572870   379A      5.606601   380A      5.624901  
     381A      5.658010   382A      5.667750   383A      5.682960  
     384A      5.707121   385A      5.737052   386A      5.770451  
     387A      5.870222   388A      5.896768   389A      5.923813  
     390A      5.954668   391A      6.166599   392A      6.187926  
     393A      6.221039   394A      6.257757   395A      6.314129  
     396A      6.371173   397A      6.410648   398A      6.490463  
     399A      6.582912   400A      6.630120   401A      6.660791  
     402A      6.687188   403A      6.739371   404A      6.813227  
     405A      6.845642   406A      6.946749   407A      6.999235  
     408A      7.045061   409A      7.098004   410A      7.142989  
     411A      7.198577   412A      7.324431   413A      7.364520  
     414A      7.429663   415A      7.524189   416A      7.573664  
     417A      7.673629   418A      7.721803   419A      7.731603  
     420A      7.750323   421A      7.768256   422A      7.819049  
     423A      7.834639   424A      7.880280   425A      7.899485  
     426A      7.945636   427A      8.045917   428A      8.047724  
     429A      8.074602   430A      8.113881   431A      8.138701  
     432A      8.193432   433A      8.209657   434A      8.242622  
     435A      8.257293   436A      8.284705   437A      8.287494  
     438A      8.317287   439A      8.353768   440A      8.647169  
     441A      8.690395   442A      8.801657   443A      8.837300  
     444A      8.882078   445A      8.900279   446A      8.936401  
     447A      8.980636   448A      9.007977   449A      9.696184  
     450A      9.703758   451A      9.710060   452A      9.780732  
     453A      9.835337   454A      9.864855   455A      9.887807  
     456A      9.913157   457A     10.065306   458A     10.075119  
     459A     10.108093   460A     10.138898   461A     10.227501  
     462A     10.292950   463A     10.325265   464A     10.349383  
     465A     10.398473   466A     10.484082   467A     10.536919  
     468A     10.578639   469A     10.615462   470A     10.753470  
     471A     10.841285   472A     11.034122   473A     11.171414  
     474A     11.180259   475A     11.335559   476A     11.656936  
     477A     11.714593   478A     11.739084   479A     11.753033  
     480A     11.808843   481A     12.109720   482A     12.139990  
     483A     12.286310   484A     12.557803   485A     13.247103  
     486A     13.288094   487A     13.335976   488A     13.380617  
     489A     13.501904   490A     13.511202   491A     13.567412  
     492A     13.605621   493A     13.727854   494A     13.932903  
     495A     13.969027   496A     14.034765   497A     14.052965  
     498A     15.126407   499A     15.209791   500A     15.476768  
     501A     17.149887   502A     65.016273   503A     65.634222  
     504A     65.832868   505A     66.278658   506A     75.429381  

    Final Occupation by Irrep:
              A 
    DOCC [     5 ]
    NA   [     5 ]
    NB   [     5 ]

  @DF-RHF Final Energy:   -76.05956978391136

   => Energetics <=

    Nuclear Repulsion Energy =              9.1273772696837732
    One-Electron Energy =                -122.9396308310253119
    Two-Electron Energy =                  37.7526837774301853
    Total Energy =                        -76.0595697839113427

Computation Completed


Properties will be evaluated at   0.000000,   0.000000,   0.000000 [a0]

Properties computed using the SCF density matrix


 Multipole Moments:

 ------------------------------------------------------------------------------------
     Multipole            Electronic (a.u.)      Nuclear  (a.u.)        Total (a.u.)
 ------------------------------------------------------------------------------------

 L = 1.  Multiply by 2.5417464519 to convert [e a0] to [Debye]
 Dipole X            :          8.1812386           -8.2911280           -0.1098894
 Dipole Y            :        -23.4769062           23.9144142            0.4375080
 Dipole Z            :        -45.0051538           44.4204768           -0.5846770
 Magnitude           :                                                    0.7384688

 ------------------------------------------------------------------------------------

*** tstop() called on ddmfs1 at Mon Jan 22 18:39:00 2024
Module time:
	user time   =      84.99 seconds =       1.42 minutes
	system time =       3.92 seconds =       0.07 minutes
	total time  =          6 seconds =       0.10 minutes
Total time:
	user time   =      84.99 seconds =       1.42 minutes
	system time =       3.92 seconds =       0.07 minutes
	total time  =          6 seconds =       0.10 minutes

*** tstart() called on ddmfs1
*** at Mon Jan 22 18:39:00 2024


  //>>>>>>>>>>>>>>>>>>>>>>>>>>>>>>>>>>>//
  //               DFMP2               //
  //<<<<<<<<<<<<<<<<<<<<<<<<<<<<<<<<<<<//

   => Loading Basis Set <=

    Name: (AUG-CC-PVTZ AUX)
    Role: RIFIT
    Keyword: DF_BASIS_MP2
    atoms 1                            entry F          line   322 file /ddmfs1b/softs/psi4conda/share/psi4/basis/aug-cc-pvtz-ri.gbs 
    atoms 2, 5, 8, 11, 14              entry O          line   264 file /ddmfs1b/softs/psi4conda/share/psi4/basis/aug-cc-pvtz-ri.gbs 
    atoms 3-4, 6-7, 9-10, 12-13, 15-16 entry H          line    30 file /ddmfs1b/softs/psi4conda/share/psi4/basis/aug-cc-pvtz-ri.gbs 

	 --------------------------------------------------------
	                          DF-MP2                         
	      2nd-Order Density-Fitted Moller-Plesset Theory     
	              RMP2 Wavefunction,  20 Threads             
	                                                         
	        Rob Parrish, Justin Turney, Andy Simmonett,      
	           Ed Hohenstein, and C. David Sherrill          
	 --------------------------------------------------------

   => Auxiliary Basis Set <=

  Basis Set: (AUG-CC-PVTZ AUX)
    Blend: AUG-CC-PVTZ-RI
    Number of shells: 308
    Number of basis functions: 1096
    Number of Cartesian functions: 1366
    Spherical Harmonics?: true
    Max angular momentum: 4

	 --------------------------------------------------------
	                 NBF =   506, NAUX =  1096
	 --------------------------------------------------------
	   CLASS    FOCC     OCC    AOCC    AVIR     VIR    FVIR
	   PAIRS       0       5       5     501     501       0
	 --------------------------------------------------------

	-----------------------------------------------------------
	 ==================> DF-MP2 Energies <==================== 
	-----------------------------------------------------------
	 Reference Energy          =     -76.0595697839113569 [Eh]
	 Singles Energy            =      -0.0000000000000000 [Eh]
	 Same-Spin Energy          =      -0.0684390042817046 [Eh]
	 Opposite-Spin Energy      =      -0.2161597283344712 [Eh]
	 Correlation Energy        =      -0.2845987326161757 [Eh]
	 Total Energy              =     -76.3441685165275317 [Eh]
	-----------------------------------------------------------
	 ================> DF-SCS-MP2 Energies <================== 
	-----------------------------------------------------------
	 SCS Same-Spin Scale       =       0.3333333333333333 [-]
	 SCS Opposite-Spin Scale   =       1.2000000000000000 [-]
	 SCS Same-Spin Energy      =      -0.0228130014272349 [Eh]
	 SCS Opposite-Spin Energy  =      -0.2593916740013654 [Eh]
	 SCS Correlation Energy    =      -0.2822046754286002 [Eh]
	 SCS Total Energy          =     -76.3417744593399590 [Eh]
	-----------------------------------------------------------


*** tstop() called on ddmfs1 at Mon Jan 22 18:39:03 2024
Module time:
	user time   =      24.06 seconds =       0.40 minutes
	system time =       1.32 seconds =       0.02 minutes
	total time  =          3 seconds =       0.05 minutes
Total time:
	user time   =     109.06 seconds =       1.82 minutes
	system time =       5.25 seconds =       0.09 minutes
	total time  =          9 seconds =       0.15 minutes

    Psi4 stopped on: Monday, 22 January 2024 06:39PM
    Psi4 wall time for execution: 0:00:08.92

*** Psi4 exiting successfully. Buy a developer a beer!
