
    -----------------------------------------------------------------------
          Psi4: An Open-Source Ab Initio Electronic Structure Package
                               Psi4 1.8.2 release

                         Git: Rev {} zzzzzzz 


    D. G. A. Smith, L. A. Burns, A. C. Simmonett, R. M. Parrish,
    M. C. Schieber, R. Galvelis, P. Kraus, H. Kruse, R. Di Remigio,
    A. Alenaizan, A. M. James, S. Lehtola, J. P. Misiewicz, M. Scheurer,
    R. A. Shaw, J. B. Schriber, Y. Xie, Z. L. Glick, D. A. Sirianni,
    J. S. O'Brien, J. M. Waldrop, A. Kumar, E. G. Hohenstein,
    B. P. Pritchard, B. R. Brooks, H. F. Schaefer III, A. Yu. Sokolov,
    K. Patkowski, A. E. DePrince III, U. Bozkaya, R. A. King,
    F. A. Evangelista, J. M. Turney, T. D. Crawford, C. D. Sherrill,
    J. Chem. Phys. 152(18) 184108 (2020). https://doi.org/10.1063/5.0006002

                            Additional Code Authors
    E. T. Seidl, C. L. Janssen, E. F. Valeev, M. L. Leininger,
    J. F. Gonthier, R. M. Richard, H. R. McAlexander, M. Saitow, X. Wang,
    P. Verma, M. H. Lechner, A. Jiang, S. Behnle, A. G. Heide,
    M. F. Herbst, and D. L. Poole

             Previous Authors, Complete List of Code Contributors,
                       and Citations for Specific Modules
    https://github.com/psi4/psi4/blob/master/codemeta.json
    https://github.com/psi4/psi4/graphs/contributors
    http://psicode.org/psi4manual/master/introduction.html#citing-psifour

    -----------------------------------------------------------------------


    Psi4 started on: Monday, 22 January 2024 05:40PM

    Process ID: 85652
    Host:       ddmfs1
    PSIDATADIR: /ddmfs1b/softs/psi4conda/share/psi4
    Memory:     500.0 MiB
    Threads:    20
    
  ==> Input File <==

--------------------------------------------------------------------------
MEMORY 60 GB

molecule dimer {
0 1
Gh(F)      0.000000     0.000000     0.000000
Gh(O)      0.242114    -1.452934     2.415504
Gh(H)     -0.616381    -1.882187     2.541181
Gh(H)      0.305655    -0.919337     1.625439
Gh(O)      0.723027     0.126597    -2.933588
Gh(H)      0.475233     0.093507    -2.011106
Gh(H)      1.577772    -0.349467    -3.059852
Gh(O)     -3.014078     0.047971    -0.335833
Gh(H)     -3.042120     0.986298    -0.534262
Gh(H)     -2.130844    -0.132734    -0.089201
Gh(O)      2.661578    -0.504624    -0.408960
Gh(H)      3.011063    -0.602591     0.481752
Gh(H)      1.722111    -0.375198    -0.373612
Gh(O)      1.830655     1.719823     1.752473
Gh(H)      2.368893     0.936770     1.814979
Gh(H)      1.174412     1.527972     1.038808
O         -0.230721    -2.491145    -1.068143
H          0.708270    -2.537811    -1.376508
H         -0.245774    -1.611418    -0.675802

units ang
no_reorient
no_com
symmetry c1
}

set {
basis        aug-cc-pVTZ
scf_type     df
}

energy("mp2")
--------------------------------------------------------------------------

  Memory set to  55.879 GiB by Python driver.

Scratch directory: /ddmfs1a/scratch/
   => Libint2 <=

    Primary   basis highest AM E, G, H:  5, 4, 3
    Auxiliary basis highest AM E, G, H:  6, 5, 4
    Onebody   basis highest AM E, G, H:  6, 5, 4
    Solid Harmonics ordering:            gaussian

*** tstart() called on ddmfs1
*** at Mon Jan 22 17:40:26 2024

   => Loading Basis Set <=

    Name: AUG-CC-PVTZ
    Role: ORBITAL
    Keyword: BASIS
    atoms 1                                   entry F          line   377 file /ddmfs1b/softs/psi4conda/share/psi4/basis/aug-cc-pvtz.gbs 
    atoms 2, 5, 8, 11, 14, 17                 entry O          line   331 file /ddmfs1b/softs/psi4conda/share/psi4/basis/aug-cc-pvtz.gbs 
    atoms 3-4, 6-7, 9-10, 12-13, 15-16, 18-19 entry H          line    40 file /ddmfs1b/softs/psi4conda/share/psi4/basis/aug-cc-pvtz.gbs 


         ---------------------------------------------------------
                                   SCF
               by Justin Turney, Rob Parrish, Andy Simmonett
                          and Daniel G. A. Smith
                              RHF Reference
                       20 Threads,  57220 MiB Core
         ---------------------------------------------------------

  ==> Geometry <==

    Molecular point group: c1
    Full point group: C1

    Geometry (in Angstrom), charge = 0, multiplicity = 1:

       Center              X                  Y                   Z               Mass       
    ------------   -----------------  -----------------  -----------------  -----------------
      Gh(F)           0.000000000000     0.000000000000     0.000000000000    18.998403162730
      Gh(O)           0.242114000000    -1.452934000000     2.415504000000    15.994914619570
      Gh(H)          -0.616381000000    -1.882187000000     2.541181000000     1.007825032230
      Gh(H)           0.305655000000    -0.919337000000     1.625439000000     1.007825032230
      Gh(O)           0.723027000000     0.126597000000    -2.933588000000    15.994914619570
      Gh(H)           0.475233000000     0.093507000000    -2.011106000000     1.007825032230
      Gh(H)           1.577772000000    -0.349467000000    -3.059852000000     1.007825032230
      Gh(O)          -3.014078000000     0.047971000000    -0.335833000000    15.994914619570
      Gh(H)          -3.042120000000     0.986298000000    -0.534262000000     1.007825032230
      Gh(H)          -2.130844000000    -0.132734000000    -0.089201000000     1.007825032230
      Gh(O)           2.661578000000    -0.504624000000    -0.408960000000    15.994914619570
      Gh(H)           3.011063000000    -0.602591000000     0.481752000000     1.007825032230
      Gh(H)           1.722111000000    -0.375198000000    -0.373612000000     1.007825032230
      Gh(O)           1.830655000000     1.719823000000     1.752473000000    15.994914619570
      Gh(H)           2.368893000000     0.936770000000     1.814979000000     1.007825032230
      Gh(H)           1.174412000000     1.527972000000     1.038808000000     1.007825032230
         O           -0.230721000000    -2.491145000000    -1.068143000000    15.994914619570
         H            0.708270000000    -2.537811000000    -1.376508000000     1.007825032230
         H           -0.245774000000    -1.611418000000    -0.675802000000     1.007825032230

  Running in c1 symmetry.

  Rotational constants: A =      0.03329  B =      0.02902  C =      0.02397 [cm^-1]
  Rotational constants: A =    997.86577  B =    870.03939  C =    718.62957 [MHz]
  Nuclear repulsion =    9.025089427363440

  Charge       = 0
  Multiplicity = 1
  Electrons    = 10
  Nalpha       = 5
  Nbeta        = 5

  ==> Algorithm <==

  SCF Algorithm Type is DF.
  DIIS enabled.
  MOM disabled.
  Fractional occupation disabled.
  Guess Type is SAD.
  Energy threshold   = 1.00e-08
  Density threshold  = 1.00e-08
  Integral threshold = 1.00e-12

  ==> Primary Basis <==

  Basis Set: AUG-CC-PVTZ
    Blend: AUG-CC-PVTZ
    Number of shells: 206
    Number of basis functions: 598
    Number of Cartesian functions: 685
    Spherical Harmonics?: true
    Max angular momentum: 3

   => Loading Basis Set <=

    Name: (AUG-CC-PVTZ AUX)
    Role: JKFIT
    Keyword: DF_BASIS_SCF
    atoms 1                                   entry F          line   348 file /ddmfs1b/softs/psi4conda/share/psi4/basis/aug-cc-pvtz-jkfit.gbs 
    atoms 2, 5, 8, 11, 14, 17                 entry O          line   286 file /ddmfs1b/softs/psi4conda/share/psi4/basis/aug-cc-pvtz-jkfit.gbs 
    atoms 3-4, 6-7, 9-10, 12-13, 15-16, 18-19 entry H          line    70 file /ddmfs1b/softs/psi4conda/share/psi4/basis/aug-cc-pvtz-jkfit.gbs 

  ==> Integral Setup <==

  DFHelper Memory: AOs need 3.186 GiB; user supplied 41.910 GiB. 
  Using in-core AOs.

  ==> MemDFJK: Density-Fitted J/K Matrices <==

    J tasked:                   Yes
    K tasked:                   Yes
    wK tasked:                   No
    OpenMP threads:              20
    Memory [MiB]:             42915
    Algorithm:                 Core
    Schwarz Cutoff:           1E-12
    Mask sparsity (%):      10.6229
    Fitting Condition:        1E-10

   => Auxiliary Basis Set <=

  Basis Set: (AUG-CC-PVTZ AUX)
    Blend: AUG-CC-PVTZ-JKFIT
    Number of shells: 378
    Number of basis functions: 1280
    Number of Cartesian functions: 1577
    Spherical Harmonics?: true
    Max angular momentum: 4

  Minimum eigenvalue in the overlap matrix is 5.7716810269E-05.
  Reciprocal condition number of the overlap matrix is 3.5769782170E-06.
    Using symmetric orthogonalization.

  ==> Pre-Iterations <==

  SCF Guess: Superposition of Atomic Densities via on-the-fly atomic UHF (no occupation information).

   -------------------------
    Irrep   Nso     Nmo    
   -------------------------
     A        598     598 
   -------------------------
    Total     598     598
   -------------------------

  ==> Iterations <==

                           Total Energy        Delta E     RMS |[F,P]|

   @DF-RHF iter SAD:   -75.45968775496740   -7.54597e+01   0.00000e+00 
   @DF-RHF iter   1:   -75.97233778880229   -5.12650e-01   7.81778e-04 ADIIS/DIIS
   @DF-RHF iter   2:   -76.02442410239917   -5.20863e-02   5.45492e-04 ADIIS/DIIS
   @DF-RHF iter   3:   -76.05754617008083   -3.31221e-02   3.70915e-05 DIIS
   @DF-RHF iter   4:   -76.05795716691610   -4.10997e-04   9.24936e-06 DIIS
   @DF-RHF iter   5:   -76.05798573625063   -2.85693e-05   2.16487e-06 DIIS
   @DF-RHF iter   6:   -76.05798817369754   -2.43745e-06   4.69787e-07 DIIS
   @DF-RHF iter   7:   -76.05798829731771   -1.23620e-07   7.97424e-08 DIIS
   @DF-RHF iter   8:   -76.05798830037754   -3.05984e-09   1.35383e-08 DIIS
   @DF-RHF iter   9:   -76.05798830044685   -6.93063e-11   3.31552e-09 DIIS
  Energy and wave function converged.


  ==> Post-Iterations <==

    Orbital Energies [Eh]
    ---------------------

    Doubly Occupied:                                                      

       1A    -20.572076     2A     -1.346689     3A     -0.700015  
       4A     -0.588633     5A     -0.509936  

    Virtual:                                                              

       6A      0.013788     7A      0.032331     8A      0.035170  
       9A      0.040833    10A      0.053197    11A      0.059350  
      12A      0.061861    13A      0.063704    14A      0.066237  
      15A      0.071939    16A      0.081564    17A      0.094564  
      18A      0.116931    19A      0.123982    20A      0.125118  
      21A      0.135699    22A      0.139719    23A      0.140482  
      24A      0.153429    25A      0.153531    26A      0.157047  
      27A      0.173565    28A      0.175369    29A      0.178257  
      30A      0.180703    31A      0.190014    32A      0.193334  
      33A      0.198247    34A      0.199759    35A      0.209697  
      36A      0.213650    37A      0.217616    38A      0.226227  
      39A      0.230411    40A      0.243674    41A      0.251793  
      42A      0.262761    43A      0.271784    44A      0.277328  
      45A      0.283469    46A      0.291172    47A      0.299645  
      48A      0.303929    49A      0.306064    50A      0.308906  
      51A      0.322013    52A      0.328041    53A      0.332799  
      54A      0.339852    55A      0.349234    56A      0.353701  
      57A      0.359641    58A      0.363223    59A      0.367883  
      60A      0.377330    61A      0.381135    62A      0.389959  
      63A      0.396977    64A      0.402956    65A      0.407994  
      66A      0.415289    67A      0.419448    68A      0.426138  
      69A      0.432066    70A      0.438678    71A      0.440735  
      72A      0.449039    73A      0.453157    74A      0.466208  
      75A      0.468603    76A      0.480313    77A      0.487220  
      78A      0.490855    79A      0.501701    80A      0.504861  
      81A      0.518983    82A      0.522488    83A      0.527175  
      84A      0.532566    85A      0.547613    86A      0.550111  
      87A      0.563122    88A      0.576288    89A      0.591668  
      90A      0.605260    91A      0.611434    92A      0.626217  
      93A      0.661362    94A      0.669817    95A      0.686349  
      96A      0.702386    97A      0.708325    98A      0.717717  
      99A      0.719633   100A      0.738149   101A      0.743654  
     102A      0.748418   103A      0.756872   104A      0.764429  
     105A      0.765647   106A      0.772919   107A      0.782418  
     108A      0.785249   109A      0.791801   110A      0.798776  
     111A      0.817748   112A      0.822301   113A      0.826266  
     114A      0.828143   115A      0.838244   116A      0.849246  
     117A      0.850220   118A      0.852112   119A      0.864410  
     120A      0.867033   121A      0.870866   122A      0.874279  
     123A      0.881735   124A      0.885678   125A      0.892259  
     126A      0.896883   127A      0.908993   128A      0.915500  
     129A      0.919436   130A      0.927726   131A      0.929564  
     132A      0.939247   133A      0.943817   134A      0.950053  
     135A      0.956283   136A      0.960855   137A      0.966149  
     138A      0.975811   139A      0.980483   140A      0.984586  
     141A      0.990584   142A      0.995510   143A      1.001825  
     144A      1.009492   145A      1.014574   146A      1.025318  
     147A      1.029435   148A      1.032426   149A      1.040953  
     150A      1.047206   151A      1.048144   152A      1.055391  
     153A      1.069141   154A      1.074806   155A      1.081307  
     156A      1.092918   157A      1.100553   158A      1.102732  
     159A      1.114402   160A      1.118345   161A      1.122589  
     162A      1.145046   163A      1.154279   164A      1.160604  
     165A      1.174400   166A      1.180638   167A      1.183291  
     168A      1.192482   169A      1.209450   170A      1.218706  
     171A      1.220997   172A      1.224651   173A      1.234844  
     174A      1.245668   175A      1.248365   176A      1.262907  
     177A      1.269397   178A      1.270242   179A      1.294816  
     180A      1.304668   181A      1.315735   182A      1.326618  
     183A      1.329109   184A      1.342294   185A      1.358212  
     186A      1.360842   187A      1.370106   188A      1.383337  
     189A      1.396983   190A      1.403167   191A      1.417336  
     192A      1.419515   193A      1.425089   194A      1.437349  
     195A      1.451490   196A      1.459413   197A      1.463435  
     198A      1.480780   199A      1.494915   200A      1.503723  
     201A      1.509727   202A      1.530384   203A      1.540774  
     204A      1.551426   205A      1.556311   206A      1.569251  
     207A      1.584193   208A      1.598016   209A      1.609696  
     210A      1.610982   211A      1.630118   212A      1.635933  
     213A      1.651313   214A      1.657326   215A      1.668978  
     216A      1.692359   217A      1.701737   218A      1.710314  
     219A      1.725976   220A      1.737206   221A      1.739517  
     222A      1.752496   223A      1.765550   224A      1.772197  
     225A      1.780561   226A      1.783570   227A      1.786862  
     228A      1.798695   229A      1.811300   230A      1.833704  
     231A      1.839596   232A      1.844041   233A      1.858257  
     234A      1.877552   235A      1.879623   236A      1.892432  
     237A      1.902783   238A      1.911676   239A      1.927702  
     240A      1.934103   241A      1.946660   242A      1.948766  
     243A      1.961100   244A      1.968875   245A      1.985846  
     246A      1.995947   247A      2.007172   248A      2.034745  
     249A      2.035910   250A      2.050304   251A      2.066192  
     252A      2.088435   253A      2.091235   254A      2.094158  
     255A      2.138582   256A      2.153745   257A      2.161311  
     258A      2.173871   259A      2.198787   260A      2.246530  
     261A      2.276684   262A      2.284250   263A      2.380324  
     264A      2.444741   265A      2.456974   266A      2.461414  
     267A      2.487511   268A      2.495002   269A      2.505028  
     270A      2.511713   271A      2.522104   272A      2.523685  
     273A      2.541108   274A      2.556621   275A      2.558342  
     276A      2.573757   277A      2.587837   278A      2.594459  
     279A      2.605838   280A      2.616219   281A      2.639637  
     282A      2.652814   283A      2.654574   284A      2.662127  
     285A      2.681612   286A      2.685809   287A      2.693527  
     288A      2.697144   289A      2.710031   290A      2.715877  
     291A      2.727838   292A      2.738252   293A      2.751345  
     294A      2.764138   295A      2.770070   296A      2.773889  
     297A      2.789136   298A      2.795187   299A      2.821631  
     300A      2.828866   301A      2.833866   302A      2.849807  
     303A      2.864526   304A      2.873042   305A      2.880632  
     306A      2.891635   307A      2.906538   308A      2.921032  
     309A      2.934886   310A      2.951801   311A      2.965219  
     312A      3.000324   313A      3.013253   314A      3.024527  
     315A      3.056379   316A      3.074074   317A      3.099666  
     318A      3.104686   319A      3.137463   320A      3.154832  
     321A      3.161150   322A      3.199221   323A      3.202705  
     324A      3.226182   325A      3.233369   326A      3.238192  
     327A      3.252597   328A      3.255543   329A      3.272871  
     330A      3.280664   331A      3.284650   332A      3.296090  
     333A      3.309555   334A      3.334527   335A      3.351394  
     336A      3.361121   337A      3.385126   338A      3.421084  
     339A      3.430514   340A      3.434731   341A      3.458296  
     342A      3.496951   343A      3.517905   344A      3.540093  
     345A      3.568044   346A      3.569359   347A      3.598143  
     348A      3.604587   349A      3.645821   350A      3.659397  
     351A      3.672247   352A      3.697419   353A      3.726525  
     354A      3.731064   355A      3.768504   356A      3.778982  
     357A      3.811807   358A      3.814460   359A      3.844028  
     360A      3.855317   361A      3.880965   362A      3.898837  
     363A      3.938357   364A      3.969594   365A      4.001160  
     366A      4.078489   367A      4.129592   368A      4.169358  
     369A      4.186612   370A      4.201872   371A      4.234294  
     372A      4.261786   373A      4.286873   374A      4.324530  
     375A      4.360443   376A      4.404557   377A      4.409197  
     378A      4.433328   379A      4.438917   380A      4.440839  
     381A      4.452618   382A      4.480621   383A      4.481447  
     384A      4.498585   385A      4.503044   386A      4.505155  
     387A      4.530142   388A      4.559185   389A      4.560127  
     390A      4.579277   391A      4.581852   392A      4.593360  
     393A      4.603865   394A      4.611843   395A      4.641325  
     396A      4.653653   397A      4.670264   398A      4.688644  
     399A      4.707367   400A      4.713271   401A      4.733515  
     402A      4.740345   403A      4.745828   404A      4.765546  
     405A      4.783023   406A      4.812178   407A      4.825093  
     408A      4.864707   409A      4.874466   410A      4.898684  
     411A      4.917441   412A      4.923011   413A      4.934924  
     414A      4.936444   415A      4.948218   416A      4.957587  
     417A      4.981707   418A      4.998183   419A      5.019962  
     420A      5.034645   421A      5.044086   422A      5.048732  
     423A      5.078576   424A      5.090630   425A      5.127831  
     426A      5.146887   427A      5.166117   428A      5.183606  
     429A      5.230423   430A      5.237209   431A      5.262869  
     432A      5.280265   433A      5.301866   434A      5.330479  
     435A      5.351175   436A      5.389866   437A      5.429183  
     438A      5.461030   439A      5.523062   440A      5.542824  
     441A      5.556528   442A      5.569444   443A      5.580135  
     444A      5.596367   445A      5.602063   446A      5.612207  
     447A      5.621671   448A      5.655769   449A      5.673702  
     450A      5.684237   451A      5.715356   452A      5.721900  
     453A      5.746657   454A      5.766269   455A      5.775201  
     456A      5.828970   457A      5.851352   458A      5.869673  
     459A      5.903558   460A      5.925614   461A      6.019489  
     462A      6.174349   463A      6.191063   464A      6.206619  
     465A      6.264818   466A      6.372110   467A      6.384864  
     468A      6.418102   469A      6.455475   470A      6.492338  
     471A      6.521663   472A      6.597754   473A      6.609142  
     474A      6.653756   475A      6.756642   476A      6.770220  
     477A      6.893205   478A      6.924517   479A      6.949305  
     480A      7.079514   481A      7.109070   482A      7.132144  
     483A      7.161999   484A      7.197035   485A      7.209116  
     486A      7.239073   487A      7.345466   488A      7.387685  
     489A      7.413510   490A      7.513265   491A      7.585785  
     492A      7.729954   493A      7.746044   494A      7.751786  
     495A      7.767568   496A      7.784363   497A      7.803786  
     498A      7.822823   499A      7.847907   500A      7.875673  
     501A      7.886180   502A      7.936075   503A      8.028081  
     504A      8.047834   505A      8.100904   506A      8.151977  
     507A      8.166983   508A      8.206478   509A      8.244143  
     510A      8.273536   511A      8.285304   512A      8.291657  
     513A      8.298173   514A      8.334110   515A      8.338088  
     516A      8.349497   517A      8.353429   518A      8.420067  
     519A      8.438143   520A      8.762914   521A      8.785536  
     522A      8.835201   523A      8.846529   524A      8.868546  
     525A      8.874959   526A      8.899582   527A      9.096458  
     528A      9.132742   529A      9.172588   530A      9.240474  
     531A      9.748079   532A      9.770087   533A      9.814542  
     534A      9.848318   535A      9.867568   536A      9.888866  
     537A      9.893090   538A      9.901141   539A      9.916792  
     540A      9.957317   541A     10.076157   542A     10.094813  
     543A     10.112066   544A     10.148676   545A     10.185562  
     546A     10.270140   547A     10.344444   548A     10.352225  
     549A     10.378829   550A     10.401274   551A     10.417357  
     552A     10.540996   553A     10.570134   554A     10.621407  
     555A     10.646601   556A     10.753617   557A     10.796391  
     558A     11.112146   559A     11.145487   560A     11.177579  
     561A     11.294172   562A     11.307809   563A     11.699016  
     564A     11.769037   565A     11.821484   566A     11.872381  
     567A     11.877260   568A     11.952725   569A     12.119382  
     570A     12.278439   571A     12.368450   572A     12.470308  
     573A     12.730796   574A     13.248006   575A     13.307229  
     576A     13.341603   577A     13.457404   578A     13.531668  
     579A     13.662242   580A     13.676253   581A     13.717870  
     582A     13.740222   583A     13.905826   584A     13.929208  
     585A     14.017573   586A     14.058836   587A     14.083715  
     588A     14.173229   589A     15.174864   590A     15.359327  
     591A     15.432077   592A     17.260185   593A     65.821479  
     594A     67.128063   595A     67.653903   596A     67.900445  
     597A     68.902729   598A     75.344836  

    Final Occupation by Irrep:
              A 
    DOCC [     5 ]
    NA   [     5 ]
    NB   [     5 ]

  @DF-RHF Final Energy:   -76.05798830044685

   => Energetics <=

    Nuclear Repulsion Energy =              9.0250894273634401
    One-Electron Energy =                -122.7314563418936189
    Two-Electron Energy =                  37.6483786140833203
    Total Energy =                        -76.0579883004468513

Computation Completed


Properties will be evaluated at   0.000000,   0.000000,   0.000000 [a0]

Properties computed using the SCF density matrix


 Multipole Moments:

 ------------------------------------------------------------------------------------
     Multipole            Electronic (a.u.)      Nuclear  (a.u.)        Total (a.u.)
 ------------------------------------------------------------------------------------

 L = 1.  Multiply by 2.5417464519 to convert [e a0] to [Debye]
 Dipole X            :          3.2113348           -2.6140052            0.5973296
 Dipole Y            :         46.0466392          -45.5015608            0.5450784
 Dipole Z            :         20.0833797          -20.0262857            0.0570941
 Magnitude           :                                                    0.8106620

 ------------------------------------------------------------------------------------

*** tstop() called on ddmfs1 at Mon Jan 22 17:40:34 2024
Module time:
	user time   =     127.32 seconds =       2.12 minutes
	system time =       6.02 seconds =       0.10 minutes
	total time  =          8 seconds =       0.13 minutes
Total time:
	user time   =     127.32 seconds =       2.12 minutes
	system time =       6.02 seconds =       0.10 minutes
	total time  =          8 seconds =       0.13 minutes

*** tstart() called on ddmfs1
*** at Mon Jan 22 17:40:34 2024


  //>>>>>>>>>>>>>>>>>>>>>>>>>>>>>>>>>>>//
  //               DFMP2               //
  //<<<<<<<<<<<<<<<<<<<<<<<<<<<<<<<<<<<//

   => Loading Basis Set <=

    Name: (AUG-CC-PVTZ AUX)
    Role: RIFIT
    Keyword: DF_BASIS_MP2
    atoms 1                                   entry F          line   322 file /ddmfs1b/softs/psi4conda/share/psi4/basis/aug-cc-pvtz-ri.gbs 
    atoms 2, 5, 8, 11, 14, 17                 entry O          line   264 file /ddmfs1b/softs/psi4conda/share/psi4/basis/aug-cc-pvtz-ri.gbs 
    atoms 3-4, 6-7, 9-10, 12-13, 15-16, 18-19 entry H          line    30 file /ddmfs1b/softs/psi4conda/share/psi4/basis/aug-cc-pvtz-ri.gbs 

	 --------------------------------------------------------
	                          DF-MP2                         
	      2nd-Order Density-Fitted Moller-Plesset Theory     
	              RMP2 Wavefunction,  20 Threads             
	                                                         
	        Rob Parrish, Justin Turney, Andy Simmonett,      
	           Ed Hohenstein, and C. David Sherrill          
	 --------------------------------------------------------

   => Auxiliary Basis Set <=

  Basis Set: (AUG-CC-PVTZ AUX)
    Blend: AUG-CC-PVTZ-RI
    Number of shells: 364
    Number of basis functions: 1294
    Number of Cartesian functions: 1612
    Spherical Harmonics?: true
    Max angular momentum: 4

	 --------------------------------------------------------
	                 NBF =   598, NAUX =  1294
	 --------------------------------------------------------
	   CLASS    FOCC     OCC    AOCC    AVIR     VIR    FVIR
	   PAIRS       0       5       5     593     593       0
	 --------------------------------------------------------

	-----------------------------------------------------------
	 ==================> DF-MP2 Energies <==================== 
	-----------------------------------------------------------
	 Reference Energy          =     -76.0579883004468513 [Eh]
	 Singles Energy            =      -0.0000000000000000 [Eh]
	 Same-Spin Energy          =      -0.0688620390209317 [Eh]
	 Opposite-Spin Energy      =      -0.2177260021308921 [Eh]
	 Correlation Energy        =      -0.2865880411518238 [Eh]
	 Total Energy              =     -76.3445763415986818 [Eh]
	-----------------------------------------------------------
	 ================> DF-SCS-MP2 Energies <================== 
	-----------------------------------------------------------
	 SCS Same-Spin Scale       =       0.3333333333333333 [-]
	 SCS Opposite-Spin Scale   =       1.2000000000000000 [-]
	 SCS Same-Spin Energy      =      -0.0229540130069772 [Eh]
	 SCS Opposite-Spin Energy  =      -0.2612712025570705 [Eh]
	 SCS Correlation Energy    =      -0.2842252155640477 [Eh]
	 SCS Total Energy          =     -76.3422135160109008 [Eh]
	-----------------------------------------------------------


*** tstop() called on ddmfs1 at Mon Jan 22 17:40:39 2024
Module time:
	user time   =      32.77 seconds =       0.55 minutes
	system time =       1.75 seconds =       0.03 minutes
	total time  =          5 seconds =       0.08 minutes
Total time:
	user time   =     160.11 seconds =       2.67 minutes
	system time =       7.78 seconds =       0.13 minutes
	total time  =         13 seconds =       0.22 minutes

    Psi4 stopped on: Monday, 22 January 2024 05:40PM
    Psi4 wall time for execution: 0:00:13.45

*** Psi4 exiting successfully. Buy a developer a beer!
