
    -----------------------------------------------------------------------
          Psi4: An Open-Source Ab Initio Electronic Structure Package
                               Psi4 1.8.2 release

                         Git: Rev {} zzzzzzz 


    D. G. A. Smith, L. A. Burns, A. C. Simmonett, R. M. Parrish,
    M. C. Schieber, R. Galvelis, P. Kraus, H. Kruse, R. Di Remigio,
    A. Alenaizan, A. M. James, S. Lehtola, J. P. Misiewicz, M. Scheurer,
    R. A. Shaw, J. B. Schriber, Y. Xie, Z. L. Glick, D. A. Sirianni,
    J. S. O'Brien, J. M. Waldrop, A. Kumar, E. G. Hohenstein,
    B. P. Pritchard, B. R. Brooks, H. F. Schaefer III, A. Yu. Sokolov,
    K. Patkowski, A. E. DePrince III, U. Bozkaya, R. A. King,
    F. A. Evangelista, J. M. Turney, T. D. Crawford, C. D. Sherrill,
    J. Chem. Phys. 152(18) 184108 (2020). https://doi.org/10.1063/5.0006002

                            Additional Code Authors
    E. T. Seidl, C. L. Janssen, E. F. Valeev, M. L. Leininger,
    J. F. Gonthier, R. M. Richard, H. R. McAlexander, M. Saitow, X. Wang,
    P. Verma, M. H. Lechner, A. Jiang, S. Behnle, A. G. Heide,
    M. F. Herbst, and D. L. Poole

             Previous Authors, Complete List of Code Contributors,
                       and Citations for Specific Modules
    https://github.com/psi4/psi4/blob/master/codemeta.json
    https://github.com/psi4/psi4/graphs/contributors
    http://psicode.org/psi4manual/master/introduction.html#citing-psifour

    -----------------------------------------------------------------------


    Psi4 started on: Monday, 22 January 2024 05:51PM

    Process ID: 86872
    Host:       ddmfs1
    PSIDATADIR: /ddmfs1b/softs/psi4conda/share/psi4
    Memory:     500.0 MiB
    Threads:    20
    
  ==> Input File <==

--------------------------------------------------------------------------
MEMORY 60 GB

molecule dimer {
0 1
Gh(F)      0.000000     0.000000     0.000000
O          1.569360     1.518618    -1.837610
H          1.155301     1.598253    -2.718294
H          0.927061     0.996283    -1.347020
Gh(O)      0.530386     0.269958     2.875111
Gh(H)      1.172033     0.849356     3.370842
Gh(H)      0.631636     0.167803     1.901881
Gh(O)     -0.928796    -2.527019    -0.372089
Gh(H)     -0.809957    -1.635358     0.032375
Gh(H)     -1.197638    -3.136721     0.344653
Gh(O)     -1.941797     1.884913     0.438019
Gh(H)     -1.127941     2.210082     0.062217
Gh(H)     -1.791200     0.968612     0.500762
Gh(O)     -2.979564    -0.679629     0.263051
Gh(H)     -3.238399    -1.549104     0.622195
Gh(H)     -3.682243    -0.073049     0.667091
Gh(O)      1.997910    -1.718340     0.059017
Gh(H)      1.266622    -1.101851    -0.130084
Gh(H)      2.707820    -1.267608     0.569883

units ang
no_reorient
no_com
symmetry c1
}

set {
basis        aug-cc-pVTZ
scf_type     df
}

energy("mp2")
--------------------------------------------------------------------------

  Memory set to  55.879 GiB by Python driver.

Scratch directory: /ddmfs1a/scratch/
   => Libint2 <=

    Primary   basis highest AM E, G, H:  5, 4, 3
    Auxiliary basis highest AM E, G, H:  6, 5, 4
    Onebody   basis highest AM E, G, H:  6, 5, 4
    Solid Harmonics ordering:            gaussian

*** tstart() called on ddmfs1
*** at Mon Jan 22 17:51:46 2024

   => Loading Basis Set <=

    Name: AUG-CC-PVTZ
    Role: ORBITAL
    Keyword: BASIS
    atoms 1                                   entry F          line   377 file /ddmfs1b/softs/psi4conda/share/psi4/basis/aug-cc-pvtz.gbs 
    atoms 2, 5, 8, 11, 14, 17                 entry O          line   331 file /ddmfs1b/softs/psi4conda/share/psi4/basis/aug-cc-pvtz.gbs 
    atoms 3-4, 6-7, 9-10, 12-13, 15-16, 18-19 entry H          line    40 file /ddmfs1b/softs/psi4conda/share/psi4/basis/aug-cc-pvtz.gbs 


         ---------------------------------------------------------
                                   SCF
               by Justin Turney, Rob Parrish, Andy Simmonett
                          and Daniel G. A. Smith
                              RHF Reference
                       20 Threads,  57220 MiB Core
         ---------------------------------------------------------

  ==> Geometry <==

    Molecular point group: c1
    Full point group: C1

    Geometry (in Angstrom), charge = 0, multiplicity = 1:

       Center              X                  Y                   Z               Mass       
    ------------   -----------------  -----------------  -----------------  -----------------
      Gh(F)           0.000000000000     0.000000000000     0.000000000000    18.998403162730
         O            1.569360000000     1.518618000000    -1.837610000000    15.994914619570
         H            1.155301000000     1.598253000000    -2.718294000000     1.007825032230
         H            0.927061000000     0.996283000000    -1.347020000000     1.007825032230
      Gh(O)           0.530386000000     0.269958000000     2.875111000000    15.994914619570
      Gh(H)           1.172033000000     0.849356000000     3.370842000000     1.007825032230
      Gh(H)           0.631636000000     0.167803000000     1.901881000000     1.007825032230
      Gh(O)          -0.928796000000    -2.527019000000    -0.372089000000    15.994914619570
      Gh(H)          -0.809957000000    -1.635358000000     0.032375000000     1.007825032230
      Gh(H)          -1.197638000000    -3.136721000000     0.344653000000     1.007825032230
      Gh(O)          -1.941797000000     1.884913000000     0.438019000000    15.994914619570
      Gh(H)          -1.127941000000     2.210082000000     0.062217000000     1.007825032230
      Gh(H)          -1.791200000000     0.968612000000     0.500762000000     1.007825032230
      Gh(O)          -2.979564000000    -0.679629000000     0.263051000000    15.994914619570
      Gh(H)          -3.238399000000    -1.549104000000     0.622195000000     1.007825032230
      Gh(H)          -3.682243000000    -0.073049000000     0.667091000000     1.007825032230
      Gh(O)           1.997910000000    -1.718340000000     0.059017000000    15.994914619570
      Gh(H)           1.266622000000    -1.101851000000    -0.130084000000     1.007825032230
      Gh(H)           2.707820000000    -1.267608000000     0.569883000000     1.007825032230

  Running in c1 symmetry.

  Rotational constants: A =      0.03469  B =      0.02883  C =      0.02548 [cm^-1]
  Rotational constants: A =   1040.11630  B =    864.37369  C =    763.98936 [MHz]
  Nuclear repulsion =    9.084161409026816

  Charge       = 0
  Multiplicity = 1
  Electrons    = 10
  Nalpha       = 5
  Nbeta        = 5

  ==> Algorithm <==

  SCF Algorithm Type is DF.
  DIIS enabled.
  MOM disabled.
  Fractional occupation disabled.
  Guess Type is SAD.
  Energy threshold   = 1.00e-08
  Density threshold  = 1.00e-08
  Integral threshold = 1.00e-12

  ==> Primary Basis <==

  Basis Set: AUG-CC-PVTZ
    Blend: AUG-CC-PVTZ
    Number of shells: 206
    Number of basis functions: 598
    Number of Cartesian functions: 685
    Spherical Harmonics?: true
    Max angular momentum: 3

   => Loading Basis Set <=

    Name: (AUG-CC-PVTZ AUX)
    Role: JKFIT
    Keyword: DF_BASIS_SCF
    atoms 1                                   entry F          line   348 file /ddmfs1b/softs/psi4conda/share/psi4/basis/aug-cc-pvtz-jkfit.gbs 
    atoms 2, 5, 8, 11, 14, 17                 entry O          line   286 file /ddmfs1b/softs/psi4conda/share/psi4/basis/aug-cc-pvtz-jkfit.gbs 
    atoms 3-4, 6-7, 9-10, 12-13, 15-16, 18-19 entry H          line    70 file /ddmfs1b/softs/psi4conda/share/psi4/basis/aug-cc-pvtz-jkfit.gbs 

  ==> Integral Setup <==

  DFHelper Memory: AOs need 3.146 GiB; user supplied 41.910 GiB. 
  Using in-core AOs.

  ==> MemDFJK: Density-Fitted J/K Matrices <==

    J tasked:                   Yes
    K tasked:                   Yes
    wK tasked:                   No
    OpenMP threads:              20
    Memory [MiB]:             42915
    Algorithm:                 Core
    Schwarz Cutoff:           1E-12
    Mask sparsity (%):      11.7812
    Fitting Condition:        1E-10

   => Auxiliary Basis Set <=

  Basis Set: (AUG-CC-PVTZ AUX)
    Blend: AUG-CC-PVTZ-JKFIT
    Number of shells: 378
    Number of basis functions: 1280
    Number of Cartesian functions: 1577
    Spherical Harmonics?: true
    Max angular momentum: 4

  Minimum eigenvalue in the overlap matrix is 3.9862634624E-05.
  Reciprocal condition number of the overlap matrix is 2.6814617435E-06.
    Using symmetric orthogonalization.

  ==> Pre-Iterations <==

  SCF Guess: Superposition of Atomic Densities via on-the-fly atomic UHF (no occupation information).

   -------------------------
    Irrep   Nso     Nmo    
   -------------------------
     A        598     598 
   -------------------------
    Total     598     598
   -------------------------

  ==> Iterations <==

                           Total Energy        Delta E     RMS |[F,P]|

   @DF-RHF iter SAD:   -75.46576722540715   -7.54658e+01   0.00000e+00 
   @DF-RHF iter   1:   -75.97437861491650   -5.08611e-01   7.82204e-04 DIIS/ADIIS
   @DF-RHF iter   2:   -76.02660896596653   -5.22304e-02   5.40116e-04 DIIS/ADIIS
   @DF-RHF iter   3:   -76.05894155095599   -3.23326e-02   3.67364e-05 DIIS
   @DF-RHF iter   4:   -76.05934364130547   -4.02090e-04   8.99380e-06 DIIS
   @DF-RHF iter   5:   -76.05937024595802   -2.66047e-05   2.07339e-06 DIIS
   @DF-RHF iter   6:   -76.05937246948707   -2.22353e-06   4.53119e-07 DIIS
   @DF-RHF iter   7:   -76.05937258523009   -1.15743e-07   7.96405e-08 DIIS
   @DF-RHF iter   8:   -76.05937258833718   -3.10709e-09   1.34537e-08 DIIS
   @DF-RHF iter   9:   -76.05937258840694   -6.97611e-11   3.33319e-09 DIIS
  Energy and wave function converged.


  ==> Post-Iterations <==

    Orbital Energies [Eh]
    ---------------------

    Doubly Occupied:                                                      

       1A    -20.570002     2A     -1.348627     3A     -0.707842  
       4A     -0.585925     5A     -0.509873  

    Virtual:                                                              

       6A      0.014913     7A      0.033269     8A      0.035102  
       9A      0.037229    10A      0.054619    11A      0.056656  
      12A      0.059062    13A      0.067189    14A      0.069137  
      15A      0.080801    16A      0.088408    17A      0.089629  
      18A      0.114264    19A      0.117088    20A      0.127309  
      21A      0.133198    22A      0.138157    23A      0.151129  
      24A      0.154499    25A      0.158355    26A      0.159641  
      27A      0.161112    28A      0.168381    29A      0.174709  
      30A      0.180155    31A      0.186494    32A      0.192322  
      33A      0.201380    34A      0.204897    35A      0.209760  
      36A      0.216703    37A      0.220034    38A      0.229404  
      39A      0.241408    40A      0.242788    41A      0.252497  
      42A      0.261815    43A      0.270400    44A      0.279887  
      45A      0.283372    46A      0.288001    47A      0.301242  
      48A      0.312205    49A      0.315778    50A      0.318305  
      51A      0.326402    52A      0.340393    53A      0.344508  
      54A      0.347366    55A      0.350484    56A      0.357072  
      57A      0.362767    58A      0.365548    59A      0.374340  
      60A      0.375043    61A      0.381273    62A      0.385971  
      63A      0.388086    64A      0.396977    65A      0.398909  
      66A      0.406446    67A      0.410118    68A      0.413375  
      69A      0.422438    70A      0.425860    71A      0.431466  
      72A      0.435590    73A      0.445341    74A      0.450604  
      75A      0.457830    76A      0.466374    77A      0.476120  
      78A      0.480908    79A      0.491348    80A      0.501033  
      81A      0.507228    82A      0.513779    83A      0.526705  
      84A      0.538825    85A      0.544652    86A      0.549669  
      87A      0.556921    88A      0.572213    89A      0.581082  
      90A      0.603158    91A      0.614015    92A      0.643303  
      93A      0.645687    94A      0.668963    95A      0.688805  
      96A      0.696604    97A      0.713316    98A      0.720507  
      99A      0.725295   100A      0.732120   101A      0.736268  
     102A      0.749238   103A      0.754801   104A      0.759345  
     105A      0.770195   106A      0.775662   107A      0.782240  
     108A      0.788706   109A      0.800256   110A      0.802207  
     111A      0.810115   112A      0.813058   113A      0.819364  
     114A      0.825392   115A      0.827758   116A      0.837834  
     117A      0.844017   118A      0.848360   119A      0.849951  
     120A      0.851580   121A      0.862468   122A      0.869163  
     123A      0.879674   124A      0.882983   125A      0.890947  
     126A      0.892941   127A      0.900126   128A      0.908716  
     129A      0.916836   130A      0.923129   131A      0.929567  
     132A      0.930458   133A      0.933759   134A      0.941358  
     135A      0.943394   136A      0.951565   137A      0.958200  
     138A      0.964675   139A      0.967137   140A      0.982825  
     141A      0.986868   142A      0.996957   143A      0.999543  
     144A      1.003475   145A      1.008755   146A      1.017531  
     147A      1.023400   148A      1.026682   149A      1.033160  
     150A      1.039689   151A      1.042609   152A      1.053607  
     153A      1.055837   154A      1.059652   155A      1.066660  
     156A      1.076453   157A      1.082541   158A      1.089187  
     159A      1.095470   160A      1.105451   161A      1.112680  
     162A      1.121463   163A      1.125056   164A      1.143476  
     165A      1.151940   166A      1.157240   167A      1.164928  
     168A      1.171417   169A      1.180747   170A      1.184969  
     171A      1.196010   172A      1.203154   173A      1.206406  
     174A      1.211691   175A      1.223259   176A      1.226831  
     177A      1.238790   178A      1.250525   179A      1.264447  
     180A      1.265439   181A      1.279167   182A      1.289087  
     183A      1.303144   184A      1.305068   185A      1.315844  
     186A      1.326706   187A      1.344695   188A      1.354075  
     189A      1.360383   190A      1.369718   191A      1.380639  
     192A      1.390617   193A      1.397888   194A      1.413759  
     195A      1.422057   196A      1.432630   197A      1.440140  
     198A      1.445461   199A      1.449158   200A      1.471073  
     201A      1.485211   202A      1.502433   203A      1.512313  
     204A      1.523353   205A      1.533500   206A      1.545833  
     207A      1.554929   208A      1.565678   209A      1.574104  
     210A      1.587551   211A      1.612075   212A      1.616335  
     213A      1.628431   214A      1.638984   215A      1.654606  
     216A      1.665814   217A      1.670377   218A      1.678250  
     219A      1.717769   220A      1.719420   221A      1.733157  
     222A      1.740479   223A      1.767529   224A      1.771574  
     225A      1.776371   226A      1.781668   227A      1.805355  
     228A      1.808503   229A      1.813537   230A      1.827444  
     231A      1.839395   232A      1.844952   233A      1.859391  
     234A      1.867726   235A      1.882402   236A      1.885527  
     237A      1.897601   238A      1.898048   239A      1.916718  
     240A      1.925540   241A      1.929192   242A      1.940155  
     243A      1.946097   244A      1.956677   245A      1.969115  
     246A      1.982775   247A      1.993475   248A      2.001116  
     249A      2.014889   250A      2.024439   251A      2.051638  
     252A      2.068998   253A      2.075397   254A      2.108098  
     255A      2.118846   256A      2.143938   257A      2.148743  
     258A      2.168883   259A      2.196067   260A      2.226095  
     261A      2.253087   262A      2.281396   263A      2.303567  
     264A      2.335908   265A      2.432965   266A      2.446837  
     267A      2.451296   268A      2.470560   269A      2.478910  
     270A      2.486208   271A      2.503840   272A      2.516631  
     273A      2.522877   274A      2.539282   275A      2.548228  
     276A      2.557243   277A      2.571882   278A      2.576820  
     279A      2.595801   280A      2.600194   281A      2.609326  
     282A      2.609559   283A      2.626910   284A      2.636503  
     285A      2.644673   286A      2.662459   287A      2.665117  
     288A      2.676332   289A      2.679538   290A      2.683190  
     291A      2.709667   292A      2.716112   293A      2.738139  
     294A      2.744968   295A      2.749827   296A      2.759915  
     297A      2.772275   298A      2.793482   299A      2.798489  
     300A      2.808859   301A      2.815937   302A      2.823546  
     303A      2.832817   304A      2.842085   305A      2.867521  
     306A      2.888418   307A      2.906774   308A      2.918464  
     309A      2.933066   310A      2.941254   311A      2.962806  
     312A      2.973635   313A      3.005214   314A      3.013627  
     315A      3.038639   316A      3.047790   317A      3.069678  
     318A      3.088587   319A      3.095714   320A      3.117999  
     321A      3.158236   322A      3.185047   323A      3.192136  
     324A      3.214662   325A      3.228777   326A      3.243525  
     327A      3.253179   328A      3.258709   329A      3.269020  
     330A      3.272407   331A      3.305143   332A      3.311833  
     333A      3.324149   334A      3.344088   335A      3.367259  
     336A      3.374449   337A      3.390017   338A      3.398863  
     339A      3.407295   340A      3.444311   341A      3.457486  
     342A      3.486464   343A      3.508097   344A      3.534271  
     345A      3.565641   346A      3.588244   347A      3.598831  
     348A      3.617302   349A      3.619020   350A      3.644662  
     351A      3.670908   352A      3.694583   353A      3.704383  
     354A      3.712632   355A      3.730536   356A      3.756257  
     357A      3.769981   358A      3.783475   359A      3.822636  
     360A      3.826683   361A      3.846489   362A      3.880196  
     363A      3.904662   364A      3.938228   365A      3.964089  
     366A      4.041793   367A      4.079176   368A      4.134339  
     369A      4.144513   370A      4.210619   371A      4.233163  
     372A      4.276577   373A      4.299510   374A      4.315987  
     375A      4.336039   376A      4.357290   377A      4.363906  
     378A      4.400769   379A      4.405734   380A      4.421673  
     381A      4.440215   382A      4.455730   383A      4.470669  
     384A      4.480491   385A      4.484732   386A      4.509103  
     387A      4.515570   388A      4.518873   389A      4.543727  
     390A      4.547102   391A      4.558226   392A      4.574609  
     393A      4.606824   394A      4.619933   395A      4.635478  
     396A      4.644360   397A      4.653211   398A      4.679150  
     399A      4.700026   400A      4.722467   401A      4.734559  
     402A      4.737353   403A      4.757806   404A      4.770112  
     405A      4.785769   406A      4.798501   407A      4.816525  
     408A      4.847219   409A      4.849187   410A      4.886802  
     411A      4.923684   412A      4.940818   413A      4.946377  
     414A      4.967573   415A      4.997822   416A      5.003165  
     417A      5.008658   418A      5.025437   419A      5.028698  
     420A      5.045655   421A      5.054298   422A      5.062822  
     423A      5.079978   424A      5.097719   425A      5.125920  
     426A      5.150531   427A      5.194933   428A      5.218646  
     429A      5.232891   430A      5.251669   431A      5.276712  
     432A      5.300716   433A      5.320917   434A      5.338347  
     435A      5.351678   436A      5.377002   437A      5.424324  
     438A      5.450045   439A      5.483383   440A      5.503328  
     441A      5.519044   442A      5.539198   443A      5.548721  
     444A      5.560953   445A      5.579023   446A      5.592793  
     447A      5.642460   448A      5.650799   449A      5.667289  
     450A      5.672602   451A      5.687067   452A      5.717575  
     453A      5.726049   454A      5.748719   455A      5.754265  
     456A      5.789690   457A      5.871429   458A      5.914641  
     459A      5.963613   460A      5.976678   461A      6.048931  
     462A      6.167381   463A      6.198511   464A      6.234933  
     465A      6.282319   466A      6.311765   467A      6.328650  
     468A      6.382246   469A      6.398525   470A      6.459024  
     471A      6.576175   472A      6.590417   473A      6.636172  
     474A      6.670207   475A      6.756868   476A      6.801618  
     477A      6.812418   478A      6.837081   479A      6.923398  
     480A      6.986982   481A      6.998288   482A      7.021890  
     483A      7.042165   484A      7.113569   485A      7.150571  
     486A      7.246720   487A      7.297221   488A      7.317556  
     489A      7.373679   490A      7.431313   491A      7.518087  
     492A      7.671239   493A      7.705261   494A      7.716296  
     495A      7.761237   496A      7.784776   497A      7.805892  
     498A      7.827739   499A      7.846941   500A      7.860346  
     501A      7.891664   502A      7.970247   503A      7.989090  
     504A      8.049044   505A      8.070825   506A      8.108598  
     507A      8.117406   508A      8.125190   509A      8.157878  
     510A      8.191676   511A      8.215557   512A      8.260169  
     513A      8.298481   514A      8.309928   515A      8.334515  
     516A      8.345757   517A      8.348854   518A      8.370962  
     519A      8.426338   520A      8.636424   521A      8.707577  
     522A      8.741314   523A      8.758355   524A      8.779995  
     525A      8.836630   526A      8.908723   527A      8.951976  
     528A      8.982948   529A      9.025895   530A      9.180954  
     531A      9.729344   532A      9.774505   533A      9.788038  
     534A      9.809063   535A      9.855806   536A      9.882414  
     537A      9.910500   538A      9.956119   539A      9.991409  
     540A      9.996573   541A     10.061199   542A     10.111841  
     543A     10.126517   544A     10.146906   545A     10.183973  
     546A     10.202923   547A     10.275044   548A     10.294467  
     549A     10.333845   550A     10.425104   551A     10.429311  
     552A     10.461281   553A     10.529521   554A     10.606009  
     555A     10.651622   556A     10.711210   557A     10.900580  
     558A     10.945291   559A     11.066876   560A     11.117633  
     561A     11.197947   562A     11.374839   563A     11.692005  
     564A     11.736031   565A     11.782228   566A     11.804505  
     567A     11.893183   568A     11.948270   569A     11.966743  
     570A     12.025601   571A     12.148215   572A     12.423987  
     573A     12.552961   574A     13.268723   575A     13.342838  
     576A     13.366990   577A     13.404722   578A     13.428197  
     579A     13.488016   580A     13.505803   581A     13.631391  
     582A     13.727290   583A     13.827399   584A     13.969374  
     585A     14.006891   586A     14.055473   587A     14.079580  
     588A     14.096833   589A     15.225218   590A     15.339420  
     591A     15.381976   592A     16.791881   593A     63.848838  
     594A     64.779626   595A     65.889699   596A     66.595859  
     597A     67.901439   598A     75.242232  

    Final Occupation by Irrep:
              A 
    DOCC [     5 ]
    NA   [     5 ]
    NB   [     5 ]

  @DF-RHF Final Energy:   -76.05937258840694

   => Energetics <=

    Nuclear Repulsion Energy =              9.0841614090268159
    One-Electron Energy =                -122.8425264563157100
    Two-Electron Energy =                  37.6989924588819534
    Total Energy =                        -76.0593725884069443

Computation Completed


Properties will be evaluated at   0.000000,   0.000000,   0.000000 [a0]

Properties computed using the SCF density matrix


 Multipole Moments:

 ------------------------------------------------------------------------------------
     Multipole            Electronic (a.u.)      Nuclear  (a.u.)        Total (a.u.)
 ------------------------------------------------------------------------------------

 L = 1.  Multiply by 2.5417464519 to convert [e a0] to [Debye]
 Dipole X            :        -28.3550557           27.6603786           -0.6946771
 Dipole Y            :        -28.1532818           27.8611393           -0.2921424
 Dipole Z            :         35.2091364          -35.4629671           -0.2538307
 Magnitude           :                                                    0.7952065

 ------------------------------------------------------------------------------------

*** tstop() called on ddmfs1 at Mon Jan 22 17:51:54 2024
Module time:
	user time   =     128.17 seconds =       2.14 minutes
	system time =       5.62 seconds =       0.09 minutes
	total time  =          8 seconds =       0.13 minutes
Total time:
	user time   =     128.17 seconds =       2.14 minutes
	system time =       5.62 seconds =       0.09 minutes
	total time  =          8 seconds =       0.13 minutes

*** tstart() called on ddmfs1
*** at Mon Jan 22 17:51:54 2024


  //>>>>>>>>>>>>>>>>>>>>>>>>>>>>>>>>>>>//
  //               DFMP2               //
  //<<<<<<<<<<<<<<<<<<<<<<<<<<<<<<<<<<<//

   => Loading Basis Set <=

    Name: (AUG-CC-PVTZ AUX)
    Role: RIFIT
    Keyword: DF_BASIS_MP2
    atoms 1                                   entry F          line   322 file /ddmfs1b/softs/psi4conda/share/psi4/basis/aug-cc-pvtz-ri.gbs 
    atoms 2, 5, 8, 11, 14, 17                 entry O          line   264 file /ddmfs1b/softs/psi4conda/share/psi4/basis/aug-cc-pvtz-ri.gbs 
    atoms 3-4, 6-7, 9-10, 12-13, 15-16, 18-19 entry H          line    30 file /ddmfs1b/softs/psi4conda/share/psi4/basis/aug-cc-pvtz-ri.gbs 

	 --------------------------------------------------------
	                          DF-MP2                         
	      2nd-Order Density-Fitted Moller-Plesset Theory     
	              RMP2 Wavefunction,  20 Threads             
	                                                         
	        Rob Parrish, Justin Turney, Andy Simmonett,      
	           Ed Hohenstein, and C. David Sherrill          
	 --------------------------------------------------------

   => Auxiliary Basis Set <=

  Basis Set: (AUG-CC-PVTZ AUX)
    Blend: AUG-CC-PVTZ-RI
    Number of shells: 364
    Number of basis functions: 1294
    Number of Cartesian functions: 1612
    Spherical Harmonics?: true
    Max angular momentum: 4

	 --------------------------------------------------------
	                 NBF =   598, NAUX =  1294
	 --------------------------------------------------------
	   CLASS    FOCC     OCC    AOCC    AVIR     VIR    FVIR
	   PAIRS       0       5       5     593     593       0
	 --------------------------------------------------------

	-----------------------------------------------------------
	 ==================> DF-MP2 Energies <==================== 
	-----------------------------------------------------------
	 Reference Energy          =     -76.0593725884069443 [Eh]
	 Singles Energy            =      -0.0000000000000000 [Eh]
	 Same-Spin Energy          =      -0.0686530604777986 [Eh]
	 Opposite-Spin Energy      =      -0.2167696523097782 [Eh]
	 Correlation Energy        =      -0.2854227127875769 [Eh]
	 Total Energy              =     -76.3447953011945231 [Eh]
	-----------------------------------------------------------
	 ================> DF-SCS-MP2 Energies <================== 
	-----------------------------------------------------------
	 SCS Same-Spin Scale       =       0.3333333333333333 [-]
	 SCS Opposite-Spin Scale   =       1.2000000000000000 [-]
	 SCS Same-Spin Energy      =      -0.0228843534925995 [Eh]
	 SCS Opposite-Spin Energy  =      -0.2601235827717339 [Eh]
	 SCS Correlation Energy    =      -0.2830079362643334 [Eh]
	 SCS Total Energy          =     -76.3423805246712845 [Eh]
	-----------------------------------------------------------


*** tstop() called on ddmfs1 at Mon Jan 22 17:51:59 2024
Module time:
	user time   =      33.20 seconds =       0.55 minutes
	system time =       1.84 seconds =       0.03 minutes
	total time  =          5 seconds =       0.08 minutes
Total time:
	user time   =     161.39 seconds =       2.69 minutes
	system time =       7.46 seconds =       0.12 minutes
	total time  =         13 seconds =       0.22 minutes

    Psi4 stopped on: Monday, 22 January 2024 05:51PM
    Psi4 wall time for execution: 0:00:13.39

*** Psi4 exiting successfully. Buy a developer a beer!
