
    -----------------------------------------------------------------------
          Psi4: An Open-Source Ab Initio Electronic Structure Package
                               Psi4 1.8.2 release

                         Git: Rev {} zzzzzzz 


    D. G. A. Smith, L. A. Burns, A. C. Simmonett, R. M. Parrish,
    M. C. Schieber, R. Galvelis, P. Kraus, H. Kruse, R. Di Remigio,
    A. Alenaizan, A. M. James, S. Lehtola, J. P. Misiewicz, M. Scheurer,
    R. A. Shaw, J. B. Schriber, Y. Xie, Z. L. Glick, D. A. Sirianni,
    J. S. O'Brien, J. M. Waldrop, A. Kumar, E. G. Hohenstein,
    B. P. Pritchard, B. R. Brooks, H. F. Schaefer III, A. Yu. Sokolov,
    K. Patkowski, A. E. DePrince III, U. Bozkaya, R. A. King,
    F. A. Evangelista, J. M. Turney, T. D. Crawford, C. D. Sherrill,
    J. Chem. Phys. 152(18) 184108 (2020). https://doi.org/10.1063/5.0006002

                            Additional Code Authors
    E. T. Seidl, C. L. Janssen, E. F. Valeev, M. L. Leininger,
    J. F. Gonthier, R. M. Richard, H. R. McAlexander, M. Saitow, X. Wang,
    P. Verma, M. H. Lechner, A. Jiang, S. Behnle, A. G. Heide,
    M. F. Herbst, and D. L. Poole

             Previous Authors, Complete List of Code Contributors,
                       and Citations for Specific Modules
    https://github.com/psi4/psi4/blob/master/codemeta.json
    https://github.com/psi4/psi4/graphs/contributors
    http://psicode.org/psi4manual/master/introduction.html#citing-psifour

    -----------------------------------------------------------------------


    Psi4 started on: Monday, 22 January 2024 06:36PM

    Process ID: 91396
    Host:       ddmfs1
    PSIDATADIR: /ddmfs1b/softs/psi4conda/share/psi4
    Memory:     500.0 MiB
    Threads:    20
    
  ==> Input File <==

--------------------------------------------------------------------------
MEMORY 60 GB

molecule dimer {
0 1
Gh(F)      0.000000     0.000000     0.000000
O          2.510030    -0.661941    -0.832182
H          3.047987     0.136114    -0.766474
H          1.651515    -0.398683    -0.437510
Gh(O)     -1.861163     1.391541     1.823140
Gh(H)     -1.395324     0.891965     1.132552
Gh(H)     -2.167141     2.148676     1.326070
Gh(O)     -0.069818    -1.825737     1.950594
Gh(H)      0.658754    -2.446451     1.867536
Gh(H)     -0.032357    -1.190493     1.210077
Gh(O)      2.118804     1.277032     1.563138
Gh(H)      2.238847     0.825714     2.421086
Gh(H)      1.328717     0.912441     1.134542
Gh(O)     -2.940937    -0.619005    -0.168957
Gh(H)     -2.026060    -0.454747    -0.472925
Gh(H)     -3.379101    -1.135452    -0.844734
Gh(O)      0.534776     0.816487    -2.672079
Gh(H)      0.728932     1.193376    -1.819618
Gh(H)     -0.414644     0.967166    -2.819436

units ang
no_reorient
no_com
symmetry c1
}

set {
basis        aug-cc-pVTZ
scf_type     df
}

energy("mp2")
--------------------------------------------------------------------------

  Memory set to  55.879 GiB by Python driver.

Scratch directory: /ddmfs1a/scratch/
   => Libint2 <=

    Primary   basis highest AM E, G, H:  5, 4, 3
    Auxiliary basis highest AM E, G, H:  6, 5, 4
    Onebody   basis highest AM E, G, H:  6, 5, 4
    Solid Harmonics ordering:            gaussian

*** tstart() called on ddmfs1
*** at Mon Jan 22 18:36:01 2024

   => Loading Basis Set <=

    Name: AUG-CC-PVTZ
    Role: ORBITAL
    Keyword: BASIS
    atoms 1                                   entry F          line   377 file /ddmfs1b/softs/psi4conda/share/psi4/basis/aug-cc-pvtz.gbs 
    atoms 2, 5, 8, 11, 14, 17                 entry O          line   331 file /ddmfs1b/softs/psi4conda/share/psi4/basis/aug-cc-pvtz.gbs 
    atoms 3-4, 6-7, 9-10, 12-13, 15-16, 18-19 entry H          line    40 file /ddmfs1b/softs/psi4conda/share/psi4/basis/aug-cc-pvtz.gbs 


         ---------------------------------------------------------
                                   SCF
               by Justin Turney, Rob Parrish, Andy Simmonett
                          and Daniel G. A. Smith
                              RHF Reference
                       20 Threads,  57220 MiB Core
         ---------------------------------------------------------

  ==> Geometry <==

    Molecular point group: c1
    Full point group: C1

    Geometry (in Angstrom), charge = 0, multiplicity = 1:

       Center              X                  Y                   Z               Mass       
    ------------   -----------------  -----------------  -----------------  -----------------
      Gh(F)           0.000000000000     0.000000000000     0.000000000000    18.998403162730
         O            2.510030000000    -0.661941000000    -0.832182000000    15.994914619570
         H            3.047987000000     0.136114000000    -0.766474000000     1.007825032230
         H            1.651515000000    -0.398683000000    -0.437510000000     1.007825032230
      Gh(O)          -1.861163000000     1.391541000000     1.823140000000    15.994914619570
      Gh(H)          -1.395324000000     0.891965000000     1.132552000000     1.007825032230
      Gh(H)          -2.167141000000     2.148676000000     1.326070000000     1.007825032230
      Gh(O)          -0.069818000000    -1.825737000000     1.950594000000    15.994914619570
      Gh(H)           0.658754000000    -2.446451000000     1.867536000000     1.007825032230
      Gh(H)          -0.032357000000    -1.190493000000     1.210077000000     1.007825032230
      Gh(O)           2.118804000000     1.277032000000     1.563138000000    15.994914619570
      Gh(H)           2.238847000000     0.825714000000     2.421086000000     1.007825032230
      Gh(H)           1.328717000000     0.912441000000     1.134542000000     1.007825032230
      Gh(O)          -2.940937000000    -0.619005000000    -0.168957000000    15.994914619570
      Gh(H)          -2.026060000000    -0.454747000000    -0.472925000000     1.007825032230
      Gh(H)          -3.379101000000    -1.135452000000    -0.844734000000     1.007825032230
      Gh(O)           0.534776000000     0.816487000000    -2.672079000000    15.994914619570
      Gh(H)           0.728932000000     1.193376000000    -1.819618000000     1.007825032230
      Gh(H)          -0.414644000000     0.967166000000    -2.819436000000     1.007825032230

  Running in c1 symmetry.

  Rotational constants: A =      0.03826  B =      0.02887  C =      0.02335 [cm^-1]
  Rotational constants: A =   1146.88016  B =    865.40769  C =    700.06764 [MHz]
  Nuclear repulsion =    9.049983494931963

  Charge       = 0
  Multiplicity = 1
  Electrons    = 10
  Nalpha       = 5
  Nbeta        = 5

  ==> Algorithm <==

  SCF Algorithm Type is DF.
  DIIS enabled.
  MOM disabled.
  Fractional occupation disabled.
  Guess Type is SAD.
  Energy threshold   = 1.00e-08
  Density threshold  = 1.00e-08
  Integral threshold = 1.00e-12

  ==> Primary Basis <==

  Basis Set: AUG-CC-PVTZ
    Blend: AUG-CC-PVTZ
    Number of shells: 206
    Number of basis functions: 598
    Number of Cartesian functions: 685
    Spherical Harmonics?: true
    Max angular momentum: 3

   => Loading Basis Set <=

    Name: (AUG-CC-PVTZ AUX)
    Role: JKFIT
    Keyword: DF_BASIS_SCF
    atoms 1                                   entry F          line   348 file /ddmfs1b/softs/psi4conda/share/psi4/basis/aug-cc-pvtz-jkfit.gbs 
    atoms 2, 5, 8, 11, 14, 17                 entry O          line   286 file /ddmfs1b/softs/psi4conda/share/psi4/basis/aug-cc-pvtz-jkfit.gbs 
    atoms 3-4, 6-7, 9-10, 12-13, 15-16, 18-19 entry H          line    70 file /ddmfs1b/softs/psi4conda/share/psi4/basis/aug-cc-pvtz-jkfit.gbs 

  ==> Integral Setup <==

  DFHelper Memory: AOs need 3.163 GiB; user supplied 41.910 GiB. 
  Using in-core AOs.

  ==> MemDFJK: Density-Fitted J/K Matrices <==

    J tasked:                   Yes
    K tasked:                   Yes
    wK tasked:                   No
    OpenMP threads:              20
    Memory [MiB]:             42915
    Algorithm:                 Core
    Schwarz Cutoff:           1E-12
    Mask sparsity (%):      11.2868
    Fitting Condition:        1E-10

   => Auxiliary Basis Set <=

  Basis Set: (AUG-CC-PVTZ AUX)
    Blend: AUG-CC-PVTZ-JKFIT
    Number of shells: 378
    Number of basis functions: 1280
    Number of Cartesian functions: 1577
    Spherical Harmonics?: true
    Max angular momentum: 4

  Minimum eigenvalue in the overlap matrix is 2.8282706751E-05.
  Reciprocal condition number of the overlap matrix is 1.8495859575E-06.
    Using symmetric orthogonalization.

  ==> Pre-Iterations <==

  SCF Guess: Superposition of Atomic Densities via on-the-fly atomic UHF (no occupation information).

   -------------------------
    Irrep   Nso     Nmo    
   -------------------------
     A        598     598 
   -------------------------
    Total     598     598
   -------------------------

  ==> Iterations <==

                           Total Energy        Delta E     RMS |[F,P]|

   @DF-RHF iter SAD:   -75.46067690589113   -7.54607e+01   0.00000e+00 
   @DF-RHF iter   1:   -75.97405838163185   -5.13381e-01   7.81746e-04 ADIIS/DIIS
   @DF-RHF iter   2:   -76.02615448166740   -5.20961e-02   5.41318e-04 ADIIS/DIIS
   @DF-RHF iter   3:   -76.05867047897121   -3.25160e-02   3.68646e-05 DIIS
   @DF-RHF iter   4:   -76.05907876888911   -4.08290e-04   9.09054e-06 DIIS
   @DF-RHF iter   5:   -76.05910617239572   -2.74035e-05   2.09760e-06 DIIS
   @DF-RHF iter   6:   -76.05910847168234   -2.29929e-06   4.60457e-07 DIIS
   @DF-RHF iter   7:   -76.05910859255542   -1.20873e-07   8.17612e-08 DIIS
   @DF-RHF iter   8:   -76.05910859587031   -3.31490e-09   1.39057e-08 DIIS
   @DF-RHF iter   9:   -76.05910859594698   -7.66676e-11   3.50151e-09 DIIS
  Energy and wave function converged.


  ==> Post-Iterations <==

    Orbital Energies [Eh]
    ---------------------

    Doubly Occupied:                                                      

       1A    -20.570082     2A     -1.346153     3A     -0.707979  
       4A     -0.583214     5A     -0.509274  

    Virtual:                                                              

       6A      0.014322     7A      0.030616     8A      0.035495  
       9A      0.038721    10A      0.052395    11A      0.055319  
      12A      0.059472    13A      0.065400    14A      0.068521  
      15A      0.084510    16A      0.086221    17A      0.089956  
      18A      0.109022    19A      0.125179    20A      0.129393  
      21A      0.137450    22A      0.140999    23A      0.145329  
      24A      0.147562    25A      0.155280    26A      0.160215  
      27A      0.162690    28A      0.168379    29A      0.175121  
      30A      0.176877    31A      0.186371    32A      0.193464  
      33A      0.199505    34A      0.207280    35A      0.210944  
      36A      0.213770    37A      0.219628    38A      0.229357  
      39A      0.233815    40A      0.241603    41A      0.247489  
      42A      0.257483    43A      0.264890    44A      0.272669  
      45A      0.281043    46A      0.291491    47A      0.297554  
      48A      0.306273    49A      0.311346    50A      0.327590  
      51A      0.330532    52A      0.336261    53A      0.338812  
      54A      0.342532    55A      0.344977    56A      0.349992  
      57A      0.360217    58A      0.367592    59A      0.372760  
      60A      0.374107    61A      0.379009    62A      0.382380  
      63A      0.394128    64A      0.394939    65A      0.400054  
      66A      0.402819    67A      0.415066    68A      0.420829  
      69A      0.423681    70A      0.432099    71A      0.435952  
      72A      0.438778    73A      0.447079    74A      0.450145  
      75A      0.458293    76A      0.464144    77A      0.478169  
      78A      0.483688    79A      0.496010    80A      0.502460  
      81A      0.506658    82A      0.520397    83A      0.521080  
      84A      0.541755    85A      0.549747    86A      0.564027  
      87A      0.570956    88A      0.590115    89A      0.601591  
      90A      0.607375    91A      0.631378    92A      0.651671  
      93A      0.653345    94A      0.657251    95A      0.679622  
      96A      0.691099    97A      0.696018    98A      0.706461  
      99A      0.716923   100A      0.730401   101A      0.735757  
     102A      0.745558   103A      0.751401   104A      0.758776  
     105A      0.766008   106A      0.770615   107A      0.778933  
     108A      0.780878   109A      0.785508   110A      0.794289  
     111A      0.805511   112A      0.814296   113A      0.817332  
     114A      0.821742   115A      0.829829   116A      0.835676  
     117A      0.842661   118A      0.846355   119A      0.859350  
     120A      0.866813   121A      0.875359   122A      0.876669  
     123A      0.881329   124A      0.883926   125A      0.889602  
     126A      0.896885   127A      0.898703   128A      0.904904  
     129A      0.905934   130A      0.913700   131A      0.917827  
     132A      0.922090   133A      0.940607   134A      0.942165  
     135A      0.945954   136A      0.949509   137A      0.961469  
     138A      0.962444   139A      0.970200   140A      0.979465  
     141A      0.985024   142A      0.992573   143A      1.000644  
     144A      1.005096   145A      1.009588   146A      1.025924  
     147A      1.030149   148A      1.036771   149A      1.038741  
     150A      1.043195   151A      1.049749   152A      1.060211  
     153A      1.064061   154A      1.072097   155A      1.080442  
     156A      1.082878   157A      1.089249   158A      1.093422  
     159A      1.103146   160A      1.107067   161A      1.117561  
     162A      1.126566   163A      1.135956   164A      1.139855  
     165A      1.146150   166A      1.163662   167A      1.166369  
     168A      1.171053   169A      1.177533   170A      1.188581  
     171A      1.198361   172A      1.206831   173A      1.210193  
     174A      1.225857   175A      1.228630   176A      1.242195  
     177A      1.255142   178A      1.265524   179A      1.267563  
     180A      1.268576   181A      1.281735   182A      1.286781  
     183A      1.302933   184A      1.313945   185A      1.317436  
     186A      1.328582   187A      1.335132   188A      1.356874  
     189A      1.364927   190A      1.372576   191A      1.384853  
     192A      1.394322   193A      1.399001   194A      1.409629  
     195A      1.425994   196A      1.434071   197A      1.444272  
     198A      1.465183   199A      1.469242   200A      1.477662  
     201A      1.500218   202A      1.521778   203A      1.528979  
     204A      1.541026   205A      1.543579   206A      1.550967  
     207A      1.561062   208A      1.566048   209A      1.591884  
     210A      1.600462   211A      1.616712   212A      1.623381  
     213A      1.628622   214A      1.644146   215A      1.656975  
     216A      1.671791   217A      1.677969   218A      1.683127  
     219A      1.700373   220A      1.712681   221A      1.724090  
     222A      1.731128   223A      1.750246   224A      1.754773  
     225A      1.768506   226A      1.773904   227A      1.780308  
     228A      1.789668   229A      1.802512   230A      1.812516  
     231A      1.825793   232A      1.832586   233A      1.842926  
     234A      1.854099   235A      1.859696   236A      1.877982  
     237A      1.893868   238A      1.898079   239A      1.908139  
     240A      1.924318   241A      1.931787   242A      1.941277  
     243A      1.947771   244A      1.957277   245A      1.967084  
     246A      1.988646   247A      2.005368   248A      2.013108  
     249A      2.016025   250A      2.021761   251A      2.033989  
     252A      2.061738   253A      2.065586   254A      2.080886  
     255A      2.125644   256A      2.131090   257A      2.165541  
     258A      2.207042   259A      2.236000   260A      2.257129  
     261A      2.294059   262A      2.326034   263A      2.372288  
     264A      2.423939   265A      2.454520   266A      2.462838  
     267A      2.470266   268A      2.483919   269A      2.498858  
     270A      2.501748   271A      2.513603   272A      2.524226  
     273A      2.540521   274A      2.548547   275A      2.553496  
     276A      2.560363   277A      2.566975   278A      2.572399  
     279A      2.581060   280A      2.594796   281A      2.607094  
     282A      2.613992   283A      2.619821   284A      2.640113  
     285A      2.649969   286A      2.661989   287A      2.673249  
     288A      2.678550   289A      2.689793   290A      2.696408  
     291A      2.711564   292A      2.714744   293A      2.722099  
     294A      2.735002   295A      2.751403   296A      2.751967  
     297A      2.759746   298A      2.778293   299A      2.781860  
     300A      2.802735   301A      2.821261   302A      2.825814  
     303A      2.838578   304A      2.857067   305A      2.876341  
     306A      2.880035   307A      2.896775   308A      2.917572  
     309A      2.920632   310A      2.936956   311A      2.943870  
     312A      2.964784   313A      2.981754   314A      2.995192  
     315A      3.027771   316A      3.040975   317A      3.065308  
     318A      3.090145   319A      3.125858   320A      3.148570  
     321A      3.172944   322A      3.192884   323A      3.202651  
     324A      3.220269   325A      3.222645   326A      3.234837  
     327A      3.238710   328A      3.249676   329A      3.260612  
     330A      3.274216   331A      3.284666   332A      3.300948  
     333A      3.308719   334A      3.323181   335A      3.343801  
     336A      3.362805   337A      3.384172   338A      3.393434  
     339A      3.415800   340A      3.422108   341A      3.472259  
     342A      3.493711   343A      3.502707   344A      3.512334  
     345A      3.526290   346A      3.538695   347A      3.563347  
     348A      3.600876   349A      3.610657   350A      3.623469  
     351A      3.626402   352A      3.655978   353A      3.685256  
     354A      3.706643   355A      3.733233   356A      3.758574  
     357A      3.767045   358A      3.791680   359A      3.806675  
     360A      3.840171   361A      3.855536   362A      3.881525  
     363A      3.897348   364A      3.968979   365A      4.030065  
     366A      4.074540   367A      4.138649   368A      4.158339  
     369A      4.171006   370A      4.189802   371A      4.215207  
     372A      4.252386   373A      4.315002   374A      4.337860  
     375A      4.355658   376A      4.375457   377A      4.388638  
     378A      4.434162   379A      4.436703   380A      4.460295  
     381A      4.476423   382A      4.483385   383A      4.491757  
     384A      4.502631   385A      4.511838   386A      4.515508  
     387A      4.535009   388A      4.550167   389A      4.557819  
     390A      4.567891   391A      4.569261   392A      4.601245  
     393A      4.613251   394A      4.623132   395A      4.634958  
     396A      4.644260   397A      4.657634   398A      4.669597  
     399A      4.683379   400A      4.692505   401A      4.711933  
     402A      4.716606   403A      4.735633   404A      4.753221  
     405A      4.782077   406A      4.795215   407A      4.804005  
     408A      4.812211   409A      4.835728   410A      4.864939  
     411A      4.920605   412A      4.939179   413A      4.948732  
     414A      4.951478   415A      4.963806   416A      4.987335  
     417A      4.997366   418A      4.999789   419A      5.022046  
     420A      5.024129   421A      5.055664   422A      5.059748  
     423A      5.078641   424A      5.094590   425A      5.118409  
     426A      5.120938   427A      5.172121   428A      5.182520  
     429A      5.218395   430A      5.221664   431A      5.262211  
     432A      5.285896   433A      5.332714   434A      5.352180  
     435A      5.385323   436A      5.396256   437A      5.427695  
     438A      5.443866   439A      5.501020   440A      5.547458  
     441A      5.561452   442A      5.567005   443A      5.590305  
     444A      5.599498   445A      5.614220   446A      5.624558  
     447A      5.636510   448A      5.652242   449A      5.658381  
     450A      5.681547   451A      5.701590   452A      5.713204  
     453A      5.718911   454A      5.748749   455A      5.783600  
     456A      5.848560   457A      5.883703   458A      5.912128  
     459A      5.926745   460A      5.957908   461A      6.000432  
     462A      6.168636   463A      6.208981   464A      6.222092  
     465A      6.255190   466A      6.363817   467A      6.392832  
     468A      6.437066   469A      6.448869   470A      6.461259  
     471A      6.485349   472A      6.595824   473A      6.600912  
     474A      6.709687   475A      6.721305   476A      6.767633  
     477A      6.815330   478A      6.841730   479A      6.885875  
     480A      6.983340   481A      7.084661   482A      7.104972  
     483A      7.121287   484A      7.127485   485A      7.138502  
     486A      7.273254   487A      7.349853   488A      7.367103  
     489A      7.393289   490A      7.502745   491A      7.614144  
     492A      7.710321   493A      7.739959   494A      7.759944  
     495A      7.774893   496A      7.779732   497A      7.802273  
     498A      7.827787   499A      7.835618   500A      7.854185  
     501A      7.883395   502A      7.931548   503A      8.003691  
     504A      8.058512   505A      8.080272   506A      8.095774  
     507A      8.118183   508A      8.126671   509A      8.139549  
     510A      8.216303   511A      8.243651   512A      8.258669  
     513A      8.281545   514A      8.295420   515A      8.315947  
     516A      8.328761   517A      8.341705   518A      8.359307  
     519A      8.369895   520A      8.753802   521A      8.805703  
     522A      8.809955   523A      8.822697   524A      8.835914  
     525A      8.872974   526A      8.929817   527A      8.934561  
     528A      9.026277   529A      9.048126   530A      9.090978  
     531A      9.739800   532A      9.770957   533A      9.798749  
     534A      9.821103   535A      9.841199   536A      9.886283  
     537A      9.914340   538A      9.920224   539A      9.925916  
     540A      9.943818   541A     10.064751   542A     10.077694  
     543A     10.127261   544A     10.147984   545A     10.152724  
     546A     10.254086   547A     10.289473   548A     10.304291  
     549A     10.320048   550A     10.357712   551A     10.380985  
     552A     10.506700   553A     10.544119   554A     10.646365  
     555A     10.677670   556A     10.788715   557A     10.832101  
     558A     11.154600   559A     11.193471   560A     11.204058  
     561A     11.238066   562A     11.296905   563A     11.722758  
     564A     11.748763   565A     11.774064   566A     11.862652  
     567A     11.906218   568A     11.933228   569A     12.115334  
     570A     12.186953   571A     12.243246   572A     12.311239  
     573A     12.648869   574A     13.272818   575A     13.285235  
     576A     13.405003   577A     13.452193   578A     13.520466  
     579A     13.609495   580A     13.645544   581A     13.667813  
     582A     13.771778   583A     13.812366   584A     13.927681  
     585A     14.000495   586A     14.041819   587A     14.058575  
     588A     14.104473   589A     15.186856   590A     15.259947  
     591A     15.474002   592A     17.201776   593A     65.321497  
     594A     65.645725   595A     66.578123   596A     67.008504  
     597A     67.391992   598A     75.719763  

    Final Occupation by Irrep:
              A 
    DOCC [     5 ]
    NA   [     5 ]
    NB   [     5 ]

  @DF-RHF Final Energy:   -76.05910859594698

   => Energetics <=

    Nuclear Repulsion Energy =              9.0499834949319631
    One-Electron Energy =                -122.7847764588870660
    Two-Electron Energy =                  37.6756843680081133
    Total Energy =                        -76.0591085959469808

Computation Completed


Properties will be evaluated at   0.000000,   0.000000,   0.000000 [a0]

Properties computed using the SCF density matrix


 Multipole Moments:

 ------------------------------------------------------------------------------------
     Multipole            Electronic (a.u.)      Nuclear  (a.u.)        Total (a.u.)
 ------------------------------------------------------------------------------------

 L = 1.  Multiply by 2.5417464519 to convert [e a0] to [Debye]
 Dipole X            :        -47.0353718           46.8269258           -0.2084460
 Dipole Y            :         11.2018406          -10.5032811            0.6985595
 Dipole Z            :         15.1581593          -14.8559686            0.3021907
 Magnitude           :                                                    0.7891478

 ------------------------------------------------------------------------------------

*** tstop() called on ddmfs1 at Mon Jan 22 18:36:09 2024
Module time:
	user time   =     126.69 seconds =       2.11 minutes
	system time =       5.66 seconds =       0.09 minutes
	total time  =          8 seconds =       0.13 minutes
Total time:
	user time   =     126.69 seconds =       2.11 minutes
	system time =       5.66 seconds =       0.09 minutes
	total time  =          8 seconds =       0.13 minutes

*** tstart() called on ddmfs1
*** at Mon Jan 22 18:36:09 2024


  //>>>>>>>>>>>>>>>>>>>>>>>>>>>>>>>>>>>//
  //               DFMP2               //
  //<<<<<<<<<<<<<<<<<<<<<<<<<<<<<<<<<<<//

   => Loading Basis Set <=

    Name: (AUG-CC-PVTZ AUX)
    Role: RIFIT
    Keyword: DF_BASIS_MP2
    atoms 1                                   entry F          line   322 file /ddmfs1b/softs/psi4conda/share/psi4/basis/aug-cc-pvtz-ri.gbs 
    atoms 2, 5, 8, 11, 14, 17                 entry O          line   264 file /ddmfs1b/softs/psi4conda/share/psi4/basis/aug-cc-pvtz-ri.gbs 
    atoms 3-4, 6-7, 9-10, 12-13, 15-16, 18-19 entry H          line    30 file /ddmfs1b/softs/psi4conda/share/psi4/basis/aug-cc-pvtz-ri.gbs 

	 --------------------------------------------------------
	                          DF-MP2                         
	      2nd-Order Density-Fitted Moller-Plesset Theory     
	              RMP2 Wavefunction,  20 Threads             
	                                                         
	        Rob Parrish, Justin Turney, Andy Simmonett,      
	           Ed Hohenstein, and C. David Sherrill          
	 --------------------------------------------------------

   => Auxiliary Basis Set <=

  Basis Set: (AUG-CC-PVTZ AUX)
    Blend: AUG-CC-PVTZ-RI
    Number of shells: 364
    Number of basis functions: 1294
    Number of Cartesian functions: 1612
    Spherical Harmonics?: true
    Max angular momentum: 4

	 --------------------------------------------------------
	                 NBF =   598, NAUX =  1294
	 --------------------------------------------------------
	   CLASS    FOCC     OCC    AOCC    AVIR     VIR    FVIR
	   PAIRS       0       5       5     593     593       0
	 --------------------------------------------------------

	-----------------------------------------------------------
	 ==================> DF-MP2 Energies <==================== 
	-----------------------------------------------------------
	 Reference Energy          =     -76.0591085959469808 [Eh]
	 Singles Energy            =      -0.0000000000000000 [Eh]
	 Same-Spin Energy          =      -0.0687203108512920 [Eh]
	 Opposite-Spin Energy      =      -0.2172740128585918 [Eh]
	 Correlation Energy        =      -0.2859943237098839 [Eh]
	 Total Energy              =     -76.3451029196568669 [Eh]
	-----------------------------------------------------------
	 ================> DF-SCS-MP2 Energies <================== 
	-----------------------------------------------------------
	 SCS Same-Spin Scale       =       0.3333333333333333 [-]
	 SCS Opposite-Spin Scale   =       1.2000000000000000 [-]
	 SCS Same-Spin Energy      =      -0.0229067702837640 [Eh]
	 SCS Opposite-Spin Energy  =      -0.2607288154303102 [Eh]
	 SCS Correlation Energy    =      -0.2836355857140742 [Eh]
	 SCS Total Energy          =     -76.3427441816610610 [Eh]
	-----------------------------------------------------------


*** tstop() called on ddmfs1 at Mon Jan 22 18:36:15 2024
Module time:
	user time   =      32.91 seconds =       0.55 minutes
	system time =       1.75 seconds =       0.03 minutes
	total time  =          6 seconds =       0.10 minutes
Total time:
	user time   =     159.62 seconds =       2.66 minutes
	system time =       7.41 seconds =       0.12 minutes
	total time  =         14 seconds =       0.23 minutes

    Psi4 stopped on: Monday, 22 January 2024 06:36PM
    Psi4 wall time for execution: 0:00:13.24

*** Psi4 exiting successfully. Buy a developer a beer!
