
    -----------------------------------------------------------------------
          Psi4: An Open-Source Ab Initio Electronic Structure Package
                               Psi4 1.8.2 release

                         Git: Rev {} zzzzzzz 


    D. G. A. Smith, L. A. Burns, A. C. Simmonett, R. M. Parrish,
    M. C. Schieber, R. Galvelis, P. Kraus, H. Kruse, R. Di Remigio,
    A. Alenaizan, A. M. James, S. Lehtola, J. P. Misiewicz, M. Scheurer,
    R. A. Shaw, J. B. Schriber, Y. Xie, Z. L. Glick, D. A. Sirianni,
    J. S. O'Brien, J. M. Waldrop, A. Kumar, E. G. Hohenstein,
    B. P. Pritchard, B. R. Brooks, H. F. Schaefer III, A. Yu. Sokolov,
    K. Patkowski, A. E. DePrince III, U. Bozkaya, R. A. King,
    F. A. Evangelista, J. M. Turney, T. D. Crawford, C. D. Sherrill,
    J. Chem. Phys. 152(18) 184108 (2020). https://doi.org/10.1063/5.0006002

                            Additional Code Authors
    E. T. Seidl, C. L. Janssen, E. F. Valeev, M. L. Leininger,
    J. F. Gonthier, R. M. Richard, H. R. McAlexander, M. Saitow, X. Wang,
    P. Verma, M. H. Lechner, A. Jiang, S. Behnle, A. G. Heide,
    M. F. Herbst, and D. L. Poole

             Previous Authors, Complete List of Code Contributors,
                       and Citations for Specific Modules
    https://github.com/psi4/psi4/blob/master/codemeta.json
    https://github.com/psi4/psi4/graphs/contributors
    http://psicode.org/psi4manual/master/introduction.html#citing-psifour

    -----------------------------------------------------------------------


    Psi4 started on: Monday, 22 January 2024 05:23PM

    Process ID: 83888
    Host:       ddmfs1
    PSIDATADIR: /ddmfs1b/softs/psi4conda/share/psi4
    Memory:     500.0 MiB
    Threads:    20
    
  ==> Input File <==

--------------------------------------------------------------------------
MEMORY 60 GB

molecule dimer {
0 1
Gh(F)      0.000000     0.000000     0.000000
Gh(O)     -0.057118     2.692147    -0.976789
Gh(H)      0.731116     3.225705    -0.805216
Gh(H)      0.209827     1.795792    -0.774691
O          0.486465    -2.407014     1.207865
H          0.269082    -1.731333     0.576353
H          1.158872    -2.081555     1.761537
Gh(O)      2.743152     0.252394     0.166207
Gh(H)      2.913143     0.164435    -0.786041
Gh(H)      1.744815     0.219563     0.238161
Gh(O)      0.021137     0.684540     2.677081
Gh(H)     -0.147829     0.359385     1.789779
Gh(H)     -0.892075     0.785151     3.140166
Gh(O)     -2.468711    -1.509440    -0.488093
Gh(H)     -1.632848    -1.124206    -0.091186
Gh(H)     -2.494928    -1.207266    -1.445224
Gh(O)     -0.643514    -0.967018    -2.526052
Gh(H)     -0.484782    -0.177777    -1.974885
Gh(H)     -0.087133    -1.668284    -2.070015

units ang
no_reorient
no_com
symmetry c1
}

set {
basis        aug-cc-pVTZ
scf_type     df
}

energy("mp2")
--------------------------------------------------------------------------

  Memory set to  55.879 GiB by Python driver.

Scratch directory: /ddmfs1a/scratch/
   => Libint2 <=

    Primary   basis highest AM E, G, H:  5, 4, 3
    Auxiliary basis highest AM E, G, H:  6, 5, 4
    Onebody   basis highest AM E, G, H:  6, 5, 4
    Solid Harmonics ordering:            gaussian

*** tstart() called on ddmfs1
*** at Mon Jan 22 17:23:12 2024

   => Loading Basis Set <=

    Name: AUG-CC-PVTZ
    Role: ORBITAL
    Keyword: BASIS
    atoms 1                                   entry F          line   377 file /ddmfs1b/softs/psi4conda/share/psi4/basis/aug-cc-pvtz.gbs 
    atoms 2, 5, 8, 11, 14, 17                 entry O          line   331 file /ddmfs1b/softs/psi4conda/share/psi4/basis/aug-cc-pvtz.gbs 
    atoms 3-4, 6-7, 9-10, 12-13, 15-16, 18-19 entry H          line    40 file /ddmfs1b/softs/psi4conda/share/psi4/basis/aug-cc-pvtz.gbs 


         ---------------------------------------------------------
                                   SCF
               by Justin Turney, Rob Parrish, Andy Simmonett
                          and Daniel G. A. Smith
                              RHF Reference
                       20 Threads,  57220 MiB Core
         ---------------------------------------------------------

  ==> Geometry <==

    Molecular point group: c1
    Full point group: C1

    Geometry (in Angstrom), charge = 0, multiplicity = 1:

       Center              X                  Y                   Z               Mass       
    ------------   -----------------  -----------------  -----------------  -----------------
      Gh(F)           0.000000000000     0.000000000000     0.000000000000    18.998403162730
      Gh(O)          -0.057118000000     2.692147000000    -0.976789000000    15.994914619570
      Gh(H)           0.731116000000     3.225705000000    -0.805216000000     1.007825032230
      Gh(H)           0.209827000000     1.795792000000    -0.774691000000     1.007825032230
         O            0.486465000000    -2.407014000000     1.207865000000    15.994914619570
         H            0.269082000000    -1.731333000000     0.576353000000     1.007825032230
         H            1.158872000000    -2.081555000000     1.761537000000     1.007825032230
      Gh(O)           2.743152000000     0.252394000000     0.166207000000    15.994914619570
      Gh(H)           2.913143000000     0.164435000000    -0.786041000000     1.007825032230
      Gh(H)           1.744815000000     0.219563000000     0.238161000000     1.007825032230
      Gh(O)           0.021137000000     0.684540000000     2.677081000000    15.994914619570
      Gh(H)          -0.147829000000     0.359385000000     1.789779000000     1.007825032230
      Gh(H)          -0.892075000000     0.785151000000     3.140166000000     1.007825032230
      Gh(O)          -2.468711000000    -1.509440000000    -0.488093000000    15.994914619570
      Gh(H)          -1.632848000000    -1.124206000000    -0.091186000000     1.007825032230
      Gh(H)          -2.494928000000    -1.207266000000    -1.445224000000     1.007825032230
      Gh(O)          -0.643514000000    -0.967018000000    -2.526052000000    15.994914619570
      Gh(H)          -0.484782000000    -0.177777000000    -1.974885000000     1.007825032230
      Gh(H)          -0.087133000000    -1.668284000000    -2.070015000000     1.007825032230

  Running in c1 symmetry.

  Rotational constants: A =      0.03551  B =      0.03142  C =      0.02548 [cm^-1]
  Rotational constants: A =   1064.42559  B =    941.82817  C =    763.89601 [MHz]
  Nuclear repulsion =    9.356289268828135

  Charge       = 0
  Multiplicity = 1
  Electrons    = 10
  Nalpha       = 5
  Nbeta        = 5

  ==> Algorithm <==

  SCF Algorithm Type is DF.
  DIIS enabled.
  MOM disabled.
  Fractional occupation disabled.
  Guess Type is SAD.
  Energy threshold   = 1.00e-08
  Density threshold  = 1.00e-08
  Integral threshold = 1.00e-12

  ==> Primary Basis <==

  Basis Set: AUG-CC-PVTZ
    Blend: AUG-CC-PVTZ
    Number of shells: 206
    Number of basis functions: 598
    Number of Cartesian functions: 685
    Spherical Harmonics?: true
    Max angular momentum: 3

   => Loading Basis Set <=

    Name: (AUG-CC-PVTZ AUX)
    Role: JKFIT
    Keyword: DF_BASIS_SCF
    atoms 1                                   entry F          line   348 file /ddmfs1b/softs/psi4conda/share/psi4/basis/aug-cc-pvtz-jkfit.gbs 
    atoms 2, 5, 8, 11, 14, 17                 entry O          line   286 file /ddmfs1b/softs/psi4conda/share/psi4/basis/aug-cc-pvtz-jkfit.gbs 
    atoms 3-4, 6-7, 9-10, 12-13, 15-16, 18-19 entry H          line    70 file /ddmfs1b/softs/psi4conda/share/psi4/basis/aug-cc-pvtz-jkfit.gbs 

  ==> Integral Setup <==

  DFHelper Memory: AOs need 3.203 GiB; user supplied 41.910 GiB. 
  Using in-core AOs.

  ==> MemDFJK: Density-Fitted J/K Matrices <==

    J tasked:                   Yes
    K tasked:                   Yes
    wK tasked:                   No
    OpenMP threads:              20
    Memory [MiB]:             42915
    Algorithm:                 Core
    Schwarz Cutoff:           1E-12
    Mask sparsity (%):      10.0994
    Fitting Condition:        1E-10

   => Auxiliary Basis Set <=

  Basis Set: (AUG-CC-PVTZ AUX)
    Blend: AUG-CC-PVTZ-JKFIT
    Number of shells: 378
    Number of basis functions: 1280
    Number of Cartesian functions: 1577
    Spherical Harmonics?: true
    Max angular momentum: 4

  Minimum eigenvalue in the overlap matrix is 2.6576417432E-05.
  Reciprocal condition number of the overlap matrix is 1.6528673623E-06.
    Using symmetric orthogonalization.

  ==> Pre-Iterations <==

  SCF Guess: Superposition of Atomic Densities via on-the-fly atomic UHF (no occupation information).

   -------------------------
    Irrep   Nso     Nmo    
   -------------------------
     A        598     598 
   -------------------------
    Total     598     598
   -------------------------

  ==> Iterations <==

                           Total Energy        Delta E     RMS |[F,P]|

   @DF-RHF iter SAD:   -75.49374636734098   -7.54937e+01   0.00000e+00 
   @DF-RHF iter   1:   -75.97764586211554   -4.83899e-01   7.87463e-04 ADIIS/DIIS
   @DF-RHF iter   2:   -76.03074609023594   -5.31002e-02   5.23465e-04 ADIIS/DIIS
   @DF-RHF iter   3:   -76.06060943021683   -2.98633e-02   3.54736e-05 DIIS
   @DF-RHF iter   4:   -76.06097754738383   -3.68117e-04   8.13323e-06 DIIS
   @DF-RHF iter   5:   -76.06099819159706   -2.06442e-05   1.79840e-06 DIIS
   @DF-RHF iter   6:   -76.06099982377069   -1.63217e-06   3.97722e-07 DIIS
   @DF-RHF iter   7:   -76.06099991364212   -8.98714e-08   7.66734e-08 DIIS
   @DF-RHF iter   8:   -76.06099991664946   -3.00734e-09   1.24855e-08 DIIS
   @DF-RHF iter   9:   -76.06099991671141   -6.19451e-11   2.99489e-09 DIIS
  Energy and wave function converged.


  ==> Post-Iterations <==

    Orbital Energies [Eh]
    ---------------------

    Doubly Occupied:                                                      

       1A    -20.562332     2A     -1.360048     3A     -0.734641  
       4A     -0.580886     5A     -0.510759  

    Virtual:                                                              

       6A      0.014581     7A      0.033721     8A      0.034667  
       9A      0.036749    10A      0.056106    11A      0.058986  
      12A      0.060443    13A      0.062663    14A      0.065138  
      15A      0.081952    16A      0.091829    17A      0.094951  
      18A      0.111194    19A      0.117326    20A      0.127206  
      21A      0.131842    22A      0.141000    23A      0.147260  
      24A      0.152522    25A      0.156073    26A      0.161132  
      27A      0.166452    28A      0.170631    29A      0.172686  
      30A      0.181496    31A      0.190051    32A      0.195573  
      33A      0.199581    34A      0.209590    35A      0.209923  
      36A      0.217068    37A      0.221442    38A      0.225625  
      39A      0.229650    40A      0.232803    41A      0.254374  
      42A      0.256149    43A      0.270832    44A      0.274026  
      45A      0.287548    46A      0.295174    47A      0.295632  
      48A      0.311057    49A      0.312972    50A      0.318070  
      51A      0.324080    52A      0.329385    53A      0.337587  
      54A      0.346633    55A      0.354391    56A      0.356240  
      57A      0.362171    58A      0.369313    59A      0.372716  
      60A      0.373979    61A      0.382333    62A      0.390159  
      63A      0.393258    64A      0.398196    65A      0.409940  
      66A      0.416014    67A      0.417749    68A      0.424954  
      69A      0.436611    70A      0.441545    71A      0.445082  
      72A      0.452647    73A      0.462122    74A      0.466838  
      75A      0.473818    76A      0.474662    77A      0.488851  
      78A      0.493688    79A      0.505457    80A      0.513900  
      81A      0.523237    82A      0.535307    83A      0.540293  
      84A      0.547777    85A      0.551034    86A      0.570049  
      87A      0.581898    88A      0.589155    89A      0.598188  
      90A      0.613472    91A      0.624879    92A      0.640404  
      93A      0.669391    94A      0.680239    95A      0.694563  
      96A      0.704475    97A      0.715399    98A      0.720070  
      99A      0.721815   100A      0.733286   101A      0.740311  
     102A      0.748361   103A      0.751191   104A      0.763463  
     105A      0.773286   106A      0.778303   107A      0.789863  
     108A      0.796022   109A      0.801761   110A      0.805831  
     111A      0.810966   112A      0.815146   113A      0.827929  
     114A      0.833991   115A      0.840767   116A      0.844611  
     117A      0.851842   118A      0.854270   119A      0.859579  
     120A      0.870441   121A      0.873047   122A      0.884180  
     123A      0.885189   124A      0.890522   125A      0.896493  
     126A      0.903847   127A      0.908079   128A      0.916179  
     129A      0.922388   130A      0.927639   131A      0.935139  
     132A      0.941415   133A      0.945041   134A      0.954516  
     135A      0.961985   136A      0.969872   137A      0.974240  
     138A      0.981518   139A      0.985817   140A      0.995835  
     141A      1.004123   142A      1.006772   143A      1.010065  
     144A      1.016305   145A      1.021352   146A      1.025312  
     147A      1.029554   148A      1.033123   149A      1.042873  
     150A      1.049672   151A      1.065553   152A      1.067791  
     153A      1.073979   154A      1.076913   155A      1.087719  
     156A      1.094972   157A      1.110476   158A      1.114929  
     159A      1.118674   160A      1.127397   161A      1.131577  
     162A      1.144077   163A      1.153953   164A      1.159425  
     165A      1.166908   166A      1.176493   167A      1.186613  
     168A      1.188189   169A      1.201504   170A      1.208235  
     171A      1.221283   172A      1.226025   173A      1.238403  
     174A      1.244167   175A      1.252455   176A      1.272872  
     177A      1.281142   178A      1.285647   179A      1.298514  
     180A      1.304648   181A      1.324705   182A      1.329274  
     183A      1.337202   184A      1.349950   185A      1.366215  
     186A      1.378072   187A      1.380014   188A      1.390808  
     189A      1.394398   190A      1.401290   191A      1.406241  
     192A      1.417479   193A      1.437343   194A      1.445314  
     195A      1.453941   196A      1.470385   197A      1.477584  
     198A      1.481037   199A      1.486860   200A      1.501175  
     201A      1.509037   202A      1.520392   203A      1.525264  
     204A      1.542670   205A      1.546749   206A      1.560604  
     207A      1.567624   208A      1.590382   209A      1.602459  
     210A      1.617123   211A      1.628056   212A      1.644783  
     213A      1.654474   214A      1.664216   215A      1.691478  
     216A      1.702682   217A      1.711955   218A      1.713167  
     219A      1.730487   220A      1.750720   221A      1.754294  
     222A      1.759569   223A      1.769972   224A      1.772685  
     225A      1.780984   226A      1.784102   227A      1.805708  
     228A      1.815775   229A      1.826628   230A      1.833933  
     231A      1.837518   232A      1.843604   233A      1.857709  
     234A      1.864238   235A      1.881561   236A      1.891693  
     237A      1.898031   238A      1.911764   239A      1.930709  
     240A      1.941007   241A      1.943692   242A      1.953017  
     243A      1.977576   244A      1.990092   245A      2.003582  
     246A      2.009159   247A      2.029790   248A      2.038529  
     249A      2.048515   250A      2.059802   251A      2.073630  
     252A      2.095820   253A      2.120025   254A      2.124411  
     255A      2.155968   256A      2.174859   257A      2.182765  
     258A      2.215243   259A      2.227586   260A      2.286673  
     261A      2.295339   262A      2.338297   263A      2.370677  
     264A      2.390612   265A      2.458621   266A      2.472239  
     267A      2.484387   268A      2.492990   269A      2.503454  
     270A      2.517474   271A      2.529912   272A      2.533422  
     273A      2.540407   274A      2.545749   275A      2.553478  
     276A      2.583980   277A      2.590098   278A      2.602409  
     279A      2.610651   280A      2.617972   281A      2.623229  
     282A      2.648165   283A      2.668108   284A      2.680414  
     285A      2.683400   286A      2.697560   287A      2.704843  
     288A      2.711482   289A      2.718970   290A      2.733296  
     291A      2.741928   292A      2.752428   293A      2.758417  
     294A      2.767755   295A      2.775285   296A      2.783525  
     297A      2.791900   298A      2.800595   299A      2.808763  
     300A      2.832838   301A      2.840198   302A      2.850542  
     303A      2.868565   304A      2.879788   305A      2.894857  
     306A      2.909615   307A      2.915338   308A      2.930866  
     309A      2.954804   310A      2.964064   311A      2.984655  
     312A      2.994377   313A      2.999662   314A      3.028144  
     315A      3.044090   316A      3.056353   317A      3.076395  
     318A      3.102370   319A      3.116091   320A      3.122044  
     321A      3.144802   322A      3.171501   323A      3.187951  
     324A      3.197601   325A      3.201367   326A      3.218255  
     327A      3.227657   328A      3.239996   329A      3.245926  
     330A      3.267824   331A      3.284706   332A      3.313732  
     333A      3.321131   334A      3.351812   335A      3.379853  
     336A      3.391808   337A      3.407524   338A      3.424330  
     339A      3.450338   340A      3.472809   341A      3.490141  
     342A      3.504221   343A      3.520563   344A      3.541249  
     345A      3.563654   346A      3.586573   347A      3.592676  
     348A      3.613848   349A      3.636693   350A      3.671822  
     351A      3.682231   352A      3.688752   353A      3.696174  
     354A      3.731036   355A      3.756691   356A      3.773879  
     357A      3.794572   358A      3.829014   359A      3.846799  
     360A      3.913138   361A      3.922972   362A      3.933631  
     363A      3.965764   364A      3.997045   365A      4.083366  
     366A      4.137453   367A      4.154997   368A      4.178576  
     369A      4.192454   370A      4.252647   371A      4.258954  
     372A      4.272234   373A      4.316721   374A      4.352043  
     375A      4.382902   376A      4.395838   377A      4.431136  
     378A      4.440418   379A      4.450994   380A      4.459258  
     381A      4.470911   382A      4.480589   383A      4.490471  
     384A      4.494368   385A      4.516471   386A      4.518608  
     387A      4.538432   388A      4.548998   389A      4.572750  
     390A      4.585270   391A      4.602701   392A      4.616429  
     393A      4.617999   394A      4.628144   395A      4.633861  
     396A      4.641046   397A      4.665359   398A      4.678518  
     399A      4.686705   400A      4.701249   401A      4.705166  
     402A      4.720764   403A      4.744894   404A      4.767890  
     405A      4.773120   406A      4.795513   407A      4.834027  
     408A      4.862025   409A      4.889537   410A      4.906029  
     411A      4.910242   412A      4.923711   413A      4.940932  
     414A      4.946589   415A      4.966579   416A      4.989310  
     417A      5.006019   418A      5.012484   419A      5.025717  
     420A      5.050763   421A      5.079139   422A      5.098036  
     423A      5.115309   424A      5.117114   425A      5.171191  
     426A      5.180103   427A      5.200566   428A      5.229584  
     429A      5.240170   430A      5.294051   431A      5.320824  
     432A      5.333110   433A      5.354223   434A      5.363981  
     435A      5.395018   436A      5.403791   437A      5.441316  
     438A      5.458355   439A      5.462400   440A      5.470928  
     441A      5.510483   442A      5.516327   443A      5.544061  
     444A      5.572333   445A      5.588416   446A      5.592391  
     447A      5.605985   448A      5.615755   449A      5.626616  
     450A      5.637958   451A      5.646916   452A      5.684870  
     453A      5.713195   454A      5.733791   455A      5.763121  
     456A      5.828584   457A      5.862997   458A      5.938632  
     459A      5.977559   460A      5.992396   461A      6.015076  
     462A      6.196349   463A      6.203190   464A      6.258643  
     465A      6.294437   466A      6.319831   467A      6.354706  
     468A      6.416070   469A      6.426264   470A      6.476220  
     471A      6.500367   472A      6.528802   473A      6.593185  
     474A      6.605034   475A      6.638820   476A      6.643440  
     477A      6.657406   478A      6.744430   479A      6.917539  
     480A      6.970150   481A      7.000357   482A      7.036864  
     483A      7.056564   484A      7.102659   485A      7.142408  
     486A      7.284237   487A      7.391712   488A      7.424997  
     489A      7.438808   490A      7.556235   491A      7.581566  
     492A      7.724350   493A      7.759871   494A      7.793610  
     495A      7.798013   496A      7.834068   497A      7.845684  
     498A      7.868221   499A      7.876990   500A      7.891450  
     501A      7.913610   502A      7.943668   503A      8.017239  
     504A      8.063530   505A      8.075430   506A      8.095081  
     507A      8.113165   508A      8.153672   509A      8.167617  
     510A      8.183763   511A      8.207412   512A      8.225458  
     513A      8.242255   514A      8.263581   515A      8.271819  
     516A      8.289531   517A      8.293624   518A      8.304400  
     519A      8.332584   520A      8.661636   521A      8.696322  
     522A      8.724837   523A      8.748458   524A      8.821183  
     525A      8.846174   526A      8.892557   527A      8.912316  
     528A      8.975328   529A      9.039452   530A      9.071732  
     531A      9.716129   532A      9.765007   533A      9.778236  
     534A      9.798043   535A      9.853878   536A      9.873722  
     537A      9.900270   538A      9.913852   539A      9.938627  
     540A      9.955200   541A     10.075717   542A     10.102046  
     543A     10.109126   544A     10.144564   545A     10.147853  
     546A     10.301980   547A     10.327878   548A     10.351684  
     549A     10.380262   550A     10.410936   551A     10.418552  
     552A     10.538830   553A     10.567639   554A     10.576862  
     555A     10.678887   556A     10.774269   557A     10.866356  
     558A     10.986433   559A     11.019075   560A     11.058739  
     561A     11.170986   562A     11.259854   563A     11.643181  
     564A     11.782659   565A     11.808664   566A     11.824669  
     567A     11.840130   568A     11.891818   569A     11.940082  
     570A     12.000422   571A     12.228889   572A     12.248762  
     573A     12.524472   574A     13.323296   575A     13.360387  
     576A     13.391169   577A     13.458449   578A     13.529148  
     579A     13.579102   580A     13.617417   581A     13.670992  
     582A     13.678218   583A     13.728583   584A     13.992214  
     585A     14.013113   586A     14.044434   587A     14.052825  
     588A     14.130226   589A     15.239552   590A     15.482114  
     591A     15.506438   592A     17.854308   593A     64.569042  
     594A     65.647914   595A     65.854507   596A     66.275328  
     597A     66.763619   598A     75.145638  

    Final Occupation by Irrep:
              A 
    DOCC [     5 ]
    NA   [     5 ]
    NB   [     5 ]

  @DF-RHF Final Energy:   -76.06099991671141

   => Energetics <=

    Nuclear Repulsion Energy =              9.3562892688281352
    One-Electron Energy =                -123.3372429862980795
    Two-Electron Energy =                  37.9199538007585346
    Total Energy =                        -76.0609999167114097

Computation Completed


Properties will be evaluated at   0.000000,   0.000000,   0.000000 [a0]

Properties computed using the SCF density matrix


 Multipole Moments:

 ------------------------------------------------------------------------------------
     Multipole            Electronic (a.u.)      Nuclear  (a.u.)        Total (a.u.)
 ------------------------------------------------------------------------------------

 L = 1.  Multiply by 2.5417464519 to convert [e a0] to [Debye]
 Dipole X            :         -9.7413673           10.0527269            0.3113596
 Dipole Y            :         44.2746321          -43.5940920            0.6805401
 Dipole Z            :        -22.7290479           22.6782442           -0.0508037
 Magnitude           :                                                    0.7501071

 ------------------------------------------------------------------------------------

*** tstop() called on ddmfs1 at Mon Jan 22 17:23:20 2024
Module time:
	user time   =     128.58 seconds =       2.14 minutes
	system time =       5.75 seconds =       0.10 minutes
	total time  =          8 seconds =       0.13 minutes
Total time:
	user time   =     128.58 seconds =       2.14 minutes
	system time =       5.75 seconds =       0.10 minutes
	total time  =          8 seconds =       0.13 minutes

*** tstart() called on ddmfs1
*** at Mon Jan 22 17:23:20 2024


  //>>>>>>>>>>>>>>>>>>>>>>>>>>>>>>>>>>>//
  //               DFMP2               //
  //<<<<<<<<<<<<<<<<<<<<<<<<<<<<<<<<<<<//

   => Loading Basis Set <=

    Name: (AUG-CC-PVTZ AUX)
    Role: RIFIT
    Keyword: DF_BASIS_MP2
    atoms 1                                   entry F          line   322 file /ddmfs1b/softs/psi4conda/share/psi4/basis/aug-cc-pvtz-ri.gbs 
    atoms 2, 5, 8, 11, 14, 17                 entry O          line   264 file /ddmfs1b/softs/psi4conda/share/psi4/basis/aug-cc-pvtz-ri.gbs 
    atoms 3-4, 6-7, 9-10, 12-13, 15-16, 18-19 entry H          line    30 file /ddmfs1b/softs/psi4conda/share/psi4/basis/aug-cc-pvtz-ri.gbs 

	 --------------------------------------------------------
	                          DF-MP2                         
	      2nd-Order Density-Fitted Moller-Plesset Theory     
	              RMP2 Wavefunction,  20 Threads             
	                                                         
	        Rob Parrish, Justin Turney, Andy Simmonett,      
	           Ed Hohenstein, and C. David Sherrill          
	 --------------------------------------------------------

   => Auxiliary Basis Set <=

  Basis Set: (AUG-CC-PVTZ AUX)
    Blend: AUG-CC-PVTZ-RI
    Number of shells: 364
    Number of basis functions: 1294
    Number of Cartesian functions: 1612
    Spherical Harmonics?: true
    Max angular momentum: 4

	 --------------------------------------------------------
	                 NBF =   598, NAUX =  1294
	 --------------------------------------------------------
	   CLASS    FOCC     OCC    AOCC    AVIR     VIR    FVIR
	   PAIRS       0       5       5     593     593       0
	 --------------------------------------------------------

	-----------------------------------------------------------
	 ==================> DF-MP2 Energies <==================== 
	-----------------------------------------------------------
	 Reference Energy          =     -76.0609999167114097 [Eh]
	 Singles Energy            =      -0.0000000000000000 [Eh]
	 Same-Spin Energy          =      -0.0680763467928803 [Eh]
	 Opposite-Spin Energy      =      -0.2151696938941421 [Eh]
	 Correlation Energy        =      -0.2832460406870224 [Eh]
	 Total Energy              =     -76.3442459573984280 [Eh]
	-----------------------------------------------------------
	 ================> DF-SCS-MP2 Energies <================== 
	-----------------------------------------------------------
	 SCS Same-Spin Scale       =       0.3333333333333333 [-]
	 SCS Opposite-Spin Scale   =       1.2000000000000000 [-]
	 SCS Same-Spin Energy      =      -0.0226921155976268 [Eh]
	 SCS Opposite-Spin Energy  =      -0.2582036326729705 [Eh]
	 SCS Correlation Energy    =      -0.2808957482705972 [Eh]
	 SCS Total Energy          =     -76.3418956649820046 [Eh]
	-----------------------------------------------------------


*** tstop() called on ddmfs1 at Mon Jan 22 17:23:25 2024
Module time:
	user time   =      33.18 seconds =       0.55 minutes
	system time =       1.86 seconds =       0.03 minutes
	total time  =          5 seconds =       0.08 minutes
Total time:
	user time   =     161.78 seconds =       2.70 minutes
	system time =       7.61 seconds =       0.13 minutes
	total time  =         13 seconds =       0.22 minutes

    Psi4 stopped on: Monday, 22 January 2024 05:23PM
    Psi4 wall time for execution: 0:00:13.44

*** Psi4 exiting successfully. Buy a developer a beer!
