
    -----------------------------------------------------------------------
          Psi4: An Open-Source Ab Initio Electronic Structure Package
                               Psi4 1.8.2 release

                         Git: Rev {} zzzzzzz 


    D. G. A. Smith, L. A. Burns, A. C. Simmonett, R. M. Parrish,
    M. C. Schieber, R. Galvelis, P. Kraus, H. Kruse, R. Di Remigio,
    A. Alenaizan, A. M. James, S. Lehtola, J. P. Misiewicz, M. Scheurer,
    R. A. Shaw, J. B. Schriber, Y. Xie, Z. L. Glick, D. A. Sirianni,
    J. S. O'Brien, J. M. Waldrop, A. Kumar, E. G. Hohenstein,
    B. P. Pritchard, B. R. Brooks, H. F. Schaefer III, A. Yu. Sokolov,
    K. Patkowski, A. E. DePrince III, U. Bozkaya, R. A. King,
    F. A. Evangelista, J. M. Turney, T. D. Crawford, C. D. Sherrill,
    J. Chem. Phys. 152(18) 184108 (2020). https://doi.org/10.1063/5.0006002

                            Additional Code Authors
    E. T. Seidl, C. L. Janssen, E. F. Valeev, M. L. Leininger,
    J. F. Gonthier, R. M. Richard, H. R. McAlexander, M. Saitow, X. Wang,
    P. Verma, M. H. Lechner, A. Jiang, S. Behnle, A. G. Heide,
    M. F. Herbst, and D. L. Poole

             Previous Authors, Complete List of Code Contributors,
                       and Citations for Specific Modules
    https://github.com/psi4/psi4/blob/master/codemeta.json
    https://github.com/psi4/psi4/graphs/contributors
    http://psicode.org/psi4manual/master/introduction.html#citing-psifour

    -----------------------------------------------------------------------


    Psi4 started on: Monday, 22 January 2024 05:07PM

    Process ID: 82137
    Host:       ddmfs1
    PSIDATADIR: /ddmfs1b/softs/psi4conda/share/psi4
    Memory:     500.0 MiB
    Threads:    20
    
  ==> Input File <==

--------------------------------------------------------------------------
MEMORY 60 GB

molecule dimer {
0 1
Gh(F)      0.000000     0.000000     0.000000
Gh(O)      2.779088    -0.118830    -0.906542
Gh(H)      2.861577    -0.902793    -1.461637
Gh(H)      1.786663    -0.046131    -0.692626
Gh(O)     -1.341633     2.261718    -1.186341
Gh(H)     -1.115566     2.466266    -2.140941
Gh(H)     -0.840947     1.535422    -0.871680
Gh(O)      1.697414    -0.600219     2.291858
Gh(H)      2.307780    -1.309760     2.178210
Gh(H)      0.932232    -0.756904     1.737642
O         -1.062014    -1.090209    -2.427699
H         -1.550385    -0.449677    -2.957604
H         -0.707907    -0.582861    -1.692225
Gh(O)     -2.678698    -0.614221     0.746640
Gh(H)     -3.546811    -0.478083     0.421902
Gh(H)     -2.030516    -0.148316     0.196031
Gh(O)     -0.115018     2.307183     1.459312
Gh(H)      0.071014     1.562964     0.988675
Gh(H)     -1.079045     2.401109     1.137642

units ang
no_reorient
no_com
symmetry c1
}

set {
basis        aug-cc-pVTZ
scf_type     df
}

energy("mp2")
--------------------------------------------------------------------------

  Memory set to  55.879 GiB by Python driver.

Scratch directory: /ddmfs1a/scratch/
   => Libint2 <=

    Primary   basis highest AM E, G, H:  5, 4, 3
    Auxiliary basis highest AM E, G, H:  6, 5, 4
    Onebody   basis highest AM E, G, H:  6, 5, 4
    Solid Harmonics ordering:            gaussian

*** tstart() called on ddmfs1
*** at Mon Jan 22 17:07:22 2024

   => Loading Basis Set <=

    Name: AUG-CC-PVTZ
    Role: ORBITAL
    Keyword: BASIS
    atoms 1                                   entry F          line   377 file /ddmfs1b/softs/psi4conda/share/psi4/basis/aug-cc-pvtz.gbs 
    atoms 2, 5, 8, 11, 14, 17                 entry O          line   331 file /ddmfs1b/softs/psi4conda/share/psi4/basis/aug-cc-pvtz.gbs 
    atoms 3-4, 6-7, 9-10, 12-13, 15-16, 18-19 entry H          line    40 file /ddmfs1b/softs/psi4conda/share/psi4/basis/aug-cc-pvtz.gbs 


         ---------------------------------------------------------
                                   SCF
               by Justin Turney, Rob Parrish, Andy Simmonett
                          and Daniel G. A. Smith
                              RHF Reference
                       20 Threads,  57220 MiB Core
         ---------------------------------------------------------

  ==> Geometry <==

    Molecular point group: c1
    Full point group: C1

    Geometry (in Angstrom), charge = 0, multiplicity = 1:

       Center              X                  Y                   Z               Mass       
    ------------   -----------------  -----------------  -----------------  -----------------
      Gh(F)           0.000000000000     0.000000000000     0.000000000000    18.998403162730
      Gh(O)           2.779088000000    -0.118830000000    -0.906542000000    15.994914619570
      Gh(H)           2.861577000000    -0.902793000000    -1.461637000000     1.007825032230
      Gh(H)           1.786663000000    -0.046131000000    -0.692626000000     1.007825032230
      Gh(O)          -1.341633000000     2.261718000000    -1.186341000000    15.994914619570
      Gh(H)          -1.115566000000     2.466266000000    -2.140941000000     1.007825032230
      Gh(H)          -0.840947000000     1.535422000000    -0.871680000000     1.007825032230
      Gh(O)           1.697414000000    -0.600219000000     2.291858000000    15.994914619570
      Gh(H)           2.307780000000    -1.309760000000     2.178210000000     1.007825032230
      Gh(H)           0.932232000000    -0.756904000000     1.737642000000     1.007825032230
         O           -1.062014000000    -1.090209000000    -2.427699000000    15.994914619570
         H           -1.550385000000    -0.449677000000    -2.957604000000     1.007825032230
         H           -0.707907000000    -0.582861000000    -1.692225000000     1.007825032230
      Gh(O)          -2.678698000000    -0.614221000000     0.746640000000    15.994914619570
      Gh(H)          -3.546811000000    -0.478083000000     0.421902000000     1.007825032230
      Gh(H)          -2.030516000000    -0.148316000000     0.196031000000     1.007825032230
      Gh(O)          -0.115018000000     2.307183000000     1.459312000000    15.994914619570
      Gh(H)           0.071014000000     1.562964000000     0.988675000000     1.007825032230
      Gh(H)          -1.079045000000     2.401109000000     1.137642000000     1.007825032230

  Running in c1 symmetry.

  Rotational constants: A =      0.03583  B =      0.02811  C =      0.02460 [cm^-1]
  Rotational constants: A =   1074.29187  B =    842.57685  C =    737.53290 [MHz]
  Nuclear repulsion =    9.142355009154249

  Charge       = 0
  Multiplicity = 1
  Electrons    = 10
  Nalpha       = 5
  Nbeta        = 5

  ==> Algorithm <==

  SCF Algorithm Type is DF.
  DIIS enabled.
  MOM disabled.
  Fractional occupation disabled.
  Guess Type is SAD.
  Energy threshold   = 1.00e-08
  Density threshold  = 1.00e-08
  Integral threshold = 1.00e-12

  ==> Primary Basis <==

  Basis Set: AUG-CC-PVTZ
    Blend: AUG-CC-PVTZ
    Number of shells: 206
    Number of basis functions: 598
    Number of Cartesian functions: 685
    Spherical Harmonics?: true
    Max angular momentum: 3

   => Loading Basis Set <=

    Name: (AUG-CC-PVTZ AUX)
    Role: JKFIT
    Keyword: DF_BASIS_SCF
    atoms 1                                   entry F          line   348 file /ddmfs1b/softs/psi4conda/share/psi4/basis/aug-cc-pvtz-jkfit.gbs 
    atoms 2, 5, 8, 11, 14, 17                 entry O          line   286 file /ddmfs1b/softs/psi4conda/share/psi4/basis/aug-cc-pvtz-jkfit.gbs 
    atoms 3-4, 6-7, 9-10, 12-13, 15-16, 18-19 entry H          line    70 file /ddmfs1b/softs/psi4conda/share/psi4/basis/aug-cc-pvtz-jkfit.gbs 

  ==> Integral Setup <==

  DFHelper Memory: AOs need 3.162 GiB; user supplied 41.910 GiB. 
  Using in-core AOs.

  ==> MemDFJK: Density-Fitted J/K Matrices <==

    J tasked:                   Yes
    K tasked:                   Yes
    wK tasked:                   No
    OpenMP threads:              20
    Memory [MiB]:             42915
    Algorithm:                 Core
    Schwarz Cutoff:           1E-12
    Mask sparsity (%):      11.3052
    Fitting Condition:        1E-10

   => Auxiliary Basis Set <=

  Basis Set: (AUG-CC-PVTZ AUX)
    Blend: AUG-CC-PVTZ-JKFIT
    Number of shells: 378
    Number of basis functions: 1280
    Number of Cartesian functions: 1577
    Spherical Harmonics?: true
    Max angular momentum: 4

  Minimum eigenvalue in the overlap matrix is 3.5822543672E-05.
  Reciprocal condition number of the overlap matrix is 2.3102340079E-06.
    Using symmetric orthogonalization.

  ==> Pre-Iterations <==

  SCF Guess: Superposition of Atomic Densities via on-the-fly atomic UHF (no occupation information).

   -------------------------
    Irrep   Nso     Nmo    
   -------------------------
     A        598     598 
   -------------------------
    Total     598     598
   -------------------------

  ==> Iterations <==

                           Total Energy        Delta E     RMS |[F,P]|

   @DF-RHF iter SAD:   -75.47148994783596   -7.54715e+01   0.00000e+00 
   @DF-RHF iter   1:   -75.97587129760177   -5.04381e-01   7.82997e-04 ADIIS/DIIS
   @DF-RHF iter   2:   -76.02825635645624   -5.23851e-02   5.35398e-04 ADIIS/DIIS
   @DF-RHF iter   3:   -76.05989196510613   -3.16356e-02   3.64077e-05 DIIS
   @DF-RHF iter   4:   -76.06028623267900   -3.94268e-04   8.77093e-06 DIIS
   @DF-RHF iter   5:   -76.06031122625710   -2.49936e-05   1.99681e-06 DIIS
   @DF-RHF iter   6:   -76.06031328261795   -2.05636e-06   4.39299e-07 DIIS
   @DF-RHF iter   7:   -76.06031339227040   -1.09652e-07   7.98370e-08 DIIS
   @DF-RHF iter   8:   -76.06031339545213   -3.18173e-09   1.33843e-08 DIIS
   @DF-RHF iter   9:   -76.06031339552290   -7.07701e-11   3.32301e-09 DIIS
  Energy and wave function converged.


  ==> Post-Iterations <==

    Orbital Energies [Eh]
    ---------------------

    Doubly Occupied:                                                      

       1A    -20.567886     2A     -1.350494     3A     -0.715482  
       4A     -0.583146     5A     -0.509779  

    Virtual:                                                              

       6A      0.014219     7A      0.030342     8A      0.035175  
       9A      0.040157    10A      0.052239    11A      0.056858  
      12A      0.061301    13A      0.061891    14A      0.070968  
      15A      0.083983    16A      0.086710    17A      0.095777  
      18A      0.110053    19A      0.120938    20A      0.125170  
      21A      0.135887    22A      0.143196    23A      0.149791  
      24A      0.152930    25A      0.156250    26A      0.160996  
      27A      0.161679    28A      0.167493    29A      0.172459  
      30A      0.181458    31A      0.183499    32A      0.188745  
      33A      0.203186    34A      0.205700    35A      0.211846  
      36A      0.214997    37A      0.218782    38A      0.224738  
      39A      0.232615    40A      0.241357    41A      0.250757  
      42A      0.254315    43A      0.259697    44A      0.269516  
      45A      0.284135    46A      0.287080    47A      0.299305  
      48A      0.306230    49A      0.312915    50A      0.318557  
      51A      0.323102    52A      0.329116    53A      0.331473  
      54A      0.342485    55A      0.348988    56A      0.351484  
      57A      0.358794    58A      0.362176    59A      0.366756  
      60A      0.375373    61A      0.379260    62A      0.391543  
      63A      0.397252    64A      0.399716    65A      0.405244  
      66A      0.406354    67A      0.410481    68A      0.417062  
      69A      0.424420    70A      0.428123    71A      0.437866  
      72A      0.445416    73A      0.454430    74A      0.458668  
      75A      0.466186    76A      0.473482    77A      0.478637  
      78A      0.486454    79A      0.499144    80A      0.504089  
      81A      0.513925    82A      0.521277    83A      0.531073  
      84A      0.537542    85A      0.541924    86A      0.564568  
      87A      0.567031    88A      0.586696    89A      0.604390  
      90A      0.611995    91A      0.624176    92A      0.649053  
      93A      0.660620    94A      0.679306    95A      0.686721  
      96A      0.693456    97A      0.704671    98A      0.716792  
      99A      0.726583   100A      0.728929   101A      0.735835  
     102A      0.742969   103A      0.748560   104A      0.759797  
     105A      0.771219   106A      0.779692   107A      0.789040  
     108A      0.792133   109A      0.794650   110A      0.799301  
     111A      0.803409   112A      0.814176   113A      0.816202  
     114A      0.824617   115A      0.828669   116A      0.839036  
     117A      0.847980   118A      0.850259   119A      0.859086  
     120A      0.866241   121A      0.869654   122A      0.871974  
     123A      0.873299   124A      0.887970   125A      0.890214  
     126A      0.892498   127A      0.899299   128A      0.901294  
     129A      0.914944   130A      0.922638   131A      0.926989  
     132A      0.928631   133A      0.940560   134A      0.946493  
     135A      0.950584   136A      0.953993   137A      0.960521  
     138A      0.963707   139A      0.971401   140A      0.978366  
     141A      0.983616   142A      0.990367   143A      0.993397  
     144A      0.999538   145A      1.005964   146A      1.011712  
     147A      1.019481   148A      1.025871   149A      1.037511  
     150A      1.037955   151A      1.047515   152A      1.050859  
     153A      1.059252   154A      1.063085   155A      1.070961  
     156A      1.083838   157A      1.093694   158A      1.099555  
     159A      1.108750   160A      1.115041   161A      1.121210  
     162A      1.128619   163A      1.139583   164A      1.143992  
     165A      1.146303   166A      1.158010   167A      1.167478  
     168A      1.172382   169A      1.182123   170A      1.190771  
     171A      1.197550   172A      1.205049   173A      1.216495  
     174A      1.220550   175A      1.227915   176A      1.236034  
     177A      1.242041   178A      1.250872   179A      1.259289  
     180A      1.269384   181A      1.281729   182A      1.302008  
     183A      1.311094   184A      1.312109   185A      1.319428  
     186A      1.335559   187A      1.342885   188A      1.363292  
     189A      1.372095   190A      1.376343   191A      1.381330  
     192A      1.402992   193A      1.410626   194A      1.422702  
     195A      1.439207   196A      1.446722   197A      1.468696  
     198A      1.475664   199A      1.480978   200A      1.499357  
     201A      1.510633   202A      1.511164   203A      1.529129  
     204A      1.535145   205A      1.548220   206A      1.564895  
     207A      1.576769   208A      1.585370   209A      1.588918  
     210A      1.594890   211A      1.605006   212A      1.617871  
     213A      1.638499   214A      1.647211   215A      1.653806  
     216A      1.671866   217A      1.683824   218A      1.700347  
     219A      1.722418   220A      1.733735   221A      1.738236  
     222A      1.749234   223A      1.761575   224A      1.771127  
     225A      1.775179   226A      1.782884   227A      1.795784  
     228A      1.802124   229A      1.818150   230A      1.834118  
     231A      1.844423   232A      1.848339   233A      1.860334  
     234A      1.863313   235A      1.882539   236A      1.888038  
     237A      1.900817   238A      1.907041   239A      1.918809  
     240A      1.928887   241A      1.939383   242A      1.953357  
     243A      1.962295   244A      1.965984   245A      1.975277  
     246A      1.987720   247A      2.010319   248A      2.012557  
     249A      2.016838   250A      2.021693   251A      2.042792  
     252A      2.057489   253A      2.068132   254A      2.092584  
     255A      2.132506   256A      2.153064   257A      2.165802  
     258A      2.206720   259A      2.236309   260A      2.263542  
     261A      2.291746   262A      2.334618   263A      2.345588  
     264A      2.360158   265A      2.446212   266A      2.459067  
     267A      2.465728   268A      2.481498   269A      2.485874  
     270A      2.501427   271A      2.511253   272A      2.517877  
     273A      2.523321   274A      2.542659   275A      2.549892  
     276A      2.554773   277A      2.571513   278A      2.588710  
     279A      2.593175   280A      2.596613   281A      2.608090  
     282A      2.623129   283A      2.631023   284A      2.639453  
     285A      2.645319   286A      2.666628   287A      2.668453  
     288A      2.687419   289A      2.694019   290A      2.700709  
     291A      2.713695   292A      2.716997   293A      2.742386  
     294A      2.753658   295A      2.758036   296A      2.766484  
     297A      2.774613   298A      2.784111   299A      2.796468  
     300A      2.816597   301A      2.822881   302A      2.827944  
     303A      2.844147   304A      2.858844   305A      2.869631  
     306A      2.883864   307A      2.889016   308A      2.895675  
     309A      2.914689   310A      2.930251   311A      2.960036  
     312A      2.980996   313A      3.005036   314A      3.026375  
     315A      3.036041   316A      3.046234   317A      3.052353  
     318A      3.063213   319A      3.089891   320A      3.131984  
     321A      3.151079   322A      3.196723   323A      3.208737  
     324A      3.216091   325A      3.223361   326A      3.236981  
     327A      3.252451   328A      3.255822   329A      3.273120  
     330A      3.280925   331A      3.297845   332A      3.305758  
     333A      3.314580   334A      3.341905   335A      3.360644  
     336A      3.375243   337A      3.391869   338A      3.398445  
     339A      3.444418   340A      3.454674   341A      3.491583  
     342A      3.509460   343A      3.516819   344A      3.539475  
     345A      3.553847   346A      3.561751   347A      3.590198  
     348A      3.605617   349A      3.616530   350A      3.639650  
     351A      3.651818   352A      3.666006   353A      3.715080  
     354A      3.734862   355A      3.748382   356A      3.776363  
     357A      3.783987   358A      3.809555   359A      3.818030  
     360A      3.846394   361A      3.894424   362A      3.907981  
     363A      3.962901   364A      4.005857   365A      4.065539  
     366A      4.101471   367A      4.140781   368A      4.156715  
     369A      4.169004   370A      4.203666   371A      4.236642  
     372A      4.305105   373A      4.322710   374A      4.329921  
     375A      4.354195   376A      4.358387   377A      4.372167  
     378A      4.398971   379A      4.411549   380A      4.459280  
     381A      4.462366   382A      4.471492   383A      4.495907  
     384A      4.501489   385A      4.505722   386A      4.521716  
     387A      4.527134   388A      4.531251   389A      4.537990  
     390A      4.562084   391A      4.566881   392A      4.586707  
     393A      4.595415   394A      4.605144   395A      4.616917  
     396A      4.643151   397A      4.658322   398A      4.667977  
     399A      4.690979   400A      4.705197   401A      4.730826  
     402A      4.732666   403A      4.753128   404A      4.767636  
     405A      4.771712   406A      4.781511   407A      4.813545  
     408A      4.863936   409A      4.891854   410A      4.906759  
     411A      4.912848   412A      4.924542   413A      4.932147  
     414A      4.952694   415A      4.963148   416A      4.979448  
     417A      4.989224   418A      5.007310   419A      5.028837  
     420A      5.046397   421A      5.060447   422A      5.078489  
     423A      5.098815   424A      5.109746   425A      5.119071  
     426A      5.159050   427A      5.173143   428A      5.192878  
     429A      5.222580   430A      5.233290   431A      5.277741  
     432A      5.290794   433A      5.304433   434A      5.322061  
     435A      5.336576   436A      5.350030   437A      5.411474  
     438A      5.422479   439A      5.451883   440A      5.499739  
     441A      5.518892   442A      5.535013   443A      5.554719  
     444A      5.576117   445A      5.582847   446A      5.608418  
     447A      5.643219   448A      5.670448   449A      5.702286  
     450A      5.720750   451A      5.740926   452A      5.757340  
     453A      5.761395   454A      5.801334   455A      5.857386  
     456A      5.876476   457A      5.894646   458A      5.912024  
     459A      5.928245   460A      5.947797   461A      6.054056  
     462A      6.195072   463A      6.205441   464A      6.217311  
     465A      6.264010   466A      6.297796   467A      6.363012  
     468A      6.387935   469A      6.448402   470A      6.474464  
     471A      6.543679   472A      6.561805   473A      6.596787  
     474A      6.630575   475A      6.704152   476A      6.835610  
     477A      6.837821   478A      6.859316   479A      6.914788  
     480A      6.997800   481A      7.011796   482A      7.156251  
     483A      7.180289   484A      7.195261   485A      7.218463  
     486A      7.330268   487A      7.345555   488A      7.377752  
     489A      7.402926   490A      7.479218   491A      7.560826  
     492A      7.734844   493A      7.746545   494A      7.755509  
     495A      7.776249   496A      7.817890   497A      7.823962  
     498A      7.831330   499A      7.844382   500A      7.855580  
     501A      7.904581   502A      8.015729   503A      8.032071  
     504A      8.046389   505A      8.100071   506A      8.121418  
     507A      8.142179   508A      8.144562   509A      8.154479  
     510A      8.206048   511A      8.211037   512A      8.253304  
     513A      8.304834   514A      8.321222   515A      8.328991  
     516A      8.355096   517A      8.366265   518A      8.389981  
     519A      8.402366   520A      8.709576   521A      8.778903  
     522A      8.850330   523A      8.858578   524A      8.868761  
     525A      8.876913   526A      8.891683   527A      8.993948  
     528A      9.144144   529A      9.216265   530A      9.247697  
     531A      9.705707   532A      9.767873   533A      9.797749  
     534A      9.833029   535A      9.882368   536A      9.895566  
     537A      9.898546   538A      9.904185   539A      9.952336  
     540A     10.004344   541A     10.089416   542A     10.095434  
     543A     10.131917   544A     10.148929   545A     10.171172  
     546A     10.245930   547A     10.277805   548A     10.311977  
     549A     10.355883   550A     10.405627   551A     10.413190  
     552A     10.479133   553A     10.540428   554A     10.576714  
     555A     10.664501   556A     10.726567   557A     10.765212  
     558A     11.053695   559A     11.091885   560A     11.107018  
     561A     11.229381   562A     11.258379   563A     11.577796  
     564A     11.723225   565A     11.857759   566A     11.858624  
     567A     11.919598   568A     11.949992   569A     12.140348  
     570A     12.290520   571A     12.330961   572A     12.502726  
     573A     12.959428   574A     13.283806   575A     13.324300  
     576A     13.401558   577A     13.472082   578A     13.536931  
     579A     13.632443   580A     13.719958   581A     13.746097  
     582A     13.767019   583A     13.783822   584A     13.953066  
     585A     14.004063   586A     14.038132   587A     14.197026  
     588A     14.241435   589A     15.133946   590A     15.394868  
     591A     15.451227   592A     17.123588   593A     65.306357  
     594A     66.332787   595A     67.071154   596A     67.888573  
     597A     68.955444   598A     74.716148  

    Final Occupation by Irrep:
              A 
    DOCC [     5 ]
    NA   [     5 ]
    NB   [     5 ]

  @DF-RHF Final Energy:   -76.06031339552290

   => Energetics <=

    Nuclear Repulsion Energy =              9.1423550091542491
    One-Electron Energy =                -122.9517591000973624
    Two-Electron Energy =                  37.7490906954202288
    Total Energy =                        -76.0603133955228827

Computation Completed


Properties will be evaluated at   0.000000,   0.000000,   0.000000 [a0]

Properties computed using the SCF density matrix


 Multipole Moments:

 ------------------------------------------------------------------------------------
     Multipole            Electronic (a.u.)      Nuclear  (a.u.)        Total (a.u.)
 ------------------------------------------------------------------------------------

 L = 1.  Multiply by 2.5417464519 to convert [e a0] to [Debye]
 Dipole X            :         20.2343723          -20.3228782           -0.0885060
 Dipole Y            :         19.1945803          -18.4327855            0.7617949
 Dipole Z            :         45.6255696          -45.4883931            0.1371764
 Magnitude           :                                                    0.7790905

 ------------------------------------------------------------------------------------

*** tstop() called on ddmfs1 at Mon Jan 22 17:07:30 2024
Module time:
	user time   =     127.60 seconds =       2.13 minutes
	system time =       6.04 seconds =       0.10 minutes
	total time  =          8 seconds =       0.13 minutes
Total time:
	user time   =     127.60 seconds =       2.13 minutes
	system time =       6.04 seconds =       0.10 minutes
	total time  =          8 seconds =       0.13 minutes

*** tstart() called on ddmfs1
*** at Mon Jan 22 17:07:30 2024


  //>>>>>>>>>>>>>>>>>>>>>>>>>>>>>>>>>>>//
  //               DFMP2               //
  //<<<<<<<<<<<<<<<<<<<<<<<<<<<<<<<<<<<//

   => Loading Basis Set <=

    Name: (AUG-CC-PVTZ AUX)
    Role: RIFIT
    Keyword: DF_BASIS_MP2
    atoms 1                                   entry F          line   322 file /ddmfs1b/softs/psi4conda/share/psi4/basis/aug-cc-pvtz-ri.gbs 
    atoms 2, 5, 8, 11, 14, 17                 entry O          line   264 file /ddmfs1b/softs/psi4conda/share/psi4/basis/aug-cc-pvtz-ri.gbs 
    atoms 3-4, 6-7, 9-10, 12-13, 15-16, 18-19 entry H          line    30 file /ddmfs1b/softs/psi4conda/share/psi4/basis/aug-cc-pvtz-ri.gbs 

	 --------------------------------------------------------
	                          DF-MP2                         
	      2nd-Order Density-Fitted Moller-Plesset Theory     
	              RMP2 Wavefunction,  20 Threads             
	                                                         
	        Rob Parrish, Justin Turney, Andy Simmonett,      
	           Ed Hohenstein, and C. David Sherrill          
	 --------------------------------------------------------

   => Auxiliary Basis Set <=

  Basis Set: (AUG-CC-PVTZ AUX)
    Blend: AUG-CC-PVTZ-RI
    Number of shells: 364
    Number of basis functions: 1294
    Number of Cartesian functions: 1612
    Spherical Harmonics?: true
    Max angular momentum: 4

	 --------------------------------------------------------
	                 NBF =   598, NAUX =  1294
	 --------------------------------------------------------
	   CLASS    FOCC     OCC    AOCC    AVIR     VIR    FVIR
	   PAIRS       0       5       5     593     593       0
	 --------------------------------------------------------

	-----------------------------------------------------------
	 ==================> DF-MP2 Energies <==================== 
	-----------------------------------------------------------
	 Reference Energy          =     -76.0603133955228969 [Eh]
	 Singles Energy            =      -0.0000000000000000 [Eh]
	 Same-Spin Energy          =      -0.0685004158649323 [Eh]
	 Opposite-Spin Energy      =      -0.2164273041257690 [Eh]
	 Correlation Energy        =      -0.2849277199907013 [Eh]
	 Total Energy              =     -76.3452411155136019 [Eh]
	-----------------------------------------------------------
	 ================> DF-SCS-MP2 Energies <================== 
	-----------------------------------------------------------
	 SCS Same-Spin Scale       =       0.3333333333333333 [-]
	 SCS Opposite-Spin Scale   =       1.2000000000000000 [-]
	 SCS Same-Spin Energy      =      -0.0228334719549774 [Eh]
	 SCS Opposite-Spin Energy  =      -0.2597127649509228 [Eh]
	 SCS Correlation Energy    =      -0.2825462369059002 [Eh]
	 SCS Total Energy          =     -76.3428596324287980 [Eh]
	-----------------------------------------------------------


*** tstop() called on ddmfs1 at Mon Jan 22 17:07:35 2024
Module time:
	user time   =      32.80 seconds =       0.55 minutes
	system time =       1.83 seconds =       0.03 minutes
	total time  =          5 seconds =       0.08 minutes
Total time:
	user time   =     160.42 seconds =       2.67 minutes
	system time =       7.88 seconds =       0.13 minutes
	total time  =         13 seconds =       0.22 minutes

    Psi4 stopped on: Monday, 22 January 2024 05:07PM
    Psi4 wall time for execution: 0:00:13.34

*** Psi4 exiting successfully. Buy a developer a beer!
