
    -----------------------------------------------------------------------
          Psi4: An Open-Source Ab Initio Electronic Structure Package
                               Psi4 1.8.2 release

                         Git: Rev {} zzzzzzz 


    D. G. A. Smith, L. A. Burns, A. C. Simmonett, R. M. Parrish,
    M. C. Schieber, R. Galvelis, P. Kraus, H. Kruse, R. Di Remigio,
    A. Alenaizan, A. M. James, S. Lehtola, J. P. Misiewicz, M. Scheurer,
    R. A. Shaw, J. B. Schriber, Y. Xie, Z. L. Glick, D. A. Sirianni,
    J. S. O'Brien, J. M. Waldrop, A. Kumar, E. G. Hohenstein,
    B. P. Pritchard, B. R. Brooks, H. F. Schaefer III, A. Yu. Sokolov,
    K. Patkowski, A. E. DePrince III, U. Bozkaya, R. A. King,
    F. A. Evangelista, J. M. Turney, T. D. Crawford, C. D. Sherrill,
    J. Chem. Phys. 152(18) 184108 (2020). https://doi.org/10.1063/5.0006002

                            Additional Code Authors
    E. T. Seidl, C. L. Janssen, E. F. Valeev, M. L. Leininger,
    J. F. Gonthier, R. M. Richard, H. R. McAlexander, M. Saitow, X. Wang,
    P. Verma, M. H. Lechner, A. Jiang, S. Behnle, A. G. Heide,
    M. F. Herbst, and D. L. Poole

             Previous Authors, Complete List of Code Contributors,
                       and Citations for Specific Modules
    https://github.com/psi4/psi4/blob/master/codemeta.json
    https://github.com/psi4/psi4/graphs/contributors
    http://psicode.org/psi4manual/master/introduction.html#citing-psifour

    -----------------------------------------------------------------------


    Psi4 started on: Monday, 22 January 2024 06:58PM

    Process ID: 94140
    Host:       ddmfs1
    PSIDATADIR: /ddmfs1b/softs/psi4conda/share/psi4
    Memory:     500.0 MiB
    Threads:    20
    
  ==> Input File <==

--------------------------------------------------------------------------
MEMORY 60 GB

molecule dimer {
0 1
Gh(F)      0.000000     0.000000     0.000000
Gh(O)      0.705041     0.085824     2.845836
Gh(H)      0.718042     0.221437     1.918408
Gh(H)      1.585010     0.151425     3.189331
Gh(O)      1.846277     0.095164    -2.146633
Gh(H)      2.732713    -0.105605    -1.756703
Gh(H)      1.254731     0.091480    -1.406651
Gh(O)     -2.274277     0.593945    -1.273101
Gh(H)     -2.701262    -0.233434    -0.967959
Gh(H)     -1.360007     0.511388    -0.932384
O          1.896841    -1.872735     0.495161
H          1.093557    -1.387163     0.388915
H          2.667595    -1.391507     0.177125
Gh(O)      1.052918     2.610822     1.020224
Gh(H)      0.691159     1.833771     0.662648
Gh(H)      1.468412     2.477073     1.892293

units ang
no_reorient
no_com
symmetry c1
}

set {
basis        aug-cc-pVTZ
scf_type     df
}

energy("mp2")
--------------------------------------------------------------------------

  Memory set to  55.879 GiB by Python driver.

Scratch directory: /ddmfs1a/scratch/
   => Libint2 <=

    Primary   basis highest AM E, G, H:  5, 4, 3
    Auxiliary basis highest AM E, G, H:  6, 5, 4
    Onebody   basis highest AM E, G, H:  6, 5, 4
    Solid Harmonics ordering:            gaussian

*** tstart() called on ddmfs1
*** at Mon Jan 22 18:58:56 2024

   => Loading Basis Set <=

    Name: AUG-CC-PVTZ
    Role: ORBITAL
    Keyword: BASIS
    atoms 1                            entry F          line   377 file /ddmfs1b/softs/psi4conda/share/psi4/basis/aug-cc-pvtz.gbs 
    atoms 2, 5, 8, 11, 14              entry O          line   331 file /ddmfs1b/softs/psi4conda/share/psi4/basis/aug-cc-pvtz.gbs 
    atoms 3-4, 6-7, 9-10, 12-13, 15-16 entry H          line    40 file /ddmfs1b/softs/psi4conda/share/psi4/basis/aug-cc-pvtz.gbs 


         ---------------------------------------------------------
                                   SCF
               by Justin Turney, Rob Parrish, Andy Simmonett
                          and Daniel G. A. Smith
                              RHF Reference
                       20 Threads,  57220 MiB Core
         ---------------------------------------------------------

  ==> Geometry <==

    Molecular point group: c1
    Full point group: C1

    Geometry (in Angstrom), charge = 0, multiplicity = 1:

       Center              X                  Y                   Z               Mass       
    ------------   -----------------  -----------------  -----------------  -----------------
      Gh(F)           0.000000000000     0.000000000000     0.000000000000    18.998403162730
      Gh(O)           0.705041000000     0.085824000000     2.845836000000    15.994914619570
      Gh(H)           0.718042000000     0.221437000000     1.918408000000     1.007825032230
      Gh(H)           1.585010000000     0.151425000000     3.189331000000     1.007825032230
      Gh(O)           1.846277000000     0.095164000000    -2.146633000000    15.994914619570
      Gh(H)           2.732713000000    -0.105605000000    -1.756703000000     1.007825032230
      Gh(H)           1.254731000000     0.091480000000    -1.406651000000     1.007825032230
      Gh(O)          -2.274277000000     0.593945000000    -1.273101000000    15.994914619570
      Gh(H)          -2.701262000000    -0.233434000000    -0.967959000000     1.007825032230
      Gh(H)          -1.360007000000     0.511388000000    -0.932384000000     1.007825032230
         O            1.896841000000    -1.872735000000     0.495161000000    15.994914619570
         H            1.093557000000    -1.387163000000     0.388915000000     1.007825032230
         H            2.667595000000    -1.391507000000     0.177125000000     1.007825032230
      Gh(O)           1.052918000000     2.610822000000     1.020224000000    15.994914619570
      Gh(H)           0.691159000000     1.833771000000     0.662648000000     1.007825032230
      Gh(H)           1.468412000000     2.477073000000     1.892293000000     1.007825032230

  Running in c1 symmetry.

  Rotational constants: A =      0.04295  B =      0.03535  C =      0.03032 [cm^-1]
  Rotational constants: A =   1287.61834  B =   1059.86773  C =    908.94900 [MHz]
  Nuclear repulsion =    9.212177131952453

  Charge       = 0
  Multiplicity = 1
  Electrons    = 10
  Nalpha       = 5
  Nbeta        = 5

  ==> Algorithm <==

  SCF Algorithm Type is DF.
  DIIS enabled.
  MOM disabled.
  Fractional occupation disabled.
  Guess Type is SAD.
  Energy threshold   = 1.00e-08
  Density threshold  = 1.00e-08
  Integral threshold = 1.00e-12

  ==> Primary Basis <==

  Basis Set: AUG-CC-PVTZ
    Blend: AUG-CC-PVTZ
    Number of shells: 174
    Number of basis functions: 506
    Number of Cartesian functions: 580
    Spherical Harmonics?: true
    Max angular momentum: 3

   => Loading Basis Set <=

    Name: (AUG-CC-PVTZ AUX)
    Role: JKFIT
    Keyword: DF_BASIS_SCF
    atoms 1                            entry F          line   348 file /ddmfs1b/softs/psi4conda/share/psi4/basis/aug-cc-pvtz-jkfit.gbs 
    atoms 2, 5, 8, 11, 14              entry O          line   286 file /ddmfs1b/softs/psi4conda/share/psi4/basis/aug-cc-pvtz-jkfit.gbs 
    atoms 3-4, 6-7, 9-10, 12-13, 15-16 entry H          line    70 file /ddmfs1b/softs/psi4conda/share/psi4/basis/aug-cc-pvtz-jkfit.gbs 

  ==> Integral Setup <==

  DFHelper Memory: AOs need 1.964 GiB; user supplied 41.910 GiB. 
  Using in-core AOs.

  ==> MemDFJK: Density-Fitted J/K Matrices <==

    J tasked:                   Yes
    K tasked:                   Yes
    wK tasked:                   No
    OpenMP threads:              20
    Memory [MiB]:             42915
    Algorithm:                 Core
    Schwarz Cutoff:           1E-12
    Mask sparsity (%):       9.7580
    Fitting Condition:        1E-10

   => Auxiliary Basis Set <=

  Basis Set: (AUG-CC-PVTZ AUX)
    Blend: AUG-CC-PVTZ-JKFIT
    Number of shells: 320
    Number of basis functions: 1084
    Number of Cartesian functions: 1336
    Spherical Harmonics?: true
    Max angular momentum: 4

  Minimum eigenvalue in the overlap matrix is 6.3493412051E-05.
  Reciprocal condition number of the overlap matrix is 4.4131115144E-06.
    Using symmetric orthogonalization.

  ==> Pre-Iterations <==

  SCF Guess: Superposition of Atomic Densities via on-the-fly atomic UHF (no occupation information).

   -------------------------
    Irrep   Nso     Nmo    
   -------------------------
     A        506     506 
   -------------------------
    Total     506     506
   -------------------------

  ==> Iterations <==

                           Total Energy        Delta E     RMS |[F,P]|

   @DF-RHF iter SAD:   -75.47432816946808   -7.54743e+01   0.00000e+00 
   @DF-RHF iter   1:   -75.97624606552677   -5.01918e-01   9.27594e-04 DIIS/ADIIS
   @DF-RHF iter   2:   -76.02863860687633   -5.23925e-02   6.23971e-04 DIIS/ADIIS
   @DF-RHF iter   3:   -76.05919307197782   -3.05545e-02   4.22835e-05 DIIS
   @DF-RHF iter   4:   -76.05958191016870   -3.88838e-04   1.00809e-05 DIIS
   @DF-RHF iter   5:   -76.05960566123622   -2.37511e-05   2.27492e-06 DIIS
   @DF-RHF iter   6:   -76.05960763623372   -1.97500e-06   5.16796e-07 DIIS
   @DF-RHF iter   7:   -76.05960775028885   -1.14055e-07   1.01074e-07 DIIS
   @DF-RHF iter   8:   -76.05960775417243   -3.88359e-09   1.63093e-08 DIIS
   @DF-RHF iter   9:   -76.05960775425189   -7.94529e-11   4.00969e-09 DIIS
  Energy and wave function converged.


  ==> Post-Iterations <==

    Orbital Energies [Eh]
    ---------------------

    Doubly Occupied:                                                      

       1A    -20.562645     2A     -1.349695     3A     -0.734960  
       4A     -0.569582     5A     -0.508152  

    Virtual:                                                              

       6A      0.016268     7A      0.033195     8A      0.037749  
       9A      0.044724    10A      0.058278    11A      0.061454  
      12A      0.063057    13A      0.067391    14A      0.078098  
      15A      0.084057    16A      0.102889    17A      0.123847  
      18A      0.125441    19A      0.132648    20A      0.144510  
      21A      0.148088    22A      0.157664    23A      0.160811  
      24A      0.164763    25A      0.168439    26A      0.172411  
      27A      0.182875    28A      0.190101    29A      0.199331  
      30A      0.203406    31A      0.206158    32A      0.213507  
      33A      0.222317    34A      0.227238    35A      0.232283  
      36A      0.242998    37A      0.258876    38A      0.267067  
      39A      0.271687    40A      0.278921    41A      0.291775  
      42A      0.300968    43A      0.309360    44A      0.318678  
      45A      0.324654    46A      0.327219    47A      0.332910  
      48A      0.336297    49A      0.350093    50A      0.360415  
      51A      0.370907    52A      0.378270    53A      0.381734  
      54A      0.391669    55A      0.395204    56A      0.396425  
      57A      0.399434    58A      0.413009    59A      0.417934  
      60A      0.424536    61A      0.438486    62A      0.440074  
      63A      0.445529    64A      0.449712    65A      0.466870  
      66A      0.469405    67A      0.475752    68A      0.485814  
      69A      0.492926    70A      0.509548    71A      0.516572  
      72A      0.533485    73A      0.536920    74A      0.548603  
      75A      0.565681    76A      0.583880    77A      0.598822  
      78A      0.608041    79A      0.638518    80A      0.662389  
      81A      0.684234    82A      0.689947    83A      0.699746  
      84A      0.708144    85A      0.724738    86A      0.732988  
      87A      0.746252    88A      0.748853    89A      0.756635  
      90A      0.776446    91A      0.785045    92A      0.790439  
      93A      0.796573    94A      0.801867    95A      0.803270  
      96A      0.808976    97A      0.817460    98A      0.824336  
      99A      0.832551   100A      0.836659   101A      0.846352  
     102A      0.847771   103A      0.856980   104A      0.866475  
     105A      0.872430   106A      0.875437   107A      0.883345  
     108A      0.894803   109A      0.902729   110A      0.909627  
     111A      0.916340   112A      0.919916   113A      0.923699  
     114A      0.936007   115A      0.948590   116A      0.952886  
     117A      0.953910   118A      0.957995   119A      0.962222  
     120A      0.971715   121A      0.977049   122A      0.987712  
     123A      0.995530   124A      1.000180   125A      1.007702  
     126A      1.018074   127A      1.023906   128A      1.031456  
     129A      1.034804   130A      1.052455   131A      1.058651  
     132A      1.064693   133A      1.076406   134A      1.087209  
     135A      1.087659   136A      1.098435   137A      1.107072  
     138A      1.115869   139A      1.128129   140A      1.136149  
     141A      1.137114   142A      1.152625   143A      1.153468  
     144A      1.164752   145A      1.176152   146A      1.194550  
     147A      1.195724   148A      1.214034   149A      1.217486  
     150A      1.230808   151A      1.237453   152A      1.264093  
     153A      1.268361   154A      1.277042   155A      1.292695  
     156A      1.301123   157A      1.307142   158A      1.319295  
     159A      1.327248   160A      1.335081   161A      1.343415  
     162A      1.370446   163A      1.387213   164A      1.400129  
     165A      1.417533   166A      1.426233   167A      1.445148  
     168A      1.464253   169A      1.472140   170A      1.484341  
     171A      1.504139   172A      1.507398   173A      1.533597  
     174A      1.539464   175A      1.556394   176A      1.577700  
     177A      1.586094   178A      1.591845   179A      1.614445  
     180A      1.628424   181A      1.639174   182A      1.645255  
     183A      1.668839   184A      1.689472   185A      1.699267  
     186A      1.702806   187A      1.722404   188A      1.729541  
     189A      1.733810   190A      1.739417   191A      1.745220  
     192A      1.758427   193A      1.761398   194A      1.787862  
     195A      1.791877   196A      1.820086   197A      1.821288  
     198A      1.836800   199A      1.846455   200A      1.858487  
     201A      1.867042   202A      1.897017   203A      1.901626  
     204A      1.911745   205A      1.922596   206A      1.928280  
     207A      1.941714   208A      1.955919   209A      1.983499  
     210A      1.998973   211A      2.005876   212A      2.035298  
     213A      2.063734   214A      2.078368   215A      2.111882  
     216A      2.118640   217A      2.148707   218A      2.180270  
     219A      2.207315   220A      2.226133   221A      2.273068  
     222A      2.331807   223A      2.394424   224A      2.429546  
     225A      2.474489   226A      2.475918   227A      2.487609  
     228A      2.499352   229A      2.499873   230A      2.517495  
     231A      2.534066   232A      2.541292   233A      2.552353  
     234A      2.564316   235A      2.570401   236A      2.576508  
     237A      2.588959   238A      2.597887   239A      2.620030  
     240A      2.642754   241A      2.645844   242A      2.665244  
     243A      2.666945   244A      2.681639   245A      2.690836  
     246A      2.700454   247A      2.707560   248A      2.725912  
     249A      2.735671   250A      2.751204   251A      2.762728  
     252A      2.763755   253A      2.785553   254A      2.798715  
     255A      2.807407   256A      2.820985   257A      2.837923  
     258A      2.870018   259A      2.883208   260A      2.906082  
     261A      2.919302   262A      2.943346   263A      2.958614  
     264A      2.960850   265A      2.990647   266A      3.003058  
     267A      3.040089   268A      3.051289   269A      3.057568  
     270A      3.102978   271A      3.119686   272A      3.183117  
     273A      3.189933   274A      3.197587   275A      3.206080  
     276A      3.218926   277A      3.228246   278A      3.245673  
     279A      3.260613   280A      3.273958   281A      3.282493  
     282A      3.303942   283A      3.316085   284A      3.365033  
     285A      3.391120   286A      3.403197   287A      3.430685  
     288A      3.457514   289A      3.483131   290A      3.496040  
     291A      3.553171   292A      3.562701   293A      3.585192  
     294A      3.611915   295A      3.630449   296A      3.663884  
     297A      3.679725   298A      3.709397   299A      3.731036  
     300A      3.752798   301A      3.790652   302A      3.793168  
     303A      3.839517   304A      3.852430   305A      3.857365  
     306A      3.893986   307A      3.917874   308A      3.928833  
     309A      4.038223   310A      4.053308   311A      4.088165  
     312A      4.140100   313A      4.184834   314A      4.206590  
     315A      4.267576   316A      4.324791   317A      4.359060  
     318A      4.366565   319A      4.369620   320A      4.396049  
     321A      4.422901   322A      4.432117   323A      4.448205  
     324A      4.462576   325A      4.473839   326A      4.482113  
     327A      4.484773   328A      4.506281   329A      4.515115  
     330A      4.554307   331A      4.564751   332A      4.581890  
     333A      4.611845   334A      4.616033   335A      4.626314  
     336A      4.649688   337A      4.663222   338A      4.672645  
     339A      4.690427   340A      4.692808   341A      4.711549  
     342A      4.737710   343A      4.741058   344A      4.753258  
     345A      4.767989   346A      4.810955   347A      4.833942  
     348A      4.874550   349A      4.886321   350A      4.893628  
     351A      4.927751   352A      4.935607   353A      4.963764  
     354A      4.979614   355A      4.996361   356A      5.001354  
     357A      5.033156   358A      5.047362   359A      5.063251  
     360A      5.099182   361A      5.118022   362A      5.140118  
     363A      5.192969   364A      5.250510   365A      5.262807  
     366A      5.283542   367A      5.309670   368A      5.331444  
     369A      5.376046   370A      5.431365   371A      5.495909  
     372A      5.526630   373A      5.547402   374A      5.564152  
     375A      5.574179   376A      5.582624   377A      5.592246  
     378A      5.601749   379A      5.615000   380A      5.645654  
     381A      5.680921   382A      5.732496   383A      5.739037  
     384A      5.797713   385A      5.813631   386A      5.856247  
     387A      5.908137   388A      5.926019   389A      5.957411  
     390A      5.981008   391A      6.190751   392A      6.200621  
     393A      6.248739   394A      6.279219   395A      6.359258  
     396A      6.409562   397A      6.498257   398A      6.507674  
     399A      6.601249   400A      6.614339   401A      6.637086  
     402A      6.648738   403A      6.839581   404A      6.922761  
     405A      6.928643   406A      6.949094   407A      7.064361  
     408A      7.139843   409A      7.220246   410A      7.246466  
     411A      7.271743   412A      7.326525   413A      7.373468  
     414A      7.418909   415A      7.525236   416A      7.600796  
     417A      7.720142   418A      7.744524   419A      7.763091  
     420A      7.770623   421A      7.831552   422A      7.842366  
     423A      7.863515   424A      7.878928   425A      7.900871  
     426A      7.990017   427A      8.033289   428A      8.129939  
     429A      8.155334   430A      8.159219   431A      8.192425  
     432A      8.227820   433A      8.247506   434A      8.281268  
     435A      8.291871   436A      8.307903   437A      8.370831  
     438A      8.404337   439A      8.471274   440A      8.732298  
     441A      8.799339   442A      8.848617   443A      8.857572  
     444A      8.926333   445A      8.944888   446A      9.062574  
     447A      9.220401   448A      9.259964   449A      9.735363  
     450A      9.796909   451A      9.810933   452A      9.833031  
     453A      9.878185   454A      9.891167   455A      9.895662  
     456A      9.946672   457A     10.071969   458A     10.103962  
     459A     10.121521   460A     10.189094   461A     10.308581  
     462A     10.325257   463A     10.343659   464A     10.366548  
     465A     10.440894   466A     10.461941   467A     10.505722  
     468A     10.534844   469A     10.582437   470A     10.741427  
     471A     10.854252   472A     11.138147   473A     11.180006  
     474A     11.190634   475A     11.325330   476A     11.651359  
     477A     11.773359   478A     11.806771   479A     11.869374  
     480A     11.948597   481A     12.279004   482A     12.429772  
     483A     12.455851   484A     12.546955   485A     13.192931  
     486A     13.253366   487A     13.352284   488A     13.425128  
     489A     13.477890   490A     13.600080   491A     13.676771  
     492A     13.749098   493A     13.846946   494A     13.989706  
     495A     14.044378   496A     14.106487   497A     14.116989  
     498A     15.125700   499A     15.292321   500A     15.343467  
     501A     17.696071   502A     66.072952   503A     67.335035  
     504A     68.226578   505A     68.675729   506A     74.785330  

    Final Occupation by Irrep:
              A 
    DOCC [     5 ]
    NA   [     5 ]
    NB   [     5 ]

  @DF-RHF Final Energy:   -76.05960775425189

   => Energetics <=

    Nuclear Repulsion Energy =              9.2121771319524530
    One-Electron Energy =                -123.0935003716079592
    Two-Electron Energy =                  37.8217154854036224
    Total Energy =                        -76.0596077542518856

Computation Completed


Properties will be evaluated at   0.000000,   0.000000,   0.000000 [a0]

Properties computed using the SCF density matrix


 Multipole Moments:

 ------------------------------------------------------------------------------------
     Multipole            Electronic (a.u.)      Nuclear  (a.u.)        Total (a.u.)
 ------------------------------------------------------------------------------------

 L = 1.  Multiply by 2.5417464519 to convert [e a0] to [Debye]
 Dipole X            :        -35.8084306           35.7836271           -0.0248035
 Dipole Y            :         34.2240817          -33.5625753            0.6615064
 Dipole Z            :         -8.8454222            8.5554100           -0.2900122
 Magnitude           :                                                    0.7227123

 ------------------------------------------------------------------------------------

*** tstop() called on ddmfs1 at Mon Jan 22 18:59:02 2024
Module time:
	user time   =      85.43 seconds =       1.42 minutes
	system time =       4.15 seconds =       0.07 minutes
	total time  =          6 seconds =       0.10 minutes
Total time:
	user time   =      85.43 seconds =       1.42 minutes
	system time =       4.15 seconds =       0.07 minutes
	total time  =          6 seconds =       0.10 minutes

*** tstart() called on ddmfs1
*** at Mon Jan 22 18:59:02 2024


  //>>>>>>>>>>>>>>>>>>>>>>>>>>>>>>>>>>>//
  //               DFMP2               //
  //<<<<<<<<<<<<<<<<<<<<<<<<<<<<<<<<<<<//

   => Loading Basis Set <=

    Name: (AUG-CC-PVTZ AUX)
    Role: RIFIT
    Keyword: DF_BASIS_MP2
    atoms 1                            entry F          line   322 file /ddmfs1b/softs/psi4conda/share/psi4/basis/aug-cc-pvtz-ri.gbs 
    atoms 2, 5, 8, 11, 14              entry O          line   264 file /ddmfs1b/softs/psi4conda/share/psi4/basis/aug-cc-pvtz-ri.gbs 
    atoms 3-4, 6-7, 9-10, 12-13, 15-16 entry H          line    30 file /ddmfs1b/softs/psi4conda/share/psi4/basis/aug-cc-pvtz-ri.gbs 

	 --------------------------------------------------------
	                          DF-MP2                         
	      2nd-Order Density-Fitted Moller-Plesset Theory     
	              RMP2 Wavefunction,  20 Threads             
	                                                         
	        Rob Parrish, Justin Turney, Andy Simmonett,      
	           Ed Hohenstein, and C. David Sherrill          
	 --------------------------------------------------------

   => Auxiliary Basis Set <=

  Basis Set: (AUG-CC-PVTZ AUX)
    Blend: AUG-CC-PVTZ-RI
    Number of shells: 308
    Number of basis functions: 1096
    Number of Cartesian functions: 1366
    Spherical Harmonics?: true
    Max angular momentum: 4

	 --------------------------------------------------------
	                 NBF =   506, NAUX =  1096
	 --------------------------------------------------------
	   CLASS    FOCC     OCC    AOCC    AVIR     VIR    FVIR
	   PAIRS       0       5       5     501     501       0
	 --------------------------------------------------------

	-----------------------------------------------------------
	 ==================> DF-MP2 Energies <==================== 
	-----------------------------------------------------------
	 Reference Energy          =     -76.0596077542518856 [Eh]
	 Singles Energy            =      -0.0000000000000000 [Eh]
	 Same-Spin Energy          =      -0.0682774866596715 [Eh]
	 Opposite-Spin Energy      =      -0.2157277419040546 [Eh]
	 Correlation Energy        =      -0.2840052285637261 [Eh]
	 Total Energy              =     -76.3436129828156140 [Eh]
	-----------------------------------------------------------
	 ================> DF-SCS-MP2 Energies <================== 
	-----------------------------------------------------------
	 SCS Same-Spin Scale       =       0.3333333333333333 [-]
	 SCS Opposite-Spin Scale   =       1.2000000000000000 [-]
	 SCS Same-Spin Energy      =      -0.0227591622198905 [Eh]
	 SCS Opposite-Spin Energy  =      -0.2588732902848656 [Eh]
	 SCS Correlation Energy    =      -0.2816324525047560 [Eh]
	 SCS Total Energy          =     -76.3412402067566376 [Eh]
	-----------------------------------------------------------


*** tstop() called on ddmfs1 at Mon Jan 22 18:59:05 2024
Module time:
	user time   =      24.35 seconds =       0.41 minutes
	system time =       1.32 seconds =       0.02 minutes
	total time  =          3 seconds =       0.05 minutes
Total time:
	user time   =     109.80 seconds =       1.83 minutes
	system time =       5.47 seconds =       0.09 minutes
	total time  =          9 seconds =       0.15 minutes

    Psi4 stopped on: Monday, 22 January 2024 06:59PM
    Psi4 wall time for execution: 0:00:08.99

*** Psi4 exiting successfully. Buy a developer a beer!
