
    -----------------------------------------------------------------------
          Psi4: An Open-Source Ab Initio Electronic Structure Package
                               Psi4 1.8.2 release

                         Git: Rev {} zzzzzzz 


    D. G. A. Smith, L. A. Burns, A. C. Simmonett, R. M. Parrish,
    M. C. Schieber, R. Galvelis, P. Kraus, H. Kruse, R. Di Remigio,
    A. Alenaizan, A. M. James, S. Lehtola, J. P. Misiewicz, M. Scheurer,
    R. A. Shaw, J. B. Schriber, Y. Xie, Z. L. Glick, D. A. Sirianni,
    J. S. O'Brien, J. M. Waldrop, A. Kumar, E. G. Hohenstein,
    B. P. Pritchard, B. R. Brooks, H. F. Schaefer III, A. Yu. Sokolov,
    K. Patkowski, A. E. DePrince III, U. Bozkaya, R. A. King,
    F. A. Evangelista, J. M. Turney, T. D. Crawford, C. D. Sherrill,
    J. Chem. Phys. 152(18) 184108 (2020). https://doi.org/10.1063/5.0006002

                            Additional Code Authors
    E. T. Seidl, C. L. Janssen, E. F. Valeev, M. L. Leininger,
    J. F. Gonthier, R. M. Richard, H. R. McAlexander, M. Saitow, X. Wang,
    P. Verma, M. H. Lechner, A. Jiang, S. Behnle, A. G. Heide,
    M. F. Herbst, and D. L. Poole

             Previous Authors, Complete List of Code Contributors,
                       and Citations for Specific Modules
    https://github.com/psi4/psi4/blob/master/codemeta.json
    https://github.com/psi4/psi4/graphs/contributors
    http://psicode.org/psi4manual/master/introduction.html#citing-psifour

    -----------------------------------------------------------------------


    Psi4 started on: Monday, 22 January 2024 06:57PM

    Process ID: 94030
    Host:       ddmfs1
    PSIDATADIR: /ddmfs1b/softs/psi4conda/share/psi4
    Memory:     500.0 MiB
    Threads:    20
    
  ==> Input File <==

--------------------------------------------------------------------------
MEMORY 60 GB

molecule dimer {
-1 1
F          0.000000     0.000000     0.000000
O          1.451835    -1.452535     2.052395
H          1.469584    -0.899906     1.315952
H          1.373633    -0.980960     2.860466
O         -0.559359    -2.672142    -0.866309
H          0.288354    -3.135902    -0.865194
H         -0.225876    -1.778096    -0.742343
O          1.611940     2.034987     1.608686
H          1.025985     2.541931     2.212233
H          0.965893     1.555115     0.966858
O         -1.608533    -0.904734     2.300778
H         -1.271895    -0.716260     1.375122
H         -0.910123    -1.497503     2.647384
O         -2.280907     1.332090     0.163613
H         -1.494680     0.704833    -0.100659
H         -1.895508     2.117946     0.620702
O          0.450456     0.337148    -2.757854
H          1.193771     0.963211    -3.022596
H          0.495681     0.289983    -1.818199

units ang
no_reorient
no_com
symmetry c1
}

set {
basis        aug-cc-pVTZ
scf_type     df
}

energy("mp2")
--------------------------------------------------------------------------

  Memory set to  55.879 GiB by Python driver.

Scratch directory: /ddmfs1a/scratch/
   => Libint2 <=

    Primary   basis highest AM E, G, H:  5, 4, 3
    Auxiliary basis highest AM E, G, H:  6, 5, 4
    Onebody   basis highest AM E, G, H:  6, 5, 4
    Solid Harmonics ordering:            gaussian

*** tstart() called on ddmfs1
*** at Mon Jan 22 18:57:58 2024

   => Loading Basis Set <=

    Name: AUG-CC-PVTZ
    Role: ORBITAL
    Keyword: BASIS
    atoms 1                                   entry F          line   377 file /ddmfs1b/softs/psi4conda/share/psi4/basis/aug-cc-pvtz.gbs 
    atoms 2, 5, 8, 11, 14, 17                 entry O          line   331 file /ddmfs1b/softs/psi4conda/share/psi4/basis/aug-cc-pvtz.gbs 
    atoms 3-4, 6-7, 9-10, 12-13, 15-16, 18-19 entry H          line    40 file /ddmfs1b/softs/psi4conda/share/psi4/basis/aug-cc-pvtz.gbs 


         ---------------------------------------------------------
                                   SCF
               by Justin Turney, Rob Parrish, Andy Simmonett
                          and Daniel G. A. Smith
                              RHF Reference
                       20 Threads,  57220 MiB Core
         ---------------------------------------------------------

  ==> Geometry <==

    Molecular point group: c1
    Full point group: C1

    Geometry (in Angstrom), charge = -1, multiplicity = 1:

       Center              X                  Y                   Z               Mass       
    ------------   -----------------  -----------------  -----------------  -----------------
         F            0.000000000000     0.000000000000     0.000000000000    18.998403162730
         O            1.451835000000    -1.452535000000     2.052395000000    15.994914619570
         H            1.469584000000    -0.899906000000     1.315952000000     1.007825032230
         H            1.373633000000    -0.980960000000     2.860466000000     1.007825032230
         O           -0.559359000000    -2.672142000000    -0.866309000000    15.994914619570
         H            0.288354000000    -3.135902000000    -0.865194000000     1.007825032230
         H           -0.225876000000    -1.778096000000    -0.742343000000     1.007825032230
         O            1.611940000000     2.034987000000     1.608686000000    15.994914619570
         H            1.025985000000     2.541931000000     2.212233000000     1.007825032230
         H            0.965893000000     1.555115000000     0.966858000000     1.007825032230
         O           -1.608533000000    -0.904734000000     2.300778000000    15.994914619570
         H           -1.271895000000    -0.716260000000     1.375122000000     1.007825032230
         H           -0.910123000000    -1.497503000000     2.647384000000     1.007825032230
         O           -2.280907000000     1.332090000000     0.163613000000    15.994914619570
         H           -1.494680000000     0.704833000000    -0.100659000000     1.007825032230
         H           -1.895508000000     2.117946000000     0.620702000000     1.007825032230
         O            0.450456000000     0.337148000000    -2.757854000000    15.994914619570
         H            1.193771000000     0.963211000000    -3.022596000000     1.007825032230
         H            0.495681000000     0.289983000000    -1.818199000000     1.007825032230

  Running in c1 symmetry.

  Rotational constants: A =      0.03282  B =      0.02878  C =      0.02543 [cm^-1]
  Rotational constants: A =    983.98809  B =    862.74382  C =    762.46016 [MHz]
  Nuclear repulsion =  352.275590414812541

  Charge       = -1
  Multiplicity = 1
  Electrons    = 70
  Nalpha       = 35
  Nbeta        = 35

  ==> Algorithm <==

  SCF Algorithm Type is DF.
  DIIS enabled.
  MOM disabled.
  Fractional occupation disabled.
  Guess Type is SAD.
  Energy threshold   = 1.00e-08
  Density threshold  = 1.00e-08
  Integral threshold = 1.00e-12

  ==> Primary Basis <==

  Basis Set: AUG-CC-PVTZ
    Blend: AUG-CC-PVTZ
    Number of shells: 206
    Number of basis functions: 598
    Number of Cartesian functions: 685
    Spherical Harmonics?: true
    Max angular momentum: 3

   => Loading Basis Set <=

    Name: (AUG-CC-PVTZ AUX)
    Role: JKFIT
    Keyword: DF_BASIS_SCF
    atoms 1                                   entry F          line   348 file /ddmfs1b/softs/psi4conda/share/psi4/basis/aug-cc-pvtz-jkfit.gbs 
    atoms 2, 5, 8, 11, 14, 17                 entry O          line   286 file /ddmfs1b/softs/psi4conda/share/psi4/basis/aug-cc-pvtz-jkfit.gbs 
    atoms 3-4, 6-7, 9-10, 12-13, 15-16, 18-19 entry H          line    70 file /ddmfs1b/softs/psi4conda/share/psi4/basis/aug-cc-pvtz-jkfit.gbs 

  ==> Integral Setup <==

  DFHelper Memory: AOs need 3.179 GiB; user supplied 41.910 GiB. 
  Using in-core AOs.

  ==> MemDFJK: Density-Fitted J/K Matrices <==

    J tasked:                   Yes
    K tasked:                   Yes
    wK tasked:                   No
    OpenMP threads:              20
    Memory [MiB]:             42915
    Algorithm:                 Core
    Schwarz Cutoff:           1E-12
    Mask sparsity (%):      10.8237
    Fitting Condition:        1E-10

   => Auxiliary Basis Set <=

  Basis Set: (AUG-CC-PVTZ AUX)
    Blend: AUG-CC-PVTZ-JKFIT
    Number of shells: 378
    Number of basis functions: 1280
    Number of Cartesian functions: 1577
    Spherical Harmonics?: true
    Max angular momentum: 4

  Minimum eigenvalue in the overlap matrix is 3.2310917699E-05.
  Reciprocal condition number of the overlap matrix is 2.0855020455E-06.
    Using symmetric orthogonalization.

  ==> Pre-Iterations <==

  SCF Guess: Superposition of Atomic Densities via on-the-fly atomic UHF (no occupation information).

   -------------------------
    Irrep   Nso     Nmo    
   -------------------------
     A        598     598 
   -------------------------
    Total     598     598
   -------------------------

  ==> Iterations <==

                           Total Energy        Delta E     RMS |[F,P]|

   @DF-RHF iter SAD:  -552.06555564112728   -5.52066e+02   0.00000e+00 
   @DF-RHF iter   1:  -555.37752606609888   -3.31197e+00   1.97668e-03 DIIS/ADIIS
   @DF-RHF iter   2:  -555.70789818857713   -3.30372e-01   1.34525e-03 DIIS/ADIIS
   @DF-RHF iter   3:  -555.90347252471668   -1.95574e-01   9.11528e-05 DIIS
   @DF-RHF iter   4:  -555.90594231290402   -2.46979e-03   3.02654e-05 DIIS
   @DF-RHF iter   5:  -555.90612030990224   -1.77997e-04   1.21463e-05 DIIS
   @DF-RHF iter   6:  -555.90615173369042   -3.14238e-05   2.97430e-06 DIIS
   @DF-RHF iter   7:  -555.90615528719172   -3.55350e-06   9.30670e-07 DIIS
   @DF-RHF iter   8:  -555.90615555216948   -2.64978e-07   3.91864e-07 DIIS
   @DF-RHF iter   9:  -555.90615559128162   -3.91121e-08   6.76878e-08 DIIS
   @DF-RHF iter  10:  -555.90615559333264   -2.05102e-09   1.47744e-08 DIIS
   @DF-RHF iter  11:  -555.90615559340984   -7.71934e-11   6.40221e-09 DIIS
  Energy and wave function converged.


  ==> Post-Iterations <==

    Orbital Energies [Eh]
    ---------------------

    Doubly Occupied:                                                      

       1A    -26.012113     2A    -20.445284     3A    -20.421054  
       4A    -20.420763     5A    -20.407799     6A    -20.396120  
       7A    -20.389719     8A     -1.279708     9A     -1.226824  
      10A     -1.203928    11A     -1.198490    12A     -1.194271  
      13A     -1.165027    14A     -1.147899    15A     -0.615581  
      16A     -0.568104    17A     -0.566478    18A     -0.544505  
      19A     -0.534488    20A     -0.516996    21A     -0.454710  
      22A     -0.444446    23A     -0.442182    24A     -0.439713  
      25A     -0.425540    26A     -0.416660    27A     -0.381337  
      28A     -0.375201    29A     -0.368577    30A     -0.366113  
      31A     -0.362876    32A     -0.351939    33A     -0.345860  
      34A     -0.334575    35A     -0.325892  

    Virtual:                                                              

      36A      0.113536    37A      0.118915    38A      0.127777  
      39A      0.135889    40A      0.143772    41A      0.152607  
      42A      0.166567    43A      0.175064    44A      0.186306  
      45A      0.192709    46A      0.195775    47A      0.205538  
      48A      0.234635    49A      0.250162    50A      0.262615  
      51A      0.264821    52A      0.270952    53A      0.274327  
      54A      0.276284    55A      0.293893    56A      0.294946  
      57A      0.299858    58A      0.305813    59A      0.311668  
      60A      0.318111    61A      0.323090    62A      0.328667  
      63A      0.330373    64A      0.336247    65A      0.348504  
      66A      0.356101    67A      0.363110    68A      0.363635  
      69A      0.366418    70A      0.378173    71A      0.381822  
      72A      0.388752    73A      0.391771    74A      0.400969  
      75A      0.405074    76A      0.424608    77A      0.426447  
      78A      0.430878    79A      0.440606    80A      0.442216  
      81A      0.450031    82A      0.459428    83A      0.472583  
      84A      0.484336    85A      0.490703    86A      0.492192  
      87A      0.503779    88A      0.507981    89A      0.518276  
      90A      0.527244    91A      0.527793    92A      0.534274  
      93A      0.540960    94A      0.546605    95A      0.549168  
      96A      0.555925    97A      0.564022    98A      0.567109  
      99A      0.575717   100A      0.581288   101A      0.590899  
     102A      0.596482   103A      0.608728   104A      0.611460  
     105A      0.616293   106A      0.631605   107A      0.636831  
     108A      0.646903   109A      0.656010   110A      0.665940  
     111A      0.670636   112A      0.679598   113A      0.688862  
     114A      0.705676   115A      0.710639   116A      0.732156  
     117A      0.734550   118A      0.743052   119A      0.753013  
     120A      0.757478   121A      0.772013   122A      0.780476  
     123A      0.784833   124A      0.799905   125A      0.814503  
     126A      0.824864   127A      0.834196   128A      0.844452  
     129A      0.853635   130A      0.863251   131A      0.868952  
     132A      0.874206   133A      0.880220   134A      0.888896  
     135A      0.892379   136A      0.899724   137A      0.907481  
     138A      0.918076   139A      0.921317   140A      0.924307  
     141A      0.932987   142A      0.945733   143A      0.947334  
     144A      0.957537   145A      0.962184   146A      0.965593  
     147A      0.972709   148A      0.981844   149A      0.991212  
     150A      0.994167   151A      1.002550   152A      1.008500  
     153A      1.020616   154A      1.026329   155A      1.038078  
     156A      1.043556   157A      1.050825   158A      1.055009  
     159A      1.063223   160A      1.075680   161A      1.083599  
     162A      1.084783   163A      1.090631   164A      1.097083  
     165A      1.101327   166A      1.109395   167A      1.112182  
     168A      1.119884   169A      1.124348   170A      1.129173  
     171A      1.135359   172A      1.143153   173A      1.148149  
     174A      1.161130   175A      1.165272   176A      1.166195  
     177A      1.174590   178A      1.176160   179A      1.179229  
     180A      1.189733   181A      1.197031   182A      1.204956  
     183A      1.213388   184A      1.217241   185A      1.224757  
     186A      1.229027   187A      1.236335   188A      1.246859  
     189A      1.254357   190A      1.263011   191A      1.270712  
     192A      1.272015   193A      1.275005   194A      1.284436  
     195A      1.301955   196A      1.306632   197A      1.314040  
     198A      1.317996   199A      1.335904   200A      1.345438  
     201A      1.349212   202A      1.360353   203A      1.372394  
     204A      1.377607   205A      1.389377   206A      1.399929  
     207A      1.402313   208A      1.411067   209A      1.416155  
     210A      1.429815   211A      1.438145   212A      1.449434  
     213A      1.451696   214A      1.457058   215A      1.460897  
     216A      1.467360   217A      1.480982   218A      1.495738  
     219A      1.502643   220A      1.515173   221A      1.519378  
     222A      1.534211   223A      1.549044   224A      1.559716  
     225A      1.561874   226A      1.572069   227A      1.575486  
     228A      1.588583   229A      1.597032   230A      1.617341  
     231A      1.626374   232A      1.640994   233A      1.645389  
     234A      1.658069   235A      1.660420   236A      1.684919  
     237A      1.690665   238A      1.701551   239A      1.711124  
     240A      1.729213   241A      1.736047   242A      1.751742  
     243A      1.766261   244A      1.772854   245A      1.781724  
     246A      1.792421   247A      1.801133   248A      1.810114  
     249A      1.823372   250A      1.835013   251A      1.846649  
     252A      1.856614   253A      1.858696   254A      1.864888  
     255A      1.884052   256A      1.912503   257A      1.917664  
     258A      1.934907   259A      1.944542   260A      1.950790  
     261A      1.965495   262A      1.974795   263A      1.979543  
     264A      2.006362   265A      2.020060   266A      2.035093  
     267A      2.046775   268A      2.066071   269A      2.080731  
     270A      2.087424   271A      2.110092   272A      2.124852  
     273A      2.153655   274A      2.156322   275A      2.170336  
     276A      2.181513   277A      2.205555   278A      2.234188  
     279A      2.238289   280A      2.255624   281A      2.267845  
     282A      2.287543   283A      2.326943   284A      2.354447  
     285A      2.387376   286A      2.409507   287A      2.435889  
     288A      2.451807   289A      2.467353   290A      2.475530  
     291A      2.500476   292A      2.504457   293A      2.516293  
     294A      2.535921   295A      2.544551   296A      2.546126  
     297A      2.559842   298A      2.568537   299A      2.579017  
     300A      2.587942   301A      2.594015   302A      2.607465  
     303A      2.623432   304A      2.631485   305A      2.645111  
     306A      2.650862   307A      2.653225   308A      2.663972  
     309A      2.679155   310A      2.680628   311A      2.684999  
     312A      2.695183   313A      2.706823   314A      2.715458  
     315A      2.717791   316A      2.730784   317A      2.743081  
     318A      2.758093   319A      2.764138   320A      2.766577  
     321A      2.785735   322A      2.795523   323A      2.812032  
     324A      2.814750   325A      2.827154   326A      2.836603  
     327A      2.848825   328A      2.863329   329A      2.869749  
     330A      2.878598   331A      2.886213   332A      2.901603  
     333A      2.920825   334A      2.924787   335A      2.927288  
     336A      2.942164   337A      2.951910   338A      2.965435  
     339A      2.972265   340A      2.983226   341A      3.000458  
     342A      3.005701   343A      3.011057   344A      3.014420  
     345A      3.027443   346A      3.028421   347A      3.047143  
     348A      3.068141   349A      3.070970   350A      3.082044  
     351A      3.093232   352A      3.122876   353A      3.127766  
     354A      3.156068   355A      3.159736   356A      3.172176  
     357A      3.191062   358A      3.216591   359A      3.239778  
     360A      3.248076   361A      3.263249   362A      3.296238  
     363A      3.305503   364A      3.323941   365A      3.335547  
     366A      3.478053   367A      3.534743   368A      3.618262  
     369A      3.661881   370A      3.706377   371A      3.712158  
     372A      3.751866   373A      3.776776   374A      3.812325  
     375A      3.835964   376A      3.869055   377A      3.911832  
     378A      3.940643   379A      3.954405   380A      3.963922  
     381A      3.993069   382A      4.042293   383A      4.068019  
     384A      4.085800   385A      4.144353   386A      4.171344  
     387A      4.197338   388A      4.212087   389A      4.241875  
     390A      4.243890   391A      4.268513   392A      4.283347  
     393A      4.293275   394A      4.318335   395A      4.340310  
     396A      4.358623   397A      4.371252   398A      4.383332  
     399A      4.394431   400A      4.400599   401A      4.405349  
     402A      4.424186   403A      4.445378   404A      4.449472  
     405A      4.461094   406A      4.465418   407A      4.474448  
     408A      4.488539   409A      4.501646   410A      4.509694  
     411A      4.514824   412A      4.525891   413A      4.535786  
     414A      4.546709   415A      4.560597   416A      4.575785  
     417A      4.577075   418A      4.587772   419A      4.589789  
     420A      4.604655   421A      4.609039   422A      4.624560  
     423A      4.628225   424A      4.629856   425A      4.647253  
     426A      4.655364   427A      4.673542   428A      4.681459  
     429A      4.700608   430A      4.707225   431A      4.712803  
     432A      4.729485   433A      4.737563   434A      4.739951  
     435A      4.769412   436A      4.787325   437A      4.794212  
     438A      4.824839   439A      4.841948   440A      4.859798  
     441A      4.871670   442A      4.891546   443A      4.909640  
     444A      4.915774   445A      4.948464   446A      4.954198  
     447A      4.988730   448A      5.023295   449A      5.043502  
     450A      5.056095   451A      5.066133   452A      5.098697  
     453A      5.131245   454A      5.177980   455A      5.186404  
     456A      5.208249   457A      5.215063   458A      5.231716  
     459A      5.267256   460A      5.283018   461A      5.287953  
     462A      5.320425   463A      5.340688   464A      5.354444  
     465A      5.384185   466A      5.407848   467A      5.445790  
     468A      5.455026   469A      5.463968   470A      5.476680  
     471A      5.488789   472A      5.512604   473A      5.533061  
     474A      5.548339   475A      5.553608   476A      5.570192  
     477A      5.580555   478A      5.608935   479A      5.641129  
     480A      5.652398   481A      5.676291   482A      5.695291  
     483A      5.703611   484A      5.727412   485A      5.758623  
     486A      5.799502   487A      5.849236   488A      5.855261  
     489A      5.901892   490A      5.916641   491A      6.035012  
     492A      6.101617   493A      6.331804   494A      6.378607  
     495A      6.384437   496A      6.403194   497A      6.452143  
     498A      6.483999   499A      6.536147   500A      6.605797  
     501A      6.689407   502A      6.709510   503A      6.716519  
     504A      6.742855   505A      6.757400   506A      6.784196  
     507A      6.822944   508A      6.907099   509A      6.955618  
     510A      6.974955   511A      6.985534   512A      7.021702  
     513A      7.038366   514A      7.057553   515A      7.094297  
     516A      7.103331   517A      7.120486   518A      7.202349  
     519A      7.241659   520A      7.259350   521A      7.269639  
     522A      7.313961   523A      7.336752   524A      7.361727  
     525A      7.387963   526A      7.398324   527A      7.401658  
     528A      7.402919   529A      7.427674   530A      7.444679  
     531A      7.455563   532A      7.473159   533A      7.480982  
     534A      7.485397   535A      7.490248   536A      7.507947  
     537A      7.520284   538A      7.524260   539A      7.535474  
     540A      7.548174   541A      7.549308   542A      7.557188  
     543A      7.564777   544A      7.588350   545A      7.596656  
     546A      7.608102   547A      7.626441   548A      7.645964  
     549A      7.654975   550A      7.677949   551A      7.683240  
     552A      7.728087   553A      7.741566   554A      7.757020  
     555A      7.778217   556A      7.807201   557A      7.868029  
     558A      7.900646   559A      7.918197   560A      7.958237  
     561A      7.993791   562A      8.038684   563A      8.080454  
     564A      8.094414   565A      8.121426   566A      8.128533  
     567A      8.154219   568A      8.172169   569A      8.185180  
     570A      8.208316   571A      8.220486   572A      8.237303  
     573A      8.338221   574A      8.737533   575A      8.766264  
     576A      8.892829   577A      8.901996   578A      9.054448  
     579A      9.102907   580A      9.296664   581A      9.476901  
     582A      9.493102   583A      9.503614   584A      9.678671  
     585A      9.744192   586A      9.836292   587A     10.028591  
     588A     10.078592   589A     10.105577   590A     10.233615  
     591A     10.330877   592A     15.064372   593A     15.326759  
     594A     15.861567   595A     16.091248   596A     16.859605  
     597A     16.957827   598A     17.806838  

    Final Occupation by Irrep:
              A 
    DOCC [    35 ]
    NA   [    35 ]
    NB   [    35 ]

  @DF-RHF Final Energy:  -555.90615559340984

   => Energetics <=

    Nuclear Repulsion Energy =            352.2755904148125410
    One-Electron Energy =               -1484.1819376325231588
    Two-Electron Energy =                 576.0001916243007827
    Total Energy =                       -555.9061555934098351

Computation Completed


Properties will be evaluated at   0.000000,   0.000000,   0.000000 [a0]

Properties computed using the SCF density matrix


 Multipole Moments:

 ------------------------------------------------------------------------------------
     Multipole            Electronic (a.u.)      Nuclear  (a.u.)        Total (a.u.)
 ------------------------------------------------------------------------------------

 L = 1.  Multiply by 2.5417464519 to convert [e a0] to [Debye]
 Dipole X            :         14.2858001          -12.2108905            2.0749095
 Dipole Y            :         22.7653613          -21.6129791            1.1523822
 Dipole Z            :        -48.0297118           48.1128013            0.0830896
 Magnitude           :                                                    2.3748975

 ------------------------------------------------------------------------------------

*** tstop() called on ddmfs1 at Mon Jan 22 18:58:10 2024
Module time:
	user time   =     194.29 seconds =       3.24 minutes
	system time =       9.36 seconds =       0.16 minutes
	total time  =         12 seconds =       0.20 minutes
Total time:
	user time   =     194.29 seconds =       3.24 minutes
	system time =       9.36 seconds =       0.16 minutes
	total time  =         12 seconds =       0.20 minutes

*** tstart() called on ddmfs1
*** at Mon Jan 22 18:58:10 2024


  //>>>>>>>>>>>>>>>>>>>>>>>>>>>>>>>>>>>//
  //               DFMP2               //
  //<<<<<<<<<<<<<<<<<<<<<<<<<<<<<<<<<<<//

   => Loading Basis Set <=

    Name: (AUG-CC-PVTZ AUX)
    Role: RIFIT
    Keyword: DF_BASIS_MP2
    atoms 1                                   entry F          line   322 file /ddmfs1b/softs/psi4conda/share/psi4/basis/aug-cc-pvtz-ri.gbs 
    atoms 2, 5, 8, 11, 14, 17                 entry O          line   264 file /ddmfs1b/softs/psi4conda/share/psi4/basis/aug-cc-pvtz-ri.gbs 
    atoms 3-4, 6-7, 9-10, 12-13, 15-16, 18-19 entry H          line    30 file /ddmfs1b/softs/psi4conda/share/psi4/basis/aug-cc-pvtz-ri.gbs 

	 --------------------------------------------------------
	                          DF-MP2                         
	      2nd-Order Density-Fitted Moller-Plesset Theory     
	              RMP2 Wavefunction,  20 Threads             
	                                                         
	        Rob Parrish, Justin Turney, Andy Simmonett,      
	           Ed Hohenstein, and C. David Sherrill          
	 --------------------------------------------------------

   => Auxiliary Basis Set <=

  Basis Set: (AUG-CC-PVTZ AUX)
    Blend: AUG-CC-PVTZ-RI
    Number of shells: 364
    Number of basis functions: 1294
    Number of Cartesian functions: 1612
    Spherical Harmonics?: true
    Max angular momentum: 4

	 --------------------------------------------------------
	                 NBF =   598, NAUX =  1294
	 --------------------------------------------------------
	   CLASS    FOCC     OCC    AOCC    AVIR     VIR    FVIR
	   PAIRS       0      35      35     563     563       0
	 --------------------------------------------------------

	-----------------------------------------------------------
	 ==================> DF-MP2 Energies <==================== 
	-----------------------------------------------------------
	 Reference Energy          =    -555.9061555934098351 [Eh]
	 Singles Energy            =      -0.0000000000000000 [Eh]
	 Same-Spin Energy          =      -0.5042825651297345 [Eh]
	 Opposite-Spin Energy      =      -1.5372399242341519 [Eh]
	 Correlation Energy        =      -2.0415224893638864 [Eh]
	 Total Energy              =    -557.9476780827736775 [Eh]
	-----------------------------------------------------------
	 ================> DF-SCS-MP2 Energies <================== 
	-----------------------------------------------------------
	 SCS Same-Spin Scale       =       0.3333333333333333 [-]
	 SCS Opposite-Spin Scale   =       1.2000000000000000 [-]
	 SCS Same-Spin Energy      =      -0.1680941883765781 [Eh]
	 SCS Opposite-Spin Energy  =      -1.8446879090809822 [Eh]
	 SCS Correlation Energy    =      -2.0127820974575603 [Eh]
	 SCS Total Energy          =    -557.9189376908674376 [Eh]
	-----------------------------------------------------------


*** tstop() called on ddmfs1 at Mon Jan 22 18:58:17 2024
Module time:
	user time   =      65.07 seconds =       1.08 minutes
	system time =       2.80 seconds =       0.05 minutes
	total time  =          7 seconds =       0.12 minutes
Total time:
	user time   =     259.38 seconds =       4.32 minutes
	system time =      12.16 seconds =       0.20 minutes
	total time  =         19 seconds =       0.32 minutes

    Psi4 stopped on: Monday, 22 January 2024 06:58PM
    Psi4 wall time for execution: 0:00:19.02

*** Psi4 exiting successfully. Buy a developer a beer!
