
    -----------------------------------------------------------------------
          Psi4: An Open-Source Ab Initio Electronic Structure Package
                               Psi4 1.8.2 release

                         Git: Rev {} zzzzzzz 


    D. G. A. Smith, L. A. Burns, A. C. Simmonett, R. M. Parrish,
    M. C. Schieber, R. Galvelis, P. Kraus, H. Kruse, R. Di Remigio,
    A. Alenaizan, A. M. James, S. Lehtola, J. P. Misiewicz, M. Scheurer,
    R. A. Shaw, J. B. Schriber, Y. Xie, Z. L. Glick, D. A. Sirianni,
    J. S. O'Brien, J. M. Waldrop, A. Kumar, E. G. Hohenstein,
    B. P. Pritchard, B. R. Brooks, H. F. Schaefer III, A. Yu. Sokolov,
    K. Patkowski, A. E. DePrince III, U. Bozkaya, R. A. King,
    F. A. Evangelista, J. M. Turney, T. D. Crawford, C. D. Sherrill,
    J. Chem. Phys. 152(18) 184108 (2020). https://doi.org/10.1063/5.0006002

                            Additional Code Authors
    E. T. Seidl, C. L. Janssen, E. F. Valeev, M. L. Leininger,
    J. F. Gonthier, R. M. Richard, H. R. McAlexander, M. Saitow, X. Wang,
    P. Verma, M. H. Lechner, A. Jiang, S. Behnle, A. G. Heide,
    M. F. Herbst, and D. L. Poole

             Previous Authors, Complete List of Code Contributors,
                       and Citations for Specific Modules
    https://github.com/psi4/psi4/blob/master/codemeta.json
    https://github.com/psi4/psi4/graphs/contributors
    http://psicode.org/psi4manual/master/introduction.html#citing-psifour

    -----------------------------------------------------------------------


    Psi4 started on: Monday, 22 January 2024 06:31PM

    Process ID: 90974
    Host:       ddmfs1
    PSIDATADIR: /ddmfs1b/softs/psi4conda/share/psi4
    Memory:     500.0 MiB
    Threads:    20
    
  ==> Input File <==

--------------------------------------------------------------------------
MEMORY 60 GB

molecule dimer {
0 1
Gh(F)      0.000000     0.000000     0.000000
Gh(O)     -2.514233    -0.838589    -0.868966
Gh(H)     -2.777531    -0.864339    -1.789497
Gh(H)     -1.566044    -0.593973    -0.828615
Gh(O)     -0.782480     1.801604    -2.000038
Gh(H)     -1.732362     1.945839    -1.851762
Gh(H)     -0.584653     1.094475    -1.373167
Gh(O)     -0.590907     2.720783     1.336329
Gh(H)      0.319764     2.744529     0.971711
Gh(H)     -0.949250     1.810129     1.212275
Gh(O)      2.242812     1.445091    -0.026596
Gh(H)      1.411790     1.013484    -0.212396
Gh(H)      2.372371     1.996144    -0.840441
O          1.553258    -1.647504    -1.312027
H          1.527789    -2.312558    -0.611092
H          1.024731    -0.930018    -0.897315

units ang
no_reorient
no_com
symmetry c1
}

set {
basis        aug-cc-pVTZ
scf_type     df
}

energy("mp2")
--------------------------------------------------------------------------

  Memory set to  55.879 GiB by Python driver.

Scratch directory: /ddmfs1a/scratch/
   => Libint2 <=

    Primary   basis highest AM E, G, H:  5, 4, 3
    Auxiliary basis highest AM E, G, H:  6, 5, 4
    Onebody   basis highest AM E, G, H:  6, 5, 4
    Solid Harmonics ordering:            gaussian

*** tstart() called on ddmfs1
*** at Mon Jan 22 18:31:31 2024

   => Loading Basis Set <=

    Name: AUG-CC-PVTZ
    Role: ORBITAL
    Keyword: BASIS
    atoms 1                            entry F          line   377 file /ddmfs1b/softs/psi4conda/share/psi4/basis/aug-cc-pvtz.gbs 
    atoms 2, 5, 8, 11, 14              entry O          line   331 file /ddmfs1b/softs/psi4conda/share/psi4/basis/aug-cc-pvtz.gbs 
    atoms 3-4, 6-7, 9-10, 12-13, 15-16 entry H          line    40 file /ddmfs1b/softs/psi4conda/share/psi4/basis/aug-cc-pvtz.gbs 


         ---------------------------------------------------------
                                   SCF
               by Justin Turney, Rob Parrish, Andy Simmonett
                          and Daniel G. A. Smith
                              RHF Reference
                       20 Threads,  57220 MiB Core
         ---------------------------------------------------------

  ==> Geometry <==

    Molecular point group: c1
    Full point group: C1

    Geometry (in Angstrom), charge = 0, multiplicity = 1:

       Center              X                  Y                   Z               Mass       
    ------------   -----------------  -----------------  -----------------  -----------------
      Gh(F)           0.000000000000     0.000000000000     0.000000000000    18.998403162730
      Gh(O)          -2.514233000000    -0.838589000000    -0.868966000000    15.994914619570
      Gh(H)          -2.777531000000    -0.864339000000    -1.789497000000     1.007825032230
      Gh(H)          -1.566044000000    -0.593973000000    -0.828615000000     1.007825032230
      Gh(O)          -0.782480000000     1.801604000000    -2.000038000000    15.994914619570
      Gh(H)          -1.732362000000     1.945839000000    -1.851762000000     1.007825032230
      Gh(H)          -0.584653000000     1.094475000000    -1.373167000000     1.007825032230
      Gh(O)          -0.590907000000     2.720783000000     1.336329000000    15.994914619570
      Gh(H)           0.319764000000     2.744529000000     0.971711000000     1.007825032230
      Gh(H)          -0.949250000000     1.810129000000     1.212275000000     1.007825032230
      Gh(O)           2.242812000000     1.445091000000    -0.026596000000    15.994914619570
      Gh(H)           1.411790000000     1.013484000000    -0.212396000000     1.007825032230
      Gh(H)           2.372371000000     1.996144000000    -0.840441000000     1.007825032230
         O            1.553258000000    -1.647504000000    -1.312027000000    15.994914619570
         H            1.527789000000    -2.312558000000    -0.611092000000     1.007825032230
         H            1.024731000000    -0.930018000000    -0.897315000000     1.007825032230

  Running in c1 symmetry.

  Rotational constants: A =      0.04301  B =      0.03921  C =      0.02980 [cm^-1]
  Rotational constants: A =   1289.35094  B =   1175.59665  C =    893.30284 [MHz]
  Nuclear repulsion =    9.039930178012346

  Charge       = 0
  Multiplicity = 1
  Electrons    = 10
  Nalpha       = 5
  Nbeta        = 5

  ==> Algorithm <==

  SCF Algorithm Type is DF.
  DIIS enabled.
  MOM disabled.
  Fractional occupation disabled.
  Guess Type is SAD.
  Energy threshold   = 1.00e-08
  Density threshold  = 1.00e-08
  Integral threshold = 1.00e-12

  ==> Primary Basis <==

  Basis Set: AUG-CC-PVTZ
    Blend: AUG-CC-PVTZ
    Number of shells: 174
    Number of basis functions: 506
    Number of Cartesian functions: 580
    Spherical Harmonics?: true
    Max angular momentum: 3

   => Loading Basis Set <=

    Name: (AUG-CC-PVTZ AUX)
    Role: JKFIT
    Keyword: DF_BASIS_SCF
    atoms 1                            entry F          line   348 file /ddmfs1b/softs/psi4conda/share/psi4/basis/aug-cc-pvtz-jkfit.gbs 
    atoms 2, 5, 8, 11, 14              entry O          line   286 file /ddmfs1b/softs/psi4conda/share/psi4/basis/aug-cc-pvtz-jkfit.gbs 
    atoms 3-4, 6-7, 9-10, 12-13, 15-16 entry H          line    70 file /ddmfs1b/softs/psi4conda/share/psi4/basis/aug-cc-pvtz-jkfit.gbs 

  ==> Integral Setup <==

  DFHelper Memory: AOs need 1.993 GiB; user supplied 41.910 GiB. 
  Using in-core AOs.

  ==> MemDFJK: Density-Fitted J/K Matrices <==

    J tasked:                   Yes
    K tasked:                   Yes
    wK tasked:                   No
    OpenMP threads:              20
    Memory [MiB]:             42915
    Algorithm:                 Core
    Schwarz Cutoff:           1E-12
    Mask sparsity (%):       8.3894
    Fitting Condition:        1E-10

   => Auxiliary Basis Set <=

  Basis Set: (AUG-CC-PVTZ AUX)
    Blend: AUG-CC-PVTZ-JKFIT
    Number of shells: 320
    Number of basis functions: 1084
    Number of Cartesian functions: 1336
    Spherical Harmonics?: true
    Max angular momentum: 4

  Minimum eigenvalue in the overlap matrix is 9.3125123428E-05.
  Reciprocal condition number of the overlap matrix is 6.2889314728E-06.
    Using symmetric orthogonalization.

  ==> Pre-Iterations <==

  SCF Guess: Superposition of Atomic Densities via on-the-fly atomic UHF (no occupation information).

   -------------------------
    Irrep   Nso     Nmo    
   -------------------------
     A        506     506 
   -------------------------
    Total     506     506
   -------------------------

  ==> Iterations <==

                           Total Energy        Delta E     RMS |[F,P]|

   @DF-RHF iter SAD:   -75.46191345032513   -7.54619e+01   0.00000e+00 
   @DF-RHF iter   1:   -75.97278953927508   -5.10876e-01   9.23933e-04 ADIIS/DIIS
   @DF-RHF iter   2:   -76.02490525156325   -5.21157e-02   6.43483e-04 ADIIS/DIIS
   @DF-RHF iter   3:   -76.05788114129814   -3.29759e-02   4.37217e-05 DIIS
   @DF-RHF iter   4:   -76.05828860144521   -4.07460e-04   1.08553e-05 DIIS
   @DF-RHF iter   5:   -76.05831664523259   -2.80438e-05   2.53493e-06 DIIS
   @DF-RHF iter   6:   -76.05831902738622   -2.38215e-06   5.49444e-07 DIIS
   @DF-RHF iter   7:   -76.05831914804945   -1.20663e-07   9.32191e-08 DIIS
   @DF-RHF iter   8:   -76.05831915103411   -2.98466e-09   1.57452e-08 DIIS
   @DF-RHF iter   9:   -76.05831915110052   -6.64073e-11   3.82013e-09 DIIS
  Energy and wave function converged.


  ==> Post-Iterations <==

    Orbital Energies [Eh]
    ---------------------

    Doubly Occupied:                                                      

       1A    -20.571884     2A     -1.347545     3A     -0.700533  
       4A     -0.589312     5A     -0.510106  

    Virtual:                                                              

       6A      0.016333     7A      0.033556     8A      0.036657  
       9A      0.042925    10A      0.056830    11A      0.060149  
      12A      0.065528    13A      0.068875    14A      0.073129  
      15A      0.095201    16A      0.106672    17A      0.124479  
      18A      0.130636    19A      0.140746    20A      0.142680  
      21A      0.146564    22A      0.157393    23A      0.159960  
      24A      0.169770    25A      0.171733    26A      0.177653  
      27A      0.180791    28A      0.184967    29A      0.193257  
      30A      0.210089    31A      0.211723    32A      0.216247  
      33A      0.223603    34A      0.235201    35A      0.240725  
      36A      0.250173    37A      0.252443    38A      0.265175  
      39A      0.275696    40A      0.276191    41A      0.299208  
      42A      0.301352    43A      0.307394    44A      0.319785  
      45A      0.325671    46A      0.334674    47A      0.340892  
      48A      0.341491    49A      0.346871    50A      0.360748  
      51A      0.370367    52A      0.375783    53A      0.378630  
      54A      0.386605    55A      0.387594    56A      0.401723  
      57A      0.411498    58A      0.416061    59A      0.418200  
      60A      0.429405    61A      0.435423    62A      0.437658  
      63A      0.452794    64A      0.454934    65A      0.462159  
      66A      0.472939    67A      0.477464    68A      0.482991  
      69A      0.497058    70A      0.507199    71A      0.513284  
      72A      0.535202    73A      0.547644    74A      0.575708  
      75A      0.577297    76A      0.590954    77A      0.600365  
      78A      0.616007    79A      0.631266    80A      0.662638  
      81A      0.677997    82A      0.696598    83A      0.706430  
      84A      0.713472    85A      0.720402    86A      0.732409  
      87A      0.734817    88A      0.741951    89A      0.748023  
      90A      0.763297    91A      0.779540    92A      0.788918  
      93A      0.790936    94A      0.795381    95A      0.805426  
      96A      0.813508    97A      0.818189    98A      0.820916  
      99A      0.835083   100A      0.837917   101A      0.848712  
     102A      0.854412   103A      0.860086   104A      0.867909  
     105A      0.876739   106A      0.878627   107A      0.890394  
     108A      0.899681   109A      0.901346   110A      0.911825  
     111A      0.917481   112A      0.926146   113A      0.930348  
     114A      0.934285   115A      0.939718   116A      0.942368  
     117A      0.955709   118A      0.957265   119A      0.969453  
     120A      0.978260   121A      0.991319   122A      0.998711  
     123A      1.004500   124A      1.006497   125A      1.018353  
     126A      1.023709   127A      1.030623   128A      1.039396  
     129A      1.045533   130A      1.054827   131A      1.062710  
     132A      1.066009   133A      1.081304   134A      1.087240  
     135A      1.092421   136A      1.101235   137A      1.115148  
     138A      1.124401   139A      1.129892   140A      1.137412  
     141A      1.140715   142A      1.158791   143A      1.169500  
     144A      1.174094   145A      1.188612   146A      1.202839  
     147A      1.206203   148A      1.225036   149A      1.236987  
     150A      1.244009   151A      1.254925   152A      1.277875  
     153A      1.284355   154A      1.294059   155A      1.305899  
     156A      1.318451   157A      1.331256   158A      1.335320  
     159A      1.345892   160A      1.353722   161A      1.378504  
     162A      1.382608   163A      1.387896   164A      1.400327  
     165A      1.424380   166A      1.434750   167A      1.444109  
     168A      1.453651   169A      1.461694   170A      1.477972  
     171A      1.487497   172A      1.511784   173A      1.529886  
     174A      1.544405   175A      1.555654   176A      1.558976  
     177A      1.570467   178A      1.585307   179A      1.607041  
     180A      1.615684   181A      1.630006   182A      1.645966  
     183A      1.676383   184A      1.686491   185A      1.710662  
     186A      1.723300   187A      1.729521   188A      1.734639  
     189A      1.755290   190A      1.772067   191A      1.780634  
     192A      1.791306   193A      1.811946   194A      1.819529  
     195A      1.826333   196A      1.832543   197A      1.841846  
     198A      1.849266   199A      1.863740   200A      1.881580  
     201A      1.893496   202A      1.903142   203A      1.916064  
     204A      1.926224   205A      1.934041   206A      1.957898  
     207A      1.971490   208A      1.992202   209A      2.020770  
     210A      2.027043   211A      2.036034   212A      2.047114  
     213A      2.069551   214A      2.074235   215A      2.087513  
     216A      2.136090   217A      2.152049   218A      2.204580  
     219A      2.216725   220A      2.288070   221A      2.308703  
     222A      2.339430   223A      2.354375   224A      2.450243  
     225A      2.457112   226A      2.461946   227A      2.487436  
     228A      2.500106   229A      2.507651   230A      2.513922  
     231A      2.518813   232A      2.540422   233A      2.553423  
     234A      2.567907   235A      2.571156   236A      2.593908  
     237A      2.595364   238A      2.607554   239A      2.630726  
     240A      2.637556   241A      2.649517   242A      2.663105  
     243A      2.670670   244A      2.684250   245A      2.694495  
     246A      2.705075   247A      2.714081   248A      2.729461  
     249A      2.750309   250A      2.762459   251A      2.781116  
     252A      2.784267   253A      2.813338   254A      2.815789  
     255A      2.837871   256A      2.841782   257A      2.856003  
     258A      2.867361   259A      2.887029   260A      2.907485  
     261A      2.931433   262A      2.951365   263A      2.955176  
     264A      2.987282   265A      3.007565   266A      3.033221  
     267A      3.055735   268A      3.075014   269A      3.084424  
     270A      3.127200   271A      3.154313   272A      3.199888  
     273A      3.211918   274A      3.215320   275A      3.225989  
     276A      3.233797   277A      3.245846   278A      3.255026  
     279A      3.270867   280A      3.285262   281A      3.311172  
     282A      3.343663   283A      3.354519   284A      3.393888  
     285A      3.404662   286A      3.417529   287A      3.440371  
     288A      3.457870   289A      3.490877   290A      3.497094  
     291A      3.542962   292A      3.555125   293A      3.596659  
     294A      3.615139   295A      3.646667   296A      3.679332  
     297A      3.689056   298A      3.715662   299A      3.732447  
     300A      3.749375   301A      3.753608   302A      3.783626  
     303A      3.790136   304A      3.812904   305A      3.883718  
     306A      3.922245   307A      3.973667   308A      4.013478  
     309A      4.054326   310A      4.074555   311A      4.102466  
     312A      4.152037   313A      4.181592   314A      4.193941  
     315A      4.269226   316A      4.278666   317A      4.313192  
     318A      4.365932   319A      4.380175   320A      4.397753  
     321A      4.413472   322A      4.414493   323A      4.440288  
     324A      4.446157   325A      4.471076   326A      4.485751  
     327A      4.502687   328A      4.517515   329A      4.524974  
     330A      4.535428   331A      4.540323   332A      4.564269  
     333A      4.577543   334A      4.587059   335A      4.597226  
     336A      4.632332   337A      4.640482   338A      4.670843  
     339A      4.689906   340A      4.697668   341A      4.719723  
     342A      4.745141   343A      4.761512   344A      4.775513  
     345A      4.801088   346A      4.818587   347A      4.849287  
     348A      4.888571   349A      4.896247   350A      4.926121  
     351A      4.935043   352A      4.954838   353A      4.979632  
     354A      5.002344   355A      5.016271   356A      5.039628  
     357A      5.070211   358A      5.089613   359A      5.116880  
     360A      5.144353   361A      5.158254   362A      5.197703  
     363A      5.224483   364A      5.271997   365A      5.280934  
     366A      5.293331   367A      5.314590   368A      5.373642  
     369A      5.391475   370A      5.432465   371A      5.447997  
     372A      5.467085   373A      5.516426   374A      5.543999  
     375A      5.557697   376A      5.590031   377A      5.603892  
     378A      5.606278   379A      5.629449   380A      5.635111  
     381A      5.638979   382A      5.653893   383A      5.680019  
     384A      5.732123   385A      5.767890   386A      5.798888  
     387A      5.881989   388A      5.951713   389A      6.014248  
     390A      6.046266   391A      6.183789   392A      6.213890  
     393A      6.283377   394A      6.295350   395A      6.326416  
     396A      6.383073   397A      6.534269   398A      6.536761  
     399A      6.565858   400A      6.598019   401A      6.678463  
     402A      6.697809   403A      6.738448   404A      6.782623  
     405A      6.841107   406A      7.024179   407A      7.061134  
     408A      7.092494   409A      7.131422   410A      7.157798  
     411A      7.165212   412A      7.307663   413A      7.323941  
     414A      7.396961   415A      7.465615   416A      7.622756  
     417A      7.714838   418A      7.741363   419A      7.792785  
     420A      7.797682   421A      7.820074   422A      7.827264  
     423A      7.876411   424A      7.915819   425A      7.926979  
     426A      8.003749   427A      8.040386   428A      8.089824  
     429A      8.097233   430A      8.127482   431A      8.178592  
     432A      8.210736   433A      8.229968   434A      8.240933  
     435A      8.269230   436A      8.304718   437A      8.338423  
     438A      8.351225   439A      8.365256   440A      8.734806  
     441A      8.788047   442A      8.797163   443A      8.819221  
     444A      8.855046   445A      8.903469   446A      8.982044  
     447A      9.081898   448A      9.124157   449A      9.709647  
     450A      9.741656   451A      9.807819   452A      9.873932  
     453A      9.884964   454A      9.900011   455A      9.930951  
     456A      9.963267   457A     10.052285   458A     10.122838  
     459A     10.139142   460A     10.169878   461A     10.301103  
     462A     10.309554   463A     10.351742   464A     10.395013  
     465A     10.437915   466A     10.472668   467A     10.577001  
     468A     10.634280   469A     10.703884   470A     10.770146  
     471A     10.888588   472A     11.050748   473A     11.204300  
     474A     11.233946   475A     11.290804   476A     11.652014  
     477A     11.822096   478A     11.866221   479A     11.937736  
     480A     11.970494   481A     12.062895   482A     12.201039  
     483A     12.383843   484A     12.683014   485A     13.224232  
     486A     13.248869   487A     13.288014   488A     13.318637  
     489A     13.474003   490A     13.515786   491A     13.633053  
     492A     13.745931   493A     13.768505   494A     13.926166  
     495A     13.999400   496A     14.085168   497A     14.121036  
     498A     15.047976   499A     15.398818   500A     15.563273  
     501A     16.862992   502A     64.791554   503A     66.044030  
     504A     67.389188   505A     67.597015   506A     76.175025  

    Final Occupation by Irrep:
              A 
    DOCC [     5 ]
    NA   [     5 ]
    NB   [     5 ]

  @DF-RHF Final Energy:   -76.05831915110052

   => Energetics <=

    Nuclear Repulsion Energy =              9.0399301780123462
    One-Electron Energy =                -122.7577364671903126
    Two-Electron Energy =                  37.6594871380774592
    Total Energy =                        -76.0583191511005055

Computation Completed


Properties will be evaluated at   0.000000,   0.000000,   0.000000 [a0]

Properties computed using the SCF density matrix


 Multipole Moments:

 ------------------------------------------------------------------------------------
     Multipole            Electronic (a.u.)      Nuclear  (a.u.)        Total (a.u.)
 ------------------------------------------------------------------------------------

 L = 1.  Multiply by 2.5417464519 to convert [e a0] to [Debye]
 Dipole X            :        -28.6650861           28.3054215           -0.3596646
 Dipole Y            :         31.0658799          -31.0342314            0.0316486
 Dipole Z            :         23.4119394          -22.6854497            0.7264897
 Magnitude           :                                                    0.8112629

 ------------------------------------------------------------------------------------

*** tstop() called on ddmfs1 at Mon Jan 22 18:31:36 2024
Module time:
	user time   =      87.66 seconds =       1.46 minutes
	system time =       4.03 seconds =       0.07 minutes
	total time  =          5 seconds =       0.08 minutes
Total time:
	user time   =      87.66 seconds =       1.46 minutes
	system time =       4.03 seconds =       0.07 minutes
	total time  =          5 seconds =       0.08 minutes

*** tstart() called on ddmfs1
*** at Mon Jan 22 18:31:36 2024


  //>>>>>>>>>>>>>>>>>>>>>>>>>>>>>>>>>>>//
  //               DFMP2               //
  //<<<<<<<<<<<<<<<<<<<<<<<<<<<<<<<<<<<//

   => Loading Basis Set <=

    Name: (AUG-CC-PVTZ AUX)
    Role: RIFIT
    Keyword: DF_BASIS_MP2
    atoms 1                            entry F          line   322 file /ddmfs1b/softs/psi4conda/share/psi4/basis/aug-cc-pvtz-ri.gbs 
    atoms 2, 5, 8, 11, 14              entry O          line   264 file /ddmfs1b/softs/psi4conda/share/psi4/basis/aug-cc-pvtz-ri.gbs 
    atoms 3-4, 6-7, 9-10, 12-13, 15-16 entry H          line    30 file /ddmfs1b/softs/psi4conda/share/psi4/basis/aug-cc-pvtz-ri.gbs 

	 --------------------------------------------------------
	                          DF-MP2                         
	      2nd-Order Density-Fitted Moller-Plesset Theory     
	              RMP2 Wavefunction,  20 Threads             
	                                                         
	        Rob Parrish, Justin Turney, Andy Simmonett,      
	           Ed Hohenstein, and C. David Sherrill          
	 --------------------------------------------------------

   => Auxiliary Basis Set <=

  Basis Set: (AUG-CC-PVTZ AUX)
    Blend: AUG-CC-PVTZ-RI
    Number of shells: 308
    Number of basis functions: 1096
    Number of Cartesian functions: 1366
    Spherical Harmonics?: true
    Max angular momentum: 4

	 --------------------------------------------------------
	                 NBF =   506, NAUX =  1096
	 --------------------------------------------------------
	   CLASS    FOCC     OCC    AOCC    AVIR     VIR    FVIR
	   PAIRS       0       5       5     501     501       0
	 --------------------------------------------------------

	-----------------------------------------------------------
	 ==================> DF-MP2 Energies <==================== 
	-----------------------------------------------------------
	 Reference Energy          =     -76.0583191511005197 [Eh]
	 Singles Energy            =      -0.0000000000000000 [Eh]
	 Same-Spin Energy          =      -0.0688302313469974 [Eh]
	 Opposite-Spin Energy      =      -0.2174550266034063 [Eh]
	 Correlation Energy        =      -0.2862852579504037 [Eh]
	 Total Energy              =     -76.3446044090509304 [Eh]
	-----------------------------------------------------------
	 ================> DF-SCS-MP2 Energies <================== 
	-----------------------------------------------------------
	 SCS Same-Spin Scale       =       0.3333333333333333 [-]
	 SCS Opposite-Spin Scale   =       1.2000000000000000 [-]
	 SCS Same-Spin Energy      =      -0.0229434104489991 [Eh]
	 SCS Opposite-Spin Energy  =      -0.2609460319240875 [Eh]
	 SCS Correlation Energy    =      -0.2838894423730867 [Eh]
	 SCS Total Energy          =     -76.3422085934736003 [Eh]
	-----------------------------------------------------------


*** tstop() called on ddmfs1 at Mon Jan 22 18:31:40 2024
Module time:
	user time   =      24.18 seconds =       0.40 minutes
	system time =       1.35 seconds =       0.02 minutes
	total time  =          4 seconds =       0.07 minutes
Total time:
	user time   =     111.86 seconds =       1.86 minutes
	system time =       5.38 seconds =       0.09 minutes
	total time  =          9 seconds =       0.15 minutes

    Psi4 stopped on: Monday, 22 January 2024 06:31PM
    Psi4 wall time for execution: 0:00:09.14

*** Psi4 exiting successfully. Buy a developer a beer!
