
    -----------------------------------------------------------------------
          Psi4: An Open-Source Ab Initio Electronic Structure Package
                               Psi4 1.8.2 release

                         Git: Rev {} zzzzzzz 


    D. G. A. Smith, L. A. Burns, A. C. Simmonett, R. M. Parrish,
    M. C. Schieber, R. Galvelis, P. Kraus, H. Kruse, R. Di Remigio,
    A. Alenaizan, A. M. James, S. Lehtola, J. P. Misiewicz, M. Scheurer,
    R. A. Shaw, J. B. Schriber, Y. Xie, Z. L. Glick, D. A. Sirianni,
    J. S. O'Brien, J. M. Waldrop, A. Kumar, E. G. Hohenstein,
    B. P. Pritchard, B. R. Brooks, H. F. Schaefer III, A. Yu. Sokolov,
    K. Patkowski, A. E. DePrince III, U. Bozkaya, R. A. King,
    F. A. Evangelista, J. M. Turney, T. D. Crawford, C. D. Sherrill,
    J. Chem. Phys. 152(18) 184108 (2020). https://doi.org/10.1063/5.0006002

                            Additional Code Authors
    E. T. Seidl, C. L. Janssen, E. F. Valeev, M. L. Leininger,
    J. F. Gonthier, R. M. Richard, H. R. McAlexander, M. Saitow, X. Wang,
    P. Verma, M. H. Lechner, A. Jiang, S. Behnle, A. G. Heide,
    M. F. Herbst, and D. L. Poole

             Previous Authors, Complete List of Code Contributors,
                       and Citations for Specific Modules
    https://github.com/psi4/psi4/blob/master/codemeta.json
    https://github.com/psi4/psi4/graphs/contributors
    http://psicode.org/psi4manual/master/introduction.html#citing-psifour

    -----------------------------------------------------------------------


    Psi4 started on: Monday, 22 January 2024 05:56PM

    Process ID: 87316
    Host:       ddmfs1
    PSIDATADIR: /ddmfs1b/softs/psi4conda/share/psi4
    Memory:     500.0 MiB
    Threads:    20
    
  ==> Input File <==

--------------------------------------------------------------------------
MEMORY 60 GB

molecule dimer {
0 1
Gh(F)      0.000000     0.000000     0.000000
Gh(O)     -1.152877     0.775210     2.799095
Gh(H)     -0.979389     1.239914     2.012069
Gh(H)     -1.986909     0.379505     2.526794
Gh(O)      0.232176     1.587663    -2.218403
Gh(H)      0.383176     1.242774    -3.150384
Gh(H)     -0.060341     0.843167    -1.615248
Gh(O)     -0.940436    -2.154740    -1.299584
Gh(H)     -0.646049    -1.333314    -0.867497
Gh(H)     -0.799171    -2.106453    -2.243974
Gh(O)      2.111858     1.605694     0.351401
Gh(H)      1.676845     2.494260     0.345983
Gh(H)      1.413769     0.958707     0.234089
O          2.320272    -1.659046    -0.126921
H          1.601597    -1.085618    -0.253150
H          2.844791    -1.412144     0.605145
Gh(O)     -1.080869     2.845321     0.665618
Gh(H)     -0.525904     3.388483     0.014643
Gh(H)     -1.193445     1.947137     0.396901

units ang
no_reorient
no_com
symmetry c1
}

set {
basis        aug-cc-pVTZ
scf_type     df
}

energy("mp2")
--------------------------------------------------------------------------

  Memory set to  55.879 GiB by Python driver.

Scratch directory: /ddmfs1a/scratch/
   => Libint2 <=

    Primary   basis highest AM E, G, H:  5, 4, 3
    Auxiliary basis highest AM E, G, H:  6, 5, 4
    Onebody   basis highest AM E, G, H:  6, 5, 4
    Solid Harmonics ordering:            gaussian

*** tstart() called on ddmfs1
*** at Mon Jan 22 17:56:37 2024

   => Loading Basis Set <=

    Name: AUG-CC-PVTZ
    Role: ORBITAL
    Keyword: BASIS
    atoms 1                                   entry F          line   377 file /ddmfs1b/softs/psi4conda/share/psi4/basis/aug-cc-pvtz.gbs 
    atoms 2, 5, 8, 11, 14, 17                 entry O          line   331 file /ddmfs1b/softs/psi4conda/share/psi4/basis/aug-cc-pvtz.gbs 
    atoms 3-4, 6-7, 9-10, 12-13, 15-16, 18-19 entry H          line    40 file /ddmfs1b/softs/psi4conda/share/psi4/basis/aug-cc-pvtz.gbs 


         ---------------------------------------------------------
                                   SCF
               by Justin Turney, Rob Parrish, Andy Simmonett
                          and Daniel G. A. Smith
                              RHF Reference
                       20 Threads,  57220 MiB Core
         ---------------------------------------------------------

  ==> Geometry <==

    Molecular point group: c1
    Full point group: C1

    Geometry (in Angstrom), charge = 0, multiplicity = 1:

       Center              X                  Y                   Z               Mass       
    ------------   -----------------  -----------------  -----------------  -----------------
      Gh(F)           0.000000000000     0.000000000000     0.000000000000    18.998403162730
      Gh(O)          -1.152877000000     0.775210000000     2.799095000000    15.994914619570
      Gh(H)          -0.979389000000     1.239914000000     2.012069000000     1.007825032230
      Gh(H)          -1.986909000000     0.379505000000     2.526794000000     1.007825032230
      Gh(O)           0.232176000000     1.587663000000    -2.218403000000    15.994914619570
      Gh(H)           0.383176000000     1.242774000000    -3.150384000000     1.007825032230
      Gh(H)          -0.060341000000     0.843167000000    -1.615248000000     1.007825032230
      Gh(O)          -0.940436000000    -2.154740000000    -1.299584000000    15.994914619570
      Gh(H)          -0.646049000000    -1.333314000000    -0.867497000000     1.007825032230
      Gh(H)          -0.799171000000    -2.106453000000    -2.243974000000     1.007825032230
      Gh(O)           2.111858000000     1.605694000000     0.351401000000    15.994914619570
      Gh(H)           1.676845000000     2.494260000000     0.345983000000     1.007825032230
      Gh(H)           1.413769000000     0.958707000000     0.234089000000     1.007825032230
         O            2.320272000000    -1.659046000000    -0.126921000000    15.994914619570
         H            1.601597000000    -1.085618000000    -0.253150000000     1.007825032230
         H            2.844791000000    -1.412144000000     0.605145000000     1.007825032230
      Gh(O)          -1.080869000000     2.845321000000     0.665618000000    15.994914619570
      Gh(H)          -0.525904000000     3.388483000000     0.014643000000     1.007825032230
      Gh(H)          -1.193445000000     1.947137000000     0.396901000000     1.007825032230

  Running in c1 symmetry.

  Rotational constants: A =      0.03710  B =      0.02690  C =      0.02476 [cm^-1]
  Rotational constants: A =   1112.34167  B =    806.33815  C =    742.32492 [MHz]
  Nuclear repulsion =    9.437574497115298

  Charge       = 0
  Multiplicity = 1
  Electrons    = 10
  Nalpha       = 5
  Nbeta        = 5

  ==> Algorithm <==

  SCF Algorithm Type is DF.
  DIIS enabled.
  MOM disabled.
  Fractional occupation disabled.
  Guess Type is SAD.
  Energy threshold   = 1.00e-08
  Density threshold  = 1.00e-08
  Integral threshold = 1.00e-12

  ==> Primary Basis <==

  Basis Set: AUG-CC-PVTZ
    Blend: AUG-CC-PVTZ
    Number of shells: 206
    Number of basis functions: 598
    Number of Cartesian functions: 685
    Spherical Harmonics?: true
    Max angular momentum: 3

   => Loading Basis Set <=

    Name: (AUG-CC-PVTZ AUX)
    Role: JKFIT
    Keyword: DF_BASIS_SCF
    atoms 1                                   entry F          line   348 file /ddmfs1b/softs/psi4conda/share/psi4/basis/aug-cc-pvtz-jkfit.gbs 
    atoms 2, 5, 8, 11, 14, 17                 entry O          line   286 file /ddmfs1b/softs/psi4conda/share/psi4/basis/aug-cc-pvtz-jkfit.gbs 
    atoms 3-4, 6-7, 9-10, 12-13, 15-16, 18-19 entry H          line    70 file /ddmfs1b/softs/psi4conda/share/psi4/basis/aug-cc-pvtz-jkfit.gbs 

  ==> Integral Setup <==

  DFHelper Memory: AOs need 3.173 GiB; user supplied 41.910 GiB. 
  Using in-core AOs.

  ==> MemDFJK: Density-Fitted J/K Matrices <==

    J tasked:                   Yes
    K tasked:                   Yes
    wK tasked:                   No
    OpenMP threads:              20
    Memory [MiB]:             42915
    Algorithm:                 Core
    Schwarz Cutoff:           1E-12
    Mask sparsity (%):      10.9904
    Fitting Condition:        1E-10

   => Auxiliary Basis Set <=

  Basis Set: (AUG-CC-PVTZ AUX)
    Blend: AUG-CC-PVTZ-JKFIT
    Number of shells: 378
    Number of basis functions: 1280
    Number of Cartesian functions: 1577
    Spherical Harmonics?: true
    Max angular momentum: 4

  Minimum eigenvalue in the overlap matrix is 5.1358394468E-05.
  Reciprocal condition number of the overlap matrix is 3.2686689846E-06.
    Using symmetric orthogonalization.

  ==> Pre-Iterations <==

  SCF Guess: Superposition of Atomic Densities via on-the-fly atomic UHF (no occupation information).

   -------------------------
    Irrep   Nso     Nmo    
   -------------------------
     A        598     598 
   -------------------------
    Total     598     598
   -------------------------

  ==> Iterations <==

                           Total Energy        Delta E     RMS |[F,P]|

   @DF-RHF iter SAD:   -75.50006150210322   -7.55001e+01   0.00000e+00 
   @DF-RHF iter   1:   -75.97756109833688   -4.77500e-01   7.89579e-04 ADIIS/DIIS
   @DF-RHF iter   2:   -76.03078749945452   -5.32264e-02   5.18184e-04 ADIIS/DIIS
   @DF-RHF iter   3:   -76.05988872139353   -2.91012e-02   3.49671e-05 DIIS
   @DF-RHF iter   4:   -76.06024771174820   -3.58990e-04   7.89861e-06 DIIS
   @DF-RHF iter   5:   -76.06026703728847   -1.93255e-05   1.72395e-06 DIIS
   @DF-RHF iter   6:   -76.06026854907472   -1.51179e-06   3.84514e-07 DIIS
   @DF-RHF iter   7:   -76.06026863447751   -8.54028e-08   7.69638e-08 DIIS
   @DF-RHF iter   8:   -76.06026863759764   -3.12014e-09   1.22763e-08 DIIS
   @DF-RHF iter   9:   -76.06026863765817   -6.05240e-11   2.85711e-09 DIIS
  Energy and wave function converged.


  ==> Post-Iterations <==

    Orbital Energies [Eh]
    ---------------------

    Doubly Occupied:                                                      

       1A    -20.558972     2A     -1.361950     3A     -0.747509  
       4A     -0.574786     5A     -0.510423  

    Virtual:                                                              

       6A      0.014964     7A      0.033791     8A      0.035356  
       9A      0.037552    10A      0.055462    11A      0.056965  
      12A      0.059727    13A      0.062454    14A      0.069903  
      15A      0.077981    16A      0.085965    17A      0.088060  
      18A      0.113371    19A      0.121707    20A      0.122200  
      21A      0.133502    22A      0.143302    23A      0.149441  
      24A      0.152149    25A      0.160117    26A      0.161208  
      27A      0.165706    28A      0.169668    29A      0.175042  
      30A      0.182587    31A      0.187919    32A      0.195987  
      33A      0.200111    34A      0.207718    35A      0.209965  
      36A      0.214272    37A      0.222998    38A      0.226392  
      39A      0.227648    40A      0.242111    41A      0.252675  
      42A      0.258650    43A      0.262780    44A      0.269271  
      45A      0.275470    46A      0.286958    47A      0.302602  
      48A      0.306555    49A      0.315473    50A      0.317842  
      51A      0.325294    52A      0.334035    53A      0.344368  
      54A      0.346153    55A      0.350349    56A      0.353179  
      57A      0.360573    58A      0.366771    59A      0.370447  
      60A      0.381421    61A      0.386323    62A      0.388379  
      63A      0.395708    64A      0.398044    65A      0.405262  
      66A      0.416031    67A      0.419491    68A      0.426014  
      69A      0.430418    70A      0.432755    71A      0.446613  
      72A      0.449773    73A      0.456069    74A      0.462904  
      75A      0.463484    76A      0.474641    77A      0.483695  
      78A      0.489593    79A      0.494722    80A      0.507676  
      81A      0.510296    82A      0.519632    83A      0.532244  
      84A      0.537005    85A      0.547308    86A      0.558870  
      87A      0.570225    88A      0.584857    89A      0.598892  
      90A      0.605203    91A      0.612707    92A      0.622428  
      93A      0.642600    94A      0.665973    95A      0.689954  
      96A      0.692825    97A      0.704666    98A      0.720693  
      99A      0.734583   100A      0.737478   101A      0.744920  
     102A      0.751026   103A      0.752813   104A      0.763751  
     105A      0.771019   106A      0.780195   107A      0.786612  
     108A      0.788166   109A      0.795523   110A      0.806010  
     111A      0.814485   112A      0.816769   113A      0.818502  
     114A      0.830002   115A      0.830970   116A      0.844078  
     117A      0.845662   118A      0.853052   119A      0.853686  
     120A      0.857649   121A      0.864905   122A      0.871768  
     123A      0.872728   124A      0.882899   125A      0.889506  
     126A      0.891667   127A      0.904278   128A      0.913296  
     129A      0.915218   130A      0.921175   131A      0.927156  
     132A      0.936743   133A      0.939772   134A      0.946393  
     135A      0.960554   136A      0.965119   137A      0.971630  
     138A      0.975349   139A      0.983358   140A      0.990141  
     141A      0.994786   142A      1.001454   143A      1.007748  
     144A      1.011948   145A      1.022502   146A      1.027466  
     147A      1.031589   148A      1.042992   149A      1.046569  
     150A      1.052246   151A      1.060921   152A      1.066144  
     153A      1.068531   154A      1.077577   155A      1.085939  
     156A      1.086902   157A      1.095739   158A      1.101568  
     159A      1.107228   160A      1.115618   161A      1.116666  
     162A      1.125904   163A      1.134820   164A      1.141940  
     165A      1.150053   166A      1.162270   167A      1.168161  
     168A      1.180847   169A      1.187613   170A      1.198093  
     171A      1.204018   172A      1.215156   173A      1.222043  
     174A      1.228361   175A      1.240096   176A      1.250775  
     177A      1.257273   178A      1.262730   179A      1.280633  
     180A      1.282275   181A      1.289612   182A      1.303699  
     183A      1.316577   184A      1.333485   185A      1.343246  
     186A      1.361422   187A      1.373040   188A      1.378475  
     189A      1.390174   190A      1.391597   191A      1.413090  
     192A      1.413435   193A      1.425611   194A      1.436152  
     195A      1.450293   196A      1.454353   197A      1.461741  
     198A      1.483940   199A      1.496488   200A      1.505166  
     201A      1.511572   202A      1.522856   203A      1.534731  
     204A      1.541448   205A      1.549785   206A      1.560030  
     207A      1.580445   208A      1.589680   209A      1.617043  
     210A      1.625076   211A      1.629900   212A      1.644159  
     213A      1.664991   214A      1.668218   215A      1.685260  
     216A      1.691447   217A      1.701226   218A      1.715854  
     219A      1.733541   220A      1.744757   221A      1.751286  
     222A      1.753684   223A      1.760203   224A      1.779527  
     225A      1.780699   226A      1.791529   227A      1.799862  
     228A      1.802991   229A      1.808974   230A      1.816148  
     231A      1.827450   232A      1.831638   233A      1.839307  
     234A      1.853239   235A      1.871698   236A      1.882838  
     237A      1.884933   238A      1.899802   239A      1.918647  
     240A      1.931626   241A      1.940022   242A      1.945964  
     243A      1.959461   244A      1.982487   245A      1.989578  
     246A      1.994212   247A      2.012583   248A      2.029158  
     249A      2.047885   250A      2.058472   251A      2.076445  
     252A      2.086094   253A      2.097625   254A      2.117046  
     255A      2.127591   256A      2.143604   257A      2.160346  
     258A      2.191713   259A      2.235272   260A      2.248978  
     261A      2.263981   262A      2.286177   263A      2.336861  
     264A      2.398655   265A      2.462843   266A      2.477185  
     267A      2.483919   268A      2.486308   269A      2.491499  
     270A      2.500741   271A      2.512131   272A      2.520307  
     273A      2.531833   274A      2.544479   275A      2.557639  
     276A      2.572699   277A      2.581258   278A      2.585132  
     279A      2.601168   280A      2.609082   281A      2.625772  
     282A      2.634520   283A      2.659775   284A      2.666810  
     285A      2.674960   286A      2.679143   287A      2.693841  
     288A      2.699237   289A      2.716210   290A      2.723466  
     291A      2.725954   292A      2.729675   293A      2.746381  
     294A      2.761981   295A      2.766949   296A      2.786092  
     297A      2.799243   298A      2.807622   299A      2.813608  
     300A      2.821331   301A      2.824844   302A      2.847458  
     303A      2.857262   304A      2.878670   305A      2.898833  
     306A      2.900219   307A      2.918789   308A      2.935799  
     309A      2.941587   310A      2.970066   311A      2.976969  
     312A      2.988386   313A      3.008205   314A      3.031338  
     315A      3.039339   316A      3.083627   317A      3.090604  
     318A      3.102941   319A      3.118043   320A      3.135549  
     321A      3.170101   322A      3.173334   323A      3.205574  
     324A      3.218368   325A      3.232823   326A      3.242868  
     327A      3.251079   328A      3.258079   329A      3.267859  
     330A      3.273180   331A      3.294394   332A      3.315640  
     333A      3.328374   334A      3.351330   335A      3.385033  
     336A      3.417851   337A      3.422455   338A      3.451156  
     339A      3.464768   340A      3.495412   341A      3.496925  
     342A      3.523905   343A      3.527026   344A      3.577670  
     345A      3.582393   346A      3.598789   347A      3.618613  
     348A      3.633368   349A      3.643147   350A      3.655911  
     351A      3.675104   352A      3.688387   353A      3.700874  
     354A      3.713978   355A      3.737257   356A      3.761363  
     357A      3.784859   358A      3.812437   359A      3.831817  
     360A      3.852451   361A      3.864762   362A      3.898047  
     363A      3.944219   364A      3.968376   365A      4.016821  
     366A      4.037023   367A      4.151639   368A      4.156771  
     369A      4.181559   370A      4.203271   371A      4.237196  
     372A      4.256975   373A      4.355156   374A      4.358421  
     375A      4.379798   376A      4.397829   377A      4.413931  
     378A      4.432136   379A      4.441575   380A      4.457022  
     381A      4.474932   382A      4.477588   383A      4.479998  
     384A      4.508759   385A      4.516116   386A      4.517625  
     387A      4.530220   388A      4.536699   389A      4.564358  
     390A      4.579451   391A      4.579832   392A      4.605517  
     393A      4.610399   394A      4.625227   395A      4.643310  
     396A      4.652884   397A      4.672246   398A      4.677883  
     399A      4.691017   400A      4.696915   401A      4.713791  
     402A      4.755020   403A      4.766052   404A      4.776533  
     405A      4.791520   406A      4.795177   407A      4.827898  
     408A      4.833028   409A      4.866369   410A      4.891926  
     411A      4.923510   412A      4.941339   413A      4.961050  
     414A      4.967839   415A      4.980248   416A      4.996163  
     417A      5.019349   418A      5.031471   419A      5.041676  
     420A      5.055000   421A      5.066404   422A      5.095371  
     423A      5.128902   424A      5.132693   425A      5.150714  
     426A      5.166651   427A      5.178528   428A      5.228831  
     429A      5.268195   430A      5.279757   431A      5.312477  
     432A      5.319837   433A      5.335142   434A      5.362484  
     435A      5.371179   436A      5.397647   437A      5.415036  
     438A      5.478743   439A      5.500947   440A      5.517936  
     441A      5.556602   442A      5.560009   443A      5.578425  
     444A      5.594305   445A      5.609325   446A      5.633339  
     447A      5.637947   448A      5.650111   449A      5.659539  
     450A      5.709677   451A      5.740802   452A      5.754508  
     453A      5.784313   454A      5.788366   455A      5.800636  
     456A      5.828879   457A      5.888007   458A      5.922670  
     459A      5.954166   460A      6.021659   461A      6.042090  
     462A      6.232927   463A      6.249303   464A      6.263646  
     465A      6.314727   466A      6.322135   467A      6.363138  
     468A      6.381743   469A      6.418374   470A      6.431535  
     471A      6.552514   472A      6.560661   473A      6.611945  
     474A      6.725977   475A      6.774629   476A      6.794463  
     477A      6.847965   478A      6.862597   479A      6.881006  
     480A      6.940248   481A      6.982949   482A      7.136222  
     483A      7.151474   484A      7.155040   485A      7.251276  
     486A      7.254915   487A      7.380000   488A      7.385727  
     489A      7.412692   490A      7.551821   491A      7.643499  
     492A      7.699210   493A      7.737532   494A      7.755052  
     495A      7.767534   496A      7.800813   497A      7.810935  
     498A      7.819468   499A      7.868858   500A      7.903995  
     501A      7.949383   502A      8.006302   503A      8.057497  
     504A      8.076823   505A      8.085805   506A      8.133804  
     507A      8.152503   508A      8.191243   509A      8.205843  
     510A      8.230904   511A      8.240463   512A      8.265689  
     513A      8.284041   514A      8.305202   515A      8.319550  
     516A      8.362218   517A      8.387610   518A      8.393078  
     519A      8.447193   520A      8.680556   521A      8.744678  
     522A      8.794483   523A      8.813200   524A      8.849210  
     525A      8.877874   526A      8.953609   527A      9.043387  
     528A      9.104276   529A      9.120279   530A      9.141745  
     531A      9.743993   532A      9.789860   533A      9.807764  
     534A      9.840998   535A      9.875865   536A      9.891815  
     537A      9.900225   538A      9.938308   539A      9.971278  
     540A      9.985796   541A     10.080142   542A     10.098759  
     543A     10.131845   544A     10.160062   545A     10.172993  
     546A     10.257764   547A     10.313214   548A     10.345873  
     549A     10.381145   550A     10.409208   551A     10.471165  
     552A     10.518794   553A     10.556778   554A     10.603100  
     555A     10.678442   556A     10.809077   557A     10.887793  
     558A     10.982712   559A     10.999647   560A     11.161290  
     561A     11.260765   562A     11.373168   563A     11.673745  
     564A     11.790631   565A     11.856318   566A     11.879309  
     567A     11.899220   568A     11.925918   569A     11.980682  
     570A     12.256943   571A     12.457358   572A     12.540134  
     573A     12.812604   574A     13.269909   575A     13.274658  
     576A     13.386852   577A     13.406472   578A     13.433208  
     579A     13.536800   580A     13.581313   581A     13.744138  
     582A     13.756776   583A     13.837667   584A     14.036957  
     585A     14.069920   586A     14.106105   587A     14.131342  
     588A     14.164477   589A     15.066439   590A     15.364156  
     591A     15.550576   592A     18.270470   593A     64.452586  
     594A     65.783209   595A     67.274524   596A     68.012848  
     597A     68.401682   598A     76.135490  

    Final Occupation by Irrep:
              A 
    DOCC [     5 ]
    NA   [     5 ]
    NB   [     5 ]

  @DF-RHF Final Energy:   -76.06026863765817

   => Energetics <=

    Nuclear Repulsion Energy =              9.4375744971152979
    One-Electron Energy =                -123.4884041163175681
    Two-Electron Energy =                  37.9905609815441068
    Total Energy =                        -76.0602686376581687

Computation Completed


Properties will be evaluated at   0.000000,   0.000000,   0.000000 [a0]

Properties computed using the SCF density matrix


 Multipole Moments:

 ------------------------------------------------------------------------------------
     Multipole            Electronic (a.u.)      Nuclear  (a.u.)        Total (a.u.)
 ------------------------------------------------------------------------------------

 L = 1.  Multiply by 2.5417464519 to convert [e a0] to [Debye]
 Dipole X            :        -43.6153370           43.4798845           -0.1354525
 Dipole Y            :         30.3705205          -29.8012267            0.5692938
 Dipole Z            :          1.6731033           -1.2535933            0.4195100
 Magnitude           :                                                    0.7200219

 ------------------------------------------------------------------------------------

*** tstop() called on ddmfs1 at Mon Jan 22 17:56:45 2024
Module time:
	user time   =     128.96 seconds =       2.15 minutes
	system time =       5.39 seconds =       0.09 minutes
	total time  =          8 seconds =       0.13 minutes
Total time:
	user time   =     128.96 seconds =       2.15 minutes
	system time =       5.39 seconds =       0.09 minutes
	total time  =          8 seconds =       0.13 minutes

*** tstart() called on ddmfs1
*** at Mon Jan 22 17:56:45 2024


  //>>>>>>>>>>>>>>>>>>>>>>>>>>>>>>>>>>>//
  //               DFMP2               //
  //<<<<<<<<<<<<<<<<<<<<<<<<<<<<<<<<<<<//

   => Loading Basis Set <=

    Name: (AUG-CC-PVTZ AUX)
    Role: RIFIT
    Keyword: DF_BASIS_MP2
    atoms 1                                   entry F          line   322 file /ddmfs1b/softs/psi4conda/share/psi4/basis/aug-cc-pvtz-ri.gbs 
    atoms 2, 5, 8, 11, 14, 17                 entry O          line   264 file /ddmfs1b/softs/psi4conda/share/psi4/basis/aug-cc-pvtz-ri.gbs 
    atoms 3-4, 6-7, 9-10, 12-13, 15-16, 18-19 entry H          line    30 file /ddmfs1b/softs/psi4conda/share/psi4/basis/aug-cc-pvtz-ri.gbs 

	 --------------------------------------------------------
	                          DF-MP2                         
	      2nd-Order Density-Fitted Moller-Plesset Theory     
	              RMP2 Wavefunction,  20 Threads             
	                                                         
	        Rob Parrish, Justin Turney, Andy Simmonett,      
	           Ed Hohenstein, and C. David Sherrill          
	 --------------------------------------------------------

   => Auxiliary Basis Set <=

  Basis Set: (AUG-CC-PVTZ AUX)
    Blend: AUG-CC-PVTZ-RI
    Number of shells: 364
    Number of basis functions: 1294
    Number of Cartesian functions: 1612
    Spherical Harmonics?: true
    Max angular momentum: 4

	 --------------------------------------------------------
	                 NBF =   598, NAUX =  1294
	 --------------------------------------------------------
	   CLASS    FOCC     OCC    AOCC    AVIR     VIR    FVIR
	   PAIRS       0       5       5     593     593       0
	 --------------------------------------------------------

	-----------------------------------------------------------
	 ==================> DF-MP2 Energies <==================== 
	-----------------------------------------------------------
	 Reference Energy          =     -76.0602686376581687 [Eh]
	 Singles Energy            =      -0.0000000000000000 [Eh]
	 Same-Spin Energy          =      -0.0678858675214739 [Eh]
	 Opposite-Spin Energy      =      -0.2145158153592147 [Eh]
	 Correlation Energy        =      -0.2824016828806886 [Eh]
	 Total Energy              =     -76.3426703205388577 [Eh]
	-----------------------------------------------------------
	 ================> DF-SCS-MP2 Energies <================== 
	-----------------------------------------------------------
	 SCS Same-Spin Scale       =       0.3333333333333333 [-]
	 SCS Opposite-Spin Scale   =       1.2000000000000000 [-]
	 SCS Same-Spin Energy      =      -0.0226286225071580 [Eh]
	 SCS Opposite-Spin Energy  =      -0.2574189784310576 [Eh]
	 SCS Correlation Energy    =      -0.2800476009382156 [Eh]
	 SCS Total Energy          =     -76.3403162385963867 [Eh]
	-----------------------------------------------------------


*** tstop() called on ddmfs1 at Mon Jan 22 17:56:50 2024
Module time:
	user time   =      32.96 seconds =       0.55 minutes
	system time =       1.89 seconds =       0.03 minutes
	total time  =          5 seconds =       0.08 minutes
Total time:
	user time   =     161.94 seconds =       2.70 minutes
	system time =       7.28 seconds =       0.12 minutes
	total time  =         13 seconds =       0.22 minutes

    Psi4 stopped on: Monday, 22 January 2024 05:56PM
    Psi4 wall time for execution: 0:00:13.43

*** Psi4 exiting successfully. Buy a developer a beer!
