
    -----------------------------------------------------------------------
          Psi4: An Open-Source Ab Initio Electronic Structure Package
                               Psi4 1.8.2 release

                         Git: Rev {} zzzzzzz 


    D. G. A. Smith, L. A. Burns, A. C. Simmonett, R. M. Parrish,
    M. C. Schieber, R. Galvelis, P. Kraus, H. Kruse, R. Di Remigio,
    A. Alenaizan, A. M. James, S. Lehtola, J. P. Misiewicz, M. Scheurer,
    R. A. Shaw, J. B. Schriber, Y. Xie, Z. L. Glick, D. A. Sirianni,
    J. S. O'Brien, J. M. Waldrop, A. Kumar, E. G. Hohenstein,
    B. P. Pritchard, B. R. Brooks, H. F. Schaefer III, A. Yu. Sokolov,
    K. Patkowski, A. E. DePrince III, U. Bozkaya, R. A. King,
    F. A. Evangelista, J. M. Turney, T. D. Crawford, C. D. Sherrill,
    J. Chem. Phys. 152(18) 184108 (2020). https://doi.org/10.1063/5.0006002

                            Additional Code Authors
    E. T. Seidl, C. L. Janssen, E. F. Valeev, M. L. Leininger,
    J. F. Gonthier, R. M. Richard, H. R. McAlexander, M. Saitow, X. Wang,
    P. Verma, M. H. Lechner, A. Jiang, S. Behnle, A. G. Heide,
    M. F. Herbst, and D. L. Poole

             Previous Authors, Complete List of Code Contributors,
                       and Citations for Specific Modules
    https://github.com/psi4/psi4/blob/master/codemeta.json
    https://github.com/psi4/psi4/graphs/contributors
    http://psicode.org/psi4manual/master/introduction.html#citing-psifour

    -----------------------------------------------------------------------


    Psi4 started on: Monday, 22 January 2024 06:52PM

    Process ID: 93496
    Host:       ddmfs1
    PSIDATADIR: /ddmfs1b/softs/psi4conda/share/psi4
    Memory:     500.0 MiB
    Threads:    20
    
  ==> Input File <==

--------------------------------------------------------------------------
MEMORY 60 GB

molecule dimer {
-1 1
F          0.000000     0.000000     0.000000
O         -2.413496     0.942059     1.683179
H         -2.369850     1.675598     2.308522
H         -1.516197     0.609131     1.412280
O          1.644372    -2.458712     0.050667
H          1.033770    -1.732996     0.175981
H          1.480271    -2.944848     0.845458
O          0.820687     0.822159     2.619673
H          0.614436     0.700992     1.654114
H          0.656262     1.757957     2.775129
O         -2.196713    -1.512783    -0.142220
H         -2.784492    -0.795457    -0.455902
H         -1.397291    -0.991488    -0.086194
O         -0.307997     2.194705    -1.635644
H         -0.307018     1.433362    -1.078243
H         -1.239503     2.400415    -1.651584

units ang
no_reorient
no_com
symmetry c1
}

set {
basis        aug-cc-pVTZ
scf_type     df
}

energy("mp2")
--------------------------------------------------------------------------

  Memory set to  55.879 GiB by Python driver.

Scratch directory: /ddmfs1a/scratch/
   => Libint2 <=

    Primary   basis highest AM E, G, H:  5, 4, 3
    Auxiliary basis highest AM E, G, H:  6, 5, 4
    Onebody   basis highest AM E, G, H:  6, 5, 4
    Solid Harmonics ordering:            gaussian

*** tstart() called on ddmfs1
*** at Mon Jan 22 18:52:13 2024

   => Loading Basis Set <=

    Name: AUG-CC-PVTZ
    Role: ORBITAL
    Keyword: BASIS
    atoms 1                            entry F          line   377 file /ddmfs1b/softs/psi4conda/share/psi4/basis/aug-cc-pvtz.gbs 
    atoms 2, 5, 8, 11, 14              entry O          line   331 file /ddmfs1b/softs/psi4conda/share/psi4/basis/aug-cc-pvtz.gbs 
    atoms 3-4, 6-7, 9-10, 12-13, 15-16 entry H          line    40 file /ddmfs1b/softs/psi4conda/share/psi4/basis/aug-cc-pvtz.gbs 


         ---------------------------------------------------------
                                   SCF
               by Justin Turney, Rob Parrish, Andy Simmonett
                          and Daniel G. A. Smith
                              RHF Reference
                       20 Threads,  57220 MiB Core
         ---------------------------------------------------------

  ==> Geometry <==

    Molecular point group: c1
    Full point group: C1

    Geometry (in Angstrom), charge = -1, multiplicity = 1:

       Center              X                  Y                   Z               Mass       
    ------------   -----------------  -----------------  -----------------  -----------------
         F            0.000000000000     0.000000000000     0.000000000000    18.998403162730
         O           -2.413496000000     0.942059000000     1.683179000000    15.994914619570
         H           -2.369850000000     1.675598000000     2.308522000000     1.007825032230
         H           -1.516197000000     0.609131000000     1.412280000000     1.007825032230
         O            1.644372000000    -2.458712000000     0.050667000000    15.994914619570
         H            1.033770000000    -1.732996000000     0.175981000000     1.007825032230
         H            1.480271000000    -2.944848000000     0.845458000000     1.007825032230
         O            0.820687000000     0.822159000000     2.619673000000    15.994914619570
         H            0.614436000000     0.700992000000     1.654114000000     1.007825032230
         H            0.656262000000     1.757957000000     2.775129000000     1.007825032230
         O           -2.196713000000    -1.512783000000    -0.142220000000    15.994914619570
         H           -2.784492000000    -0.795457000000    -0.455902000000     1.007825032230
         H           -1.397291000000    -0.991488000000    -0.086194000000     1.007825032230
         O           -0.307997000000     2.194705000000    -1.635644000000    15.994914619570
         H           -0.307018000000     1.433362000000    -1.078243000000     1.007825032230
         H           -1.239503000000     2.400415000000    -1.651584000000     1.007825032230

  Running in c1 symmetry.

  Rotational constants: A =      0.04040  B =      0.03286  C =      0.03136 [cm^-1]
  Rotational constants: A =   1211.26478  B =    985.15621  C =    940.25353 [MHz]
  Nuclear repulsion =  261.172026103044686

  Charge       = -1
  Multiplicity = 1
  Electrons    = 60
  Nalpha       = 30
  Nbeta        = 30

  ==> Algorithm <==

  SCF Algorithm Type is DF.
  DIIS enabled.
  MOM disabled.
  Fractional occupation disabled.
  Guess Type is SAD.
  Energy threshold   = 1.00e-08
  Density threshold  = 1.00e-08
  Integral threshold = 1.00e-12

  ==> Primary Basis <==

  Basis Set: AUG-CC-PVTZ
    Blend: AUG-CC-PVTZ
    Number of shells: 174
    Number of basis functions: 506
    Number of Cartesian functions: 580
    Spherical Harmonics?: true
    Max angular momentum: 3

   => Loading Basis Set <=

    Name: (AUG-CC-PVTZ AUX)
    Role: JKFIT
    Keyword: DF_BASIS_SCF
    atoms 1                            entry F          line   348 file /ddmfs1b/softs/psi4conda/share/psi4/basis/aug-cc-pvtz-jkfit.gbs 
    atoms 2, 5, 8, 11, 14              entry O          line   286 file /ddmfs1b/softs/psi4conda/share/psi4/basis/aug-cc-pvtz-jkfit.gbs 
    atoms 3-4, 6-7, 9-10, 12-13, 15-16 entry H          line    70 file /ddmfs1b/softs/psi4conda/share/psi4/basis/aug-cc-pvtz-jkfit.gbs 

  ==> Integral Setup <==

  DFHelper Memory: AOs need 1.956 GiB; user supplied 41.910 GiB. 
  Using in-core AOs.

  ==> MemDFJK: Density-Fitted J/K Matrices <==

    J tasked:                   Yes
    K tasked:                   Yes
    wK tasked:                   No
    OpenMP threads:              20
    Memory [MiB]:             42915
    Algorithm:                 Core
    Schwarz Cutoff:           1E-12
    Mask sparsity (%):      10.1579
    Fitting Condition:        1E-10

   => Auxiliary Basis Set <=

  Basis Set: (AUG-CC-PVTZ AUX)
    Blend: AUG-CC-PVTZ-JKFIT
    Number of shells: 320
    Number of basis functions: 1084
    Number of Cartesian functions: 1336
    Spherical Harmonics?: true
    Max angular momentum: 4

  Minimum eigenvalue in the overlap matrix is 7.1992652772E-05.
  Reciprocal condition number of the overlap matrix is 5.1802081557E-06.
    Using symmetric orthogonalization.

  ==> Pre-Iterations <==

  SCF Guess: Superposition of Atomic Densities via on-the-fly atomic UHF (no occupation information).

   -------------------------
    Irrep   Nso     Nmo    
   -------------------------
     A        506     506 
   -------------------------
    Total     506     506
   -------------------------

  ==> Iterations <==

                           Total Energy        Delta E     RMS |[F,P]|

   @DF-RHF iter SAD:  -476.60876400942016   -4.76609e+02   0.00000e+00 
   @DF-RHF iter   1:  -479.40493051374449   -2.79617e+00   2.17216e-03 DIIS/ADIIS
   @DF-RHF iter   2:  -479.68962076160841   -2.84690e-01   1.46913e-03 DIIS/ADIIS
   @DF-RHF iter   3:  -479.85383596796629   -1.64215e-01   9.43425e-05 DIIS
   @DF-RHF iter   4:  -479.85577426128651   -1.93829e-03   2.10091e-05 DIIS
   @DF-RHF iter   5:  -479.85587721458114   -1.02953e-04   6.13857e-06 DIIS
   @DF-RHF iter   6:  -479.85588645174698   -9.23717e-06   2.73009e-06 DIIS
   @DF-RHF iter   7:  -479.85588768453590   -1.23279e-06   6.88129e-07 DIIS
   @DF-RHF iter   8:  -479.85588783943820   -1.54902e-07   1.22916e-07 DIIS
   @DF-RHF iter   9:  -479.85588784459878   -5.16059e-09   3.07981e-08 DIIS
   @DF-RHF iter  10:  -479.85588784479012   -1.91335e-10   1.46542e-08 DIIS
   @DF-RHF iter  11:  -479.85588784482172   -3.16049e-11   4.20158e-09 DIIS
  Energy and wave function converged.


  ==> Post-Iterations <==

    Orbital Energies [Eh]
    ---------------------

    Doubly Occupied:                                                      

       1A    -25.990558     2A    -20.425882     3A    -20.420264  
       4A    -20.404316     5A    -20.402562     6A    -20.385692  
       7A     -1.256560     8A     -1.199743     9A     -1.199093  
      10A     -1.197822    11A     -1.195868    12A     -1.172747  
      13A     -0.584258    14A     -0.560811    15A     -0.557381  
      16A     -0.550234    17A     -0.524636    18A     -0.445308  
      19A     -0.442702    20A     -0.437520    21A     -0.429786  
      22A     -0.427258    23A     -0.369916    24A     -0.362389  
      25A     -0.355834    26A     -0.352449    27A     -0.347300  
      28A     -0.345912    29A     -0.339726    30A     -0.329639  

    Virtual:                                                              

      31A      0.111714    32A      0.127734    33A      0.133570  
      34A      0.135332    35A      0.146756    36A      0.176521  
      37A      0.187328    38A      0.192056    39A      0.194782  
      40A      0.197217    41A      0.237512    42A      0.248294  
      43A      0.260738    44A      0.271538    45A      0.276543  
      46A      0.280917    47A      0.287686    48A      0.291998  
      49A      0.296285    50A      0.301421    51A      0.318570  
      52A      0.320612    53A      0.333943    54A      0.339556  
      55A      0.341047    56A      0.346873    57A      0.353703  
      58A      0.363260    59A      0.368983    60A      0.377314  
      61A      0.388780    62A      0.391381    63A      0.401680  
      64A      0.405942    65A      0.415776    66A      0.421963  
      67A      0.427055    68A      0.439871    69A      0.444012  
      70A      0.457493    71A      0.467639    72A      0.468286  
      73A      0.474431    74A      0.497605    75A      0.500090  
      76A      0.508228    77A      0.516395    78A      0.531562  
      79A      0.542044    80A      0.546817    81A      0.553183  
      82A      0.558812    83A      0.560343    84A      0.570045  
      85A      0.584296    86A      0.588520    87A      0.596789  
      88A      0.604961    89A      0.618752    90A      0.627786  
      91A      0.638123    92A      0.642172    93A      0.655194  
      94A      0.669858    95A      0.685926    96A      0.694740  
      97A      0.706070    98A      0.718253    99A      0.726931  
     100A      0.739843   101A      0.746923   102A      0.763205  
     103A      0.784622   104A      0.806476   105A      0.813824  
     106A      0.818298   107A      0.833851   108A      0.851178  
     109A      0.857990   110A      0.861673   111A      0.869368  
     112A      0.873335   113A      0.885251   114A      0.887692  
     115A      0.895551   116A      0.900245   117A      0.904533  
     118A      0.922720   119A      0.926823   120A      0.931954  
     121A      0.945944   122A      0.951875   123A      0.953530  
     124A      0.970056   125A      0.981069   126A      0.988995  
     127A      0.991558   128A      0.996416   129A      1.003663  
     130A      1.017066   131A      1.022657   132A      1.030971  
     133A      1.037285   134A      1.042267   135A      1.060286  
     136A      1.065185   137A      1.072010   138A      1.072586  
     139A      1.085262   140A      1.088499   141A      1.097274  
     142A      1.101502   143A      1.116030   144A      1.117532  
     145A      1.126376   146A      1.129525   147A      1.136095  
     148A      1.146567   149A      1.148629   150A      1.157078  
     151A      1.162352   152A      1.164720   153A      1.177365  
     154A      1.182381   155A      1.193619   156A      1.197069  
     157A      1.206442   158A      1.217287   159A      1.229325  
     160A      1.236225   161A      1.248055   162A      1.263011  
     163A      1.268191   164A      1.273894   165A      1.280907  
     166A      1.285682   167A      1.296787   168A      1.313933  
     169A      1.327584   170A      1.333521   171A      1.342505  
     172A      1.350798   173A      1.352156   174A      1.366247  
     175A      1.374209   176A      1.381901   177A      1.395475  
     178A      1.403057   179A      1.422170   180A      1.425625  
     181A      1.450735   182A      1.459061   183A      1.461133  
     184A      1.478555   185A      1.488863   186A      1.501021  
     187A      1.519737   188A      1.530380   189A      1.537645  
     190A      1.553526   191A      1.566835   192A      1.583180  
     193A      1.592622   194A      1.601577   195A      1.619248  
     196A      1.639675   197A      1.655291   198A      1.660054  
     199A      1.680808   200A      1.685658   201A      1.699029  
     202A      1.701522   203A      1.718643   204A      1.722403  
     205A      1.728665   206A      1.744368   207A      1.758535  
     208A      1.774486   209A      1.783190   210A      1.786128  
     211A      1.804338   212A      1.829188   213A      1.833875  
     214A      1.846107   215A      1.862005   216A      1.868650  
     217A      1.885234   218A      1.892202   219A      1.915743  
     220A      1.921822   221A      1.935566   222A      1.965244  
     223A      1.986664   224A      2.009874   225A      2.022638  
     226A      2.057182   227A      2.069619   228A      2.096048  
     229A      2.121044   230A      2.136436   231A      2.157238  
     232A      2.180706   233A      2.184604   234A      2.189259  
     235A      2.201849   236A      2.230436   237A      2.240133  
     238A      2.261056   239A      2.301140   240A      2.402306  
     241A      2.418045   242A      2.432576   243A      2.445058  
     244A      2.471119   245A      2.472192   246A      2.482772  
     247A      2.517065   248A      2.536830   249A      2.547531  
     250A      2.555049   251A      2.568498   252A      2.579740  
     253A      2.586912   254A      2.596930   255A      2.610028  
     256A      2.623205   257A      2.630755   258A      2.636518  
     259A      2.643973   260A      2.651872   261A      2.653964  
     262A      2.664572   263A      2.676528   264A      2.695708  
     265A      2.701706   266A      2.704819   267A      2.713649  
     268A      2.733375   269A      2.745292   270A      2.751599  
     271A      2.775745   272A      2.784763   273A      2.797226  
     274A      2.815073   275A      2.840251   276A      2.850265  
     277A      2.859982   278A      2.871651   279A      2.894564  
     280A      2.903104   281A      2.927378   282A      2.941907  
     283A      2.945801   284A      2.957031   285A      2.960234  
     286A      2.966692   287A      2.983967   288A      2.994217  
     289A      3.009387   290A      3.012172   291A      3.012792  
     292A      3.034468   293A      3.037962   294A      3.057690  
     295A      3.061965   296A      3.069327   297A      3.108440  
     298A      3.118680   299A      3.140166   300A      3.169280  
     301A      3.174666   302A      3.209994   303A      3.221604  
     304A      3.250217   305A      3.281629   306A      3.310049  
     307A      3.359797   308A      3.446043   309A      3.543208  
     310A      3.573841   311A      3.598708   312A      3.693569  
     313A      3.721132   314A      3.722843   315A      3.761384  
     316A      3.821723   317A      3.854771   318A      3.900746  
     319A      3.920784   320A      3.939665   321A      3.963407  
     322A      3.981031   323A      4.003004   324A      4.077932  
     325A      4.086273   326A      4.172446   327A      4.211808  
     328A      4.227575   329A      4.252570   330A      4.267308  
     331A      4.280187   332A      4.286700   333A      4.298633  
     334A      4.336687   335A      4.352628   336A      4.358040  
     337A      4.379363   338A      4.387704   339A      4.400624  
     340A      4.421044   341A      4.435746   342A      4.440733  
     343A      4.450304   344A      4.460538   345A      4.471729  
     346A      4.499301   347A      4.501788   348A      4.506241  
     349A      4.519340   350A      4.521096   351A      4.539746  
     352A      4.551504   353A      4.562210   354A      4.573786  
     355A      4.584524   356A      4.586709   357A      4.594853  
     358A      4.602131   359A      4.621635   360A      4.633213  
     361A      4.637656   362A      4.640044   363A      4.662713  
     364A      4.665908   365A      4.672752   366A      4.701028  
     367A      4.718199   368A      4.741578   369A      4.763198  
     370A      4.812063   371A      4.846096   372A      4.863971  
     373A      4.876531   374A      4.918104   375A      4.959876  
     376A      5.003700   377A      5.006214   378A      5.021974  
     379A      5.030101   380A      5.051438   381A      5.089260  
     382A      5.133760   383A      5.185706   384A      5.246643  
     385A      5.263157   386A      5.298073   387A      5.309972  
     388A      5.335985   389A      5.355547   390A      5.363563  
     391A      5.366126   392A      5.391889   393A      5.456122  
     394A      5.461343   395A      5.474165   396A      5.488563  
     397A      5.507391   398A      5.511177   399A      5.520178  
     400A      5.541344   401A      5.589091   402A      5.609062  
     403A      5.634875   404A      5.643198   405A      5.685799  
     406A      5.703602   407A      5.734380   408A      5.754426  
     409A      5.790848   410A      5.816620   411A      5.859784  
     412A      5.869281   413A      5.915840   414A      5.980840  
     415A      6.060133   416A      6.296823   417A      6.386010  
     418A      6.429359   419A      6.442631   420A      6.543416  
     421A      6.549860   422A      6.598498   423A      6.643771  
     424A      6.704107   425A      6.707937   426A      6.721846  
     427A      6.740878   428A      6.807362   429A      6.924122  
     430A      6.934497   431A      6.949863   432A      6.989908  
     433A      7.021516   434A      7.063972   435A      7.125669  
     436A      7.205048   437A      7.224068   438A      7.301738  
     439A      7.308599   440A      7.321610   441A      7.327747  
     442A      7.339906   443A      7.369553   444A      7.414149  
     445A      7.427037   446A      7.436960   447A      7.450455  
     448A      7.459595   449A      7.476175   450A      7.477560  
     451A      7.485476   452A      7.497373   453A      7.504574  
     454A      7.519785   455A      7.530885   456A      7.545070  
     457A      7.557616   458A      7.583452   459A      7.606099  
     460A      7.610682   461A      7.629440   462A      7.638475  
     463A      7.642069   464A      7.677559   465A      7.680817  
     466A      7.703599   467A      7.722390   468A      7.747414  
     469A      7.841851   470A      7.884943   471A      7.917617  
     472A      7.960466   473A      7.999818   474A      8.007423  
     475A      8.107006   476A      8.149207   477A      8.163076  
     478A      8.176977   479A      8.203518   480A      8.230557  
     481A      8.240725   482A      8.256567   483A      8.272941  
     484A      8.863636   485A      8.912995   486A      9.067455  
     487A      9.079932   488A      9.100895   489A      9.404383  
     490A      9.476032   491A      9.504139   492A      9.597207  
     493A      9.622420   494A      9.737756   495A      9.831949  
     496A      9.962799   497A     10.029621   498A     10.123053  
     499A     10.128628   500A     10.254109   501A     14.826553  
     502A     16.182507   503A     16.452458   504A     17.252165  
     505A     17.700062   506A     17.903345  

    Final Occupation by Irrep:
              A 
    DOCC [    30 ]
    NA   [    30 ]
    NB   [    30 ]

  @DF-RHF Final Energy:  -479.85588784482172

   => Energetics <=

    Nuclear Repulsion Energy =            261.1720261030446864
    One-Electron Energy =               -1196.0274936098467151
    Two-Electron Energy =                 454.9995796619803059
    Total Energy =                       -479.8558878448217229

Computation Completed


Properties will be evaluated at   0.000000,   0.000000,   0.000000 [a0]

Properties computed using the SCF density matrix


 Multipole Moments:

 ------------------------------------------------------------------------------------
     Multipole            Electronic (a.u.)      Nuclear  (a.u.)        Total (a.u.)
 ------------------------------------------------------------------------------------

 L = 1.  Multiply by 2.5417464519 to convert [e a0] to [Debye]
 Dipole X            :         47.9064787          -48.1025779           -0.1960992
 Dipole Y            :         -2.5081249            3.8022990            1.2941741
 Dipole Z            :        -49.7945312           50.0868149            0.2922837
 Magnitude           :                                                    1.3411828

 ------------------------------------------------------------------------------------

*** tstop() called on ddmfs1 at Mon Jan 22 18:52:20 2024
Module time:
	user time   =     125.94 seconds =       2.10 minutes
	system time =       6.79 seconds =       0.11 minutes
	total time  =          7 seconds =       0.12 minutes
Total time:
	user time   =     125.94 seconds =       2.10 minutes
	system time =       6.79 seconds =       0.11 minutes
	total time  =          7 seconds =       0.12 minutes

*** tstart() called on ddmfs1
*** at Mon Jan 22 18:52:20 2024


  //>>>>>>>>>>>>>>>>>>>>>>>>>>>>>>>>>>>//
  //               DFMP2               //
  //<<<<<<<<<<<<<<<<<<<<<<<<<<<<<<<<<<<//

   => Loading Basis Set <=

    Name: (AUG-CC-PVTZ AUX)
    Role: RIFIT
    Keyword: DF_BASIS_MP2
    atoms 1                            entry F          line   322 file /ddmfs1b/softs/psi4conda/share/psi4/basis/aug-cc-pvtz-ri.gbs 
    atoms 2, 5, 8, 11, 14              entry O          line   264 file /ddmfs1b/softs/psi4conda/share/psi4/basis/aug-cc-pvtz-ri.gbs 
    atoms 3-4, 6-7, 9-10, 12-13, 15-16 entry H          line    30 file /ddmfs1b/softs/psi4conda/share/psi4/basis/aug-cc-pvtz-ri.gbs 

	 --------------------------------------------------------
	                          DF-MP2                         
	      2nd-Order Density-Fitted Moller-Plesset Theory     
	              RMP2 Wavefunction,  20 Threads             
	                                                         
	        Rob Parrish, Justin Turney, Andy Simmonett,      
	           Ed Hohenstein, and C. David Sherrill          
	 --------------------------------------------------------

   => Auxiliary Basis Set <=

  Basis Set: (AUG-CC-PVTZ AUX)
    Blend: AUG-CC-PVTZ-RI
    Number of shells: 308
    Number of basis functions: 1096
    Number of Cartesian functions: 1366
    Spherical Harmonics?: true
    Max angular momentum: 4

	 --------------------------------------------------------
	                 NBF =   506, NAUX =  1096
	 --------------------------------------------------------
	   CLASS    FOCC     OCC    AOCC    AVIR     VIR    FVIR
	   PAIRS       0      30      30     476     476       0
	 --------------------------------------------------------

	-----------------------------------------------------------
	 ==================> DF-MP2 Energies <==================== 
	-----------------------------------------------------------
	 Reference Energy          =    -479.8558878448217229 [Eh]
	 Singles Energy            =      -0.0000000000000000 [Eh]
	 Same-Spin Energy          =      -0.4323545907543238 [Eh]
	 Opposite-Spin Energy      =      -1.3151016412315535 [Eh]
	 Correlation Energy        =      -1.7474562319858773 [Eh]
	 Total Energy              =    -481.6033440768076161 [Eh]
	-----------------------------------------------------------
	 ================> DF-SCS-MP2 Energies <================== 
	-----------------------------------------------------------
	 SCS Same-Spin Scale       =       0.3333333333333333 [-]
	 SCS Opposite-Spin Scale   =       1.2000000000000000 [-]
	 SCS Same-Spin Energy      =      -0.1441181969181079 [Eh]
	 SCS Opposite-Spin Energy  =      -1.5781219694778641 [Eh]
	 SCS Correlation Energy    =      -1.7222401663959721 [Eh]
	 SCS Total Energy          =    -481.5781280112177001 [Eh]
	-----------------------------------------------------------


*** tstop() called on ddmfs1 at Mon Jan 22 18:52:25 2024
Module time:
	user time   =      39.09 seconds =       0.65 minutes
	system time =       1.79 seconds =       0.03 minutes
	total time  =          5 seconds =       0.08 minutes
Total time:
	user time   =     165.05 seconds =       2.75 minutes
	system time =       8.58 seconds =       0.14 minutes
	total time  =         12 seconds =       0.20 minutes

    Psi4 stopped on: Monday, 22 January 2024 06:52PM
    Psi4 wall time for execution: 0:00:12.03

*** Psi4 exiting successfully. Buy a developer a beer!
