
    -----------------------------------------------------------------------
          Psi4: An Open-Source Ab Initio Electronic Structure Package
                               Psi4 1.8.2 release

                         Git: Rev {} zzzzzzz 


    D. G. A. Smith, L. A. Burns, A. C. Simmonett, R. M. Parrish,
    M. C. Schieber, R. Galvelis, P. Kraus, H. Kruse, R. Di Remigio,
    A. Alenaizan, A. M. James, S. Lehtola, J. P. Misiewicz, M. Scheurer,
    R. A. Shaw, J. B. Schriber, Y. Xie, Z. L. Glick, D. A. Sirianni,
    J. S. O'Brien, J. M. Waldrop, A. Kumar, E. G. Hohenstein,
    B. P. Pritchard, B. R. Brooks, H. F. Schaefer III, A. Yu. Sokolov,
    K. Patkowski, A. E. DePrince III, U. Bozkaya, R. A. King,
    F. A. Evangelista, J. M. Turney, T. D. Crawford, C. D. Sherrill,
    J. Chem. Phys. 152(18) 184108 (2020). https://doi.org/10.1063/5.0006002

                            Additional Code Authors
    E. T. Seidl, C. L. Janssen, E. F. Valeev, M. L. Leininger,
    J. F. Gonthier, R. M. Richard, H. R. McAlexander, M. Saitow, X. Wang,
    P. Verma, M. H. Lechner, A. Jiang, S. Behnle, A. G. Heide,
    M. F. Herbst, and D. L. Poole

             Previous Authors, Complete List of Code Contributors,
                       and Citations for Specific Modules
    https://github.com/psi4/psi4/blob/master/codemeta.json
    https://github.com/psi4/psi4/graphs/contributors
    http://psicode.org/psi4manual/master/introduction.html#citing-psifour

    -----------------------------------------------------------------------


    Psi4 started on: Monday, 22 January 2024 06:15PM

    Process ID: 89395
    Host:       ddmfs1
    PSIDATADIR: /ddmfs1b/softs/psi4conda/share/psi4
    Memory:     500.0 MiB
    Threads:    20
    
  ==> Input File <==

--------------------------------------------------------------------------
MEMORY 60 GB

molecule dimer {
0 1
Gh(F)      0.000000     0.000000     0.000000
Gh(O)     -0.504269     2.615845     0.858712
Gh(H)     -0.368841     1.747318     0.502742
Gh(H)     -0.320597     2.565113     1.799174
O         -1.503618    -1.315665    -1.986342
H         -2.280667    -0.801501    -2.366013
H         -1.171011    -0.825309    -1.270502
Gh(O)      2.723573    -0.791721     0.593434
Gh(H)      1.984339    -0.306086     0.872898
Gh(H)      2.496015    -1.256115    -0.252519
Gh(O)     -0.166216    -0.566886     2.722248
Gh(H)     -0.104215    -0.470380     1.811756
Gh(H)      0.267185    -1.405528     2.999724
Gh(O)      1.430300     1.446224    -1.905269
Gh(H)      2.087411     1.977584    -1.375924
Gh(H)      0.975354     0.908102    -1.325386

units ang
no_reorient
no_com
symmetry c1
}

set {
basis        aug-cc-pVTZ
scf_type     df
}

energy("mp2")
--------------------------------------------------------------------------

  Memory set to  55.879 GiB by Python driver.

Scratch directory: /ddmfs1a/scratch/
   => Libint2 <=

    Primary   basis highest AM E, G, H:  5, 4, 3
    Auxiliary basis highest AM E, G, H:  6, 5, 4
    Onebody   basis highest AM E, G, H:  6, 5, 4
    Solid Harmonics ordering:            gaussian

*** tstart() called on ddmfs1
*** at Mon Jan 22 18:15:57 2024

   => Loading Basis Set <=

    Name: AUG-CC-PVTZ
    Role: ORBITAL
    Keyword: BASIS
    atoms 1                            entry F          line   377 file /ddmfs1b/softs/psi4conda/share/psi4/basis/aug-cc-pvtz.gbs 
    atoms 2, 5, 8, 11, 14              entry O          line   331 file /ddmfs1b/softs/psi4conda/share/psi4/basis/aug-cc-pvtz.gbs 
    atoms 3-4, 6-7, 9-10, 12-13, 15-16 entry H          line    40 file /ddmfs1b/softs/psi4conda/share/psi4/basis/aug-cc-pvtz.gbs 


         ---------------------------------------------------------
                                   SCF
               by Justin Turney, Rob Parrish, Andy Simmonett
                          and Daniel G. A. Smith
                              RHF Reference
                       20 Threads,  57220 MiB Core
         ---------------------------------------------------------

  ==> Geometry <==

    Molecular point group: c1
    Full point group: C1

    Geometry (in Angstrom), charge = 0, multiplicity = 1:

       Center              X                  Y                   Z               Mass       
    ------------   -----------------  -----------------  -----------------  -----------------
      Gh(F)           0.000000000000     0.000000000000     0.000000000000    18.998403162730
      Gh(O)          -0.504269000000     2.615845000000     0.858712000000    15.994914619570
      Gh(H)          -0.368841000000     1.747318000000     0.502742000000     1.007825032230
      Gh(H)          -0.320597000000     2.565113000000     1.799174000000     1.007825032230
         O           -1.503618000000    -1.315665000000    -1.986342000000    15.994914619570
         H           -2.280667000000    -0.801501000000    -2.366013000000     1.007825032230
         H           -1.171011000000    -0.825309000000    -1.270502000000     1.007825032230
      Gh(O)           2.723573000000    -0.791721000000     0.593434000000    15.994914619570
      Gh(H)           1.984339000000    -0.306086000000     0.872898000000     1.007825032230
      Gh(H)           2.496015000000    -1.256115000000    -0.252519000000     1.007825032230
      Gh(O)          -0.166216000000    -0.566886000000     2.722248000000    15.994914619570
      Gh(H)          -0.104215000000    -0.470380000000     1.811756000000     1.007825032230
      Gh(H)           0.267185000000    -1.405528000000     2.999724000000     1.007825032230
      Gh(O)           1.430300000000     1.446224000000    -1.905269000000    15.994914619570
      Gh(H)           2.087411000000     1.977584000000    -1.375924000000     1.007825032230
      Gh(H)           0.975354000000     0.908102000000    -1.325386000000     1.007825032230

  Running in c1 symmetry.

  Rotational constants: A =      0.04064  B =      0.03476  C =      0.03306 [cm^-1]
  Rotational constants: A =   1218.49466  B =   1041.94897  C =    991.07995 [MHz]
  Nuclear repulsion =    9.102644991613634

  Charge       = 0
  Multiplicity = 1
  Electrons    = 10
  Nalpha       = 5
  Nbeta        = 5

  ==> Algorithm <==

  SCF Algorithm Type is DF.
  DIIS enabled.
  MOM disabled.
  Fractional occupation disabled.
  Guess Type is SAD.
  Energy threshold   = 1.00e-08
  Density threshold  = 1.00e-08
  Integral threshold = 1.00e-12

  ==> Primary Basis <==

  Basis Set: AUG-CC-PVTZ
    Blend: AUG-CC-PVTZ
    Number of shells: 174
    Number of basis functions: 506
    Number of Cartesian functions: 580
    Spherical Harmonics?: true
    Max angular momentum: 3

   => Loading Basis Set <=

    Name: (AUG-CC-PVTZ AUX)
    Role: JKFIT
    Keyword: DF_BASIS_SCF
    atoms 1                            entry F          line   348 file /ddmfs1b/softs/psi4conda/share/psi4/basis/aug-cc-pvtz-jkfit.gbs 
    atoms 2, 5, 8, 11, 14              entry O          line   286 file /ddmfs1b/softs/psi4conda/share/psi4/basis/aug-cc-pvtz-jkfit.gbs 
    atoms 3-4, 6-7, 9-10, 12-13, 15-16 entry H          line    70 file /ddmfs1b/softs/psi4conda/share/psi4/basis/aug-cc-pvtz-jkfit.gbs 

  ==> Integral Setup <==

  DFHelper Memory: AOs need 1.955 GiB; user supplied 41.910 GiB. 
  Using in-core AOs.

  ==> MemDFJK: Density-Fitted J/K Matrices <==

    J tasked:                   Yes
    K tasked:                   Yes
    wK tasked:                   No
    OpenMP threads:              20
    Memory [MiB]:             42915
    Algorithm:                 Core
    Schwarz Cutoff:           1E-12
    Mask sparsity (%):      10.2361
    Fitting Condition:        1E-10

   => Auxiliary Basis Set <=

  Basis Set: (AUG-CC-PVTZ AUX)
    Blend: AUG-CC-PVTZ-JKFIT
    Number of shells: 320
    Number of basis functions: 1084
    Number of Cartesian functions: 1336
    Spherical Harmonics?: true
    Max angular momentum: 4

  Minimum eigenvalue in the overlap matrix is 7.7353448078E-05.
  Reciprocal condition number of the overlap matrix is 5.6451429310E-06.
    Using symmetric orthogonalization.

  ==> Pre-Iterations <==

  SCF Guess: Superposition of Atomic Densities via on-the-fly atomic UHF (no occupation information).

   -------------------------
    Irrep   Nso     Nmo    
   -------------------------
     A        506     506 
   -------------------------
    Total     506     506
   -------------------------

  ==> Iterations <==

                           Total Energy        Delta E     RMS |[F,P]|

   @DF-RHF iter SAD:   -75.46170355635294   -7.54617e+01   0.00000e+00 
   @DF-RHF iter   1:   -75.97175499460069   -5.10051e-01   9.27855e-04 DIIS/ADIIS
   @DF-RHF iter   2:   -76.02428853879653   -5.25335e-02   6.37691e-04 DIIS/ADIIS
   @DF-RHF iter   3:   -76.05648514667043   -3.21966e-02   4.35810e-05 DIIS
   @DF-RHF iter   4:   -76.05690182342097   -4.16677e-04   1.07504e-05 DIIS
   @DF-RHF iter   5:   -76.05692968789536   -2.78645e-05   2.51280e-06 DIIS
   @DF-RHF iter   6:   -76.05693210883314   -2.42094e-06   5.67638e-07 DIIS
   @DF-RHF iter   7:   -76.05693224413635   -1.35303e-07   1.03715e-07 DIIS
   @DF-RHF iter   8:   -76.05693224806717   -3.93082e-09   1.76734e-08 DIIS
   @DF-RHF iter   9:   -76.05693224816042   -9.32516e-11   4.66659e-09 DIIS
  Energy and wave function converged.


  ==> Post-Iterations <==

    Orbital Energies [Eh]
    ---------------------

    Doubly Occupied:                                                      

       1A    -20.567367     2A     -1.347659     3A     -0.717749  
       4A     -0.576993     5A     -0.508757  

    Virtual:                                                              

       6A      0.016179     7A      0.033051     8A      0.038025  
       9A      0.039771    10A      0.058514    11A      0.058867  
      12A      0.064448    13A      0.068911    14A      0.071034  
      15A      0.086114    16A      0.110813    17A      0.124217  
      18A      0.129770    19A      0.132708    20A      0.140922  
      21A      0.146941    22A      0.154131    23A      0.160408  
      24A      0.165649    25A      0.168073    26A      0.176039  
      27A      0.181272    28A      0.186079    29A      0.192309  
      30A      0.194525    31A      0.202779    32A      0.214181  
      33A      0.221025    34A      0.221745    35A      0.237484  
      36A      0.247558    37A      0.254259    38A      0.260535  
      39A      0.270948    40A      0.280938    41A      0.293447  
      42A      0.296250    43A      0.307062    44A      0.311100  
      45A      0.317957    46A      0.321159    47A      0.332191  
      48A      0.342242    49A      0.352045    50A      0.356682  
      51A      0.360397    52A      0.368242    53A      0.371097  
      54A      0.378140    55A      0.384996    56A      0.392028  
      57A      0.396437    58A      0.400660    59A      0.413505  
      60A      0.421619    61A      0.430887    62A      0.439005  
      63A      0.447835    64A      0.452330    65A      0.456920  
      66A      0.463582    67A      0.475810    68A      0.481666  
      69A      0.496475    70A      0.501336    71A      0.512922  
      72A      0.535138    73A      0.541535    74A      0.549279  
      75A      0.560517    76A      0.573762    77A      0.585032  
      78A      0.602509    79A      0.640759    80A      0.666182  
      81A      0.684828    82A      0.686728    83A      0.704075  
      84A      0.718088    85A      0.727881    86A      0.738756  
      87A      0.746739    88A      0.751801    89A      0.757124  
      90A      0.759942    91A      0.764341    92A      0.770770  
      93A      0.776455    94A      0.781551    95A      0.795218  
      96A      0.797580    97A      0.806247    98A      0.816604  
      99A      0.821240   100A      0.826113   101A      0.836587  
     102A      0.844827   103A      0.852724   104A      0.858868  
     105A      0.870242   106A      0.873883   107A      0.881424  
     108A      0.883174   109A      0.886891   110A      0.893452  
     111A      0.899471   112A      0.908085   113A      0.913894  
     114A      0.922918   115A      0.929764   116A      0.934084  
     117A      0.939790   118A      0.945002   119A      0.957190  
     120A      0.959017   121A      0.970054   122A      0.978664  
     123A      0.985830   124A      0.987527   125A      0.994880  
     126A      1.005366   127A      1.009756   128A      1.016742  
     129A      1.020198   130A      1.022828   131A      1.031037  
     132A      1.037148   133A      1.051891   134A      1.055703  
     135A      1.066569   136A      1.080480   137A      1.087157  
     138A      1.090570   139A      1.098976   140A      1.106598  
     141A      1.115716   142A      1.127310   143A      1.146818  
     144A      1.153072   145A      1.161298   146A      1.170142  
     147A      1.183277   148A      1.189479   149A      1.198508  
     150A      1.211211   151A      1.217613   152A      1.226499  
     153A      1.237422   154A      1.252609   155A      1.257344  
     156A      1.275332   157A      1.290518   158A      1.301128  
     159A      1.304220   160A      1.312006   161A      1.321298  
     162A      1.346922   163A      1.361466   164A      1.374645  
     165A      1.380023   166A      1.386335   167A      1.403301  
     168A      1.410598   169A      1.438678   170A      1.454298  
     171A      1.464436   172A      1.471782   173A      1.497532  
     174A      1.509053   175A      1.536099   176A      1.541680  
     177A      1.551445   178A      1.563869   179A      1.571549  
     180A      1.595251   181A      1.603055   182A      1.624516  
     183A      1.655311   184A      1.663490   185A      1.685339  
     186A      1.693020   187A      1.712615   188A      1.723537  
     189A      1.728241   190A      1.740856   191A      1.757648  
     192A      1.763435   193A      1.769586   194A      1.786226  
     195A      1.792746   196A      1.796683   197A      1.807586  
     198A      1.812157   199A      1.825273   200A      1.833434  
     201A      1.844256   202A      1.855977   203A      1.872849  
     204A      1.890552   205A      1.906739   206A      1.916788  
     207A      1.947686   208A      1.949937   209A      1.967028  
     210A      1.989557   211A      2.002457   212A      2.021896  
     213A      2.043064   214A      2.055812   215A      2.079532  
     216A      2.105677   217A      2.121636   218A      2.138994  
     219A      2.181597   220A      2.203654   221A      2.270742  
     222A      2.284271   223A      2.313016   224A      2.414741  
     225A      2.438773   226A      2.445592   227A      2.459311  
     228A      2.472846   229A      2.477804   230A      2.499667  
     231A      2.501232   232A      2.509500   233A      2.519300  
     234A      2.542227   235A      2.550178   236A      2.560061  
     237A      2.562648   238A      2.573181   239A      2.604229  
     240A      2.609453   241A      2.630331   242A      2.635135  
     243A      2.647969   244A      2.665452   245A      2.673059  
     246A      2.688429   247A      2.699987   248A      2.705460  
     249A      2.708147   250A      2.725742   251A      2.742395  
     252A      2.758446   253A      2.768866   254A      2.781016  
     255A      2.789468   256A      2.802342   257A      2.817405  
     258A      2.832729   259A      2.846558   260A      2.859374  
     261A      2.873294   262A      2.883144   263A      2.900559  
     264A      2.909841   265A      2.963776   266A      2.985679  
     267A      3.011185   268A      3.028239   269A      3.050510  
     270A      3.061528   271A      3.074075   272A      3.162603  
     273A      3.184608   274A      3.198021   275A      3.204671  
     276A      3.210428   277A      3.223071   278A      3.225431  
     279A      3.240541   280A      3.248471   281A      3.256366  
     282A      3.268308   283A      3.303621   284A      3.347798  
     285A      3.390667   286A      3.411328   287A      3.435898  
     288A      3.456761   289A      3.469153   290A      3.498254  
     291A      3.539459   292A      3.550421   293A      3.582492  
     294A      3.599480   295A      3.617957   296A      3.660178  
     297A      3.671620   298A      3.691742   299A      3.696452  
     300A      3.707291   301A      3.724320   302A      3.741578  
     303A      3.766023   304A      3.792726   305A      3.845669  
     306A      3.871260   307A      3.909432   308A      4.013150  
     309A      4.026217   310A      4.065771   311A      4.094765  
     312A      4.123596   313A      4.141101   314A      4.230877  
     315A      4.256293   316A      4.271792   317A      4.316824  
     318A      4.320787   319A      4.358598   320A      4.384938  
     321A      4.405811   322A      4.407844   323A      4.414272  
     324A      4.425712   325A      4.434163   326A      4.449901  
     327A      4.471212   328A      4.479057   329A      4.498808  
     330A      4.504102   331A      4.526545   332A      4.532675  
     333A      4.538219   334A      4.623012   335A      4.632876  
     336A      4.652300   337A      4.659420   338A      4.671029  
     339A      4.680024   340A      4.688887   341A      4.711290  
     342A      4.720134   343A      4.743466   344A      4.759848  
     345A      4.771901   346A      4.782017   347A      4.794055  
     348A      4.871810   349A      4.896343   350A      4.897362  
     351A      4.917311   352A      4.928987   353A      4.945152  
     354A      4.953193   355A      4.967042   356A      4.981413  
     357A      4.989286   358A      5.006726   359A      5.032245  
     360A      5.085814   361A      5.091265   362A      5.130486  
     363A      5.139486   364A      5.159527   365A      5.176662  
     366A      5.230003   367A      5.267696   368A      5.288733  
     369A      5.323272   370A      5.339330   371A      5.351429  
     372A      5.520851   373A      5.525906   374A      5.556713  
     375A      5.570341   376A      5.576828   377A      5.589541  
     378A      5.599501   379A      5.607325   380A      5.617073  
     381A      5.652682   382A      5.729123   383A      5.779782  
     384A      5.810787   385A      5.827408   386A      5.855601  
     387A      5.873819   388A      5.896101   389A      5.903908  
     390A      5.958406   391A      6.198413   392A      6.225391  
     393A      6.252673   394A      6.279572   395A      6.294454  
     396A      6.481963   397A      6.511646   398A      6.544964  
     399A      6.547016   400A      6.595422   401A      6.729622  
     402A      6.763494   403A      6.765218   404A      6.795869  
     405A      6.836235   406A      6.928150   407A      7.126053  
     408A      7.184641   409A      7.197051   410A      7.258252  
     411A      7.265343   412A      7.285423   413A      7.342639  
     414A      7.399922   415A      7.450615   416A      7.514723  
     417A      7.724277   418A      7.741776   419A      7.748791  
     420A      7.771290   421A      7.779049   422A      7.828712  
     423A      7.844031   424A      7.862202   425A      7.868018  
     426A      7.957394   427A      8.076502   428A      8.091126  
     429A      8.101112   430A      8.143967   431A      8.179129  
     432A      8.283258   433A      8.299373   434A      8.321678  
     435A      8.323217   436A      8.340639   437A      8.347240  
     438A      8.376018   439A      8.384109   440A      8.762824  
     441A      8.808659   442A      8.838819   443A      8.843078  
     444A      8.877268   445A      9.059855   446A      9.137648  
     447A      9.243345   448A      9.301038   449A      9.753499  
     450A      9.776905   451A      9.814650   452A      9.864132  
     453A      9.873354   454A      9.896199   455A      9.909427  
     456A      9.917663   457A     10.095868   458A     10.101008  
     459A     10.120931   460A     10.131370   461A     10.260214  
     462A     10.312262   463A     10.330253   464A     10.352911  
     465A     10.371655   466A     10.461426   467A     10.533828  
     468A     10.554573   469A     10.607686   470A     10.712656  
     471A     10.728200   472A     11.116544   473A     11.128324  
     474A     11.184417   475A     11.282629   476A     11.606251  
     477A     11.814516   478A     11.848638   479A     11.882228  
     480A     11.896909   481A     12.318828   482A     12.524081  
     483A     12.622951   484A     12.773334   485A     13.227867  
     486A     13.286287   487A     13.382059   488A     13.421471  
     489A     13.460271   490A     13.671330   491A     13.748269  
     492A     13.792754   493A     13.836927   494A     13.952811  
     495A     14.056717   496A     14.131931   497A     14.160846  
     498A     15.079949   499A     15.253488   500A     15.397745  
     501A     17.024208   502A     66.453318   503A     67.545887  
     504A     68.717845   505A     69.160022   506A     75.031510  

    Final Occupation by Irrep:
              A 
    DOCC [     5 ]
    NA   [     5 ]
    NB   [     5 ]

  @DF-RHF Final Energy:   -76.05693224816042

   => Energetics <=

    Nuclear Repulsion Energy =              9.1026449916136336
    One-Electron Energy =                -122.8821020806383473
    Two-Electron Energy =                  37.7225248408642955
    Total Energy =                        -76.0569322481604218

Computation Completed


Properties will be evaluated at   0.000000,   0.000000,   0.000000 [a0]

Properties computed using the SCF density matrix


 Multipole Moments:

 ------------------------------------------------------------------------------------
     Multipole            Electronic (a.u.)      Nuclear  (a.u.)        Total (a.u.)
 ------------------------------------------------------------------------------------

 L = 1.  Multiply by 2.5417464519 to convert [e a0] to [Debye]
 Dipole X            :         28.9663140          -29.2541358           -0.2878219
 Dipole Y            :         23.6342018          -22.9641975            0.6700042
 Dipole Z            :         37.1343652          -36.9011564            0.2332088
 Magnitude           :                                                    0.7655935

 ------------------------------------------------------------------------------------

*** tstop() called on ddmfs1 at Mon Jan 22 18:16:02 2024
Module time:
	user time   =      85.64 seconds =       1.43 minutes
	system time =       4.04 seconds =       0.07 minutes
	total time  =          5 seconds =       0.08 minutes
Total time:
	user time   =      85.64 seconds =       1.43 minutes
	system time =       4.04 seconds =       0.07 minutes
	total time  =          5 seconds =       0.08 minutes

*** tstart() called on ddmfs1
*** at Mon Jan 22 18:16:02 2024


  //>>>>>>>>>>>>>>>>>>>>>>>>>>>>>>>>>>>//
  //               DFMP2               //
  //<<<<<<<<<<<<<<<<<<<<<<<<<<<<<<<<<<<//

   => Loading Basis Set <=

    Name: (AUG-CC-PVTZ AUX)
    Role: RIFIT
    Keyword: DF_BASIS_MP2
    atoms 1                            entry F          line   322 file /ddmfs1b/softs/psi4conda/share/psi4/basis/aug-cc-pvtz-ri.gbs 
    atoms 2, 5, 8, 11, 14              entry O          line   264 file /ddmfs1b/softs/psi4conda/share/psi4/basis/aug-cc-pvtz-ri.gbs 
    atoms 3-4, 6-7, 9-10, 12-13, 15-16 entry H          line    30 file /ddmfs1b/softs/psi4conda/share/psi4/basis/aug-cc-pvtz-ri.gbs 

	 --------------------------------------------------------
	                          DF-MP2                         
	      2nd-Order Density-Fitted Moller-Plesset Theory     
	              RMP2 Wavefunction,  20 Threads             
	                                                         
	        Rob Parrish, Justin Turney, Andy Simmonett,      
	           Ed Hohenstein, and C. David Sherrill          
	 --------------------------------------------------------

   => Auxiliary Basis Set <=

  Basis Set: (AUG-CC-PVTZ AUX)
    Blend: AUG-CC-PVTZ-RI
    Number of shells: 308
    Number of basis functions: 1096
    Number of Cartesian functions: 1366
    Spherical Harmonics?: true
    Max angular momentum: 4

	 --------------------------------------------------------
	                 NBF =   506, NAUX =  1096
	 --------------------------------------------------------
	   CLASS    FOCC     OCC    AOCC    AVIR     VIR    FVIR
	   PAIRS       0       5       5     501     501       0
	 --------------------------------------------------------

	-----------------------------------------------------------
	 ==================> DF-MP2 Energies <==================== 
	-----------------------------------------------------------
	 Reference Energy          =     -76.0569322481604218 [Eh]
	 Singles Energy            =      -0.0000000000000000 [Eh]
	 Same-Spin Energy          =      -0.0685139247243632 [Eh]
	 Opposite-Spin Energy      =      -0.2164309766855790 [Eh]
	 Correlation Energy        =      -0.2849449014099421 [Eh]
	 Total Energy              =     -76.3418771495703652 [Eh]
	-----------------------------------------------------------
	 ================> DF-SCS-MP2 Energies <================== 
	-----------------------------------------------------------
	 SCS Same-Spin Scale       =       0.3333333333333333 [-]
	 SCS Opposite-Spin Scale   =       1.2000000000000000 [-]
	 SCS Same-Spin Energy      =      -0.0228379749081211 [Eh]
	 SCS Opposite-Spin Energy  =      -0.2597171720226947 [Eh]
	 SCS Correlation Energy    =      -0.2825551469308158 [Eh]
	 SCS Total Energy          =     -76.3394873950912398 [Eh]
	-----------------------------------------------------------


*** tstop() called on ddmfs1 at Mon Jan 22 18:16:06 2024
Module time:
	user time   =      24.42 seconds =       0.41 minutes
	system time =       1.22 seconds =       0.02 minutes
	total time  =          4 seconds =       0.07 minutes
Total time:
	user time   =     110.08 seconds =       1.83 minutes
	system time =       5.26 seconds =       0.09 minutes
	total time  =          9 seconds =       0.15 minutes

    Psi4 stopped on: Monday, 22 January 2024 06:16PM
    Psi4 wall time for execution: 0:00:08.95

*** Psi4 exiting successfully. Buy a developer a beer!
