
    -----------------------------------------------------------------------
          Psi4: An Open-Source Ab Initio Electronic Structure Package
                               Psi4 1.8.2 release

                         Git: Rev {} zzzzzzz 


    D. G. A. Smith, L. A. Burns, A. C. Simmonett, R. M. Parrish,
    M. C. Schieber, R. Galvelis, P. Kraus, H. Kruse, R. Di Remigio,
    A. Alenaizan, A. M. James, S. Lehtola, J. P. Misiewicz, M. Scheurer,
    R. A. Shaw, J. B. Schriber, Y. Xie, Z. L. Glick, D. A. Sirianni,
    J. S. O'Brien, J. M. Waldrop, A. Kumar, E. G. Hohenstein,
    B. P. Pritchard, B. R. Brooks, H. F. Schaefer III, A. Yu. Sokolov,
    K. Patkowski, A. E. DePrince III, U. Bozkaya, R. A. King,
    F. A. Evangelista, J. M. Turney, T. D. Crawford, C. D. Sherrill,
    J. Chem. Phys. 152(18) 184108 (2020). https://doi.org/10.1063/5.0006002

                            Additional Code Authors
    E. T. Seidl, C. L. Janssen, E. F. Valeev, M. L. Leininger,
    J. F. Gonthier, R. M. Richard, H. R. McAlexander, M. Saitow, X. Wang,
    P. Verma, M. H. Lechner, A. Jiang, S. Behnle, A. G. Heide,
    M. F. Herbst, and D. L. Poole

             Previous Authors, Complete List of Code Contributors,
                       and Citations for Specific Modules
    https://github.com/psi4/psi4/blob/master/codemeta.json
    https://github.com/psi4/psi4/graphs/contributors
    http://psicode.org/psi4manual/master/introduction.html#citing-psifour

    -----------------------------------------------------------------------


    Psi4 started on: Monday, 22 January 2024 04:39PM

    Process ID: 79171
    Host:       ddmfs1
    PSIDATADIR: /ddmfs1b/softs/psi4conda/share/psi4
    Memory:     500.0 MiB
    Threads:    20
    
  ==> Input File <==

--------------------------------------------------------------------------
MEMORY 60 GB

molecule dimer {
0 1
Gh(F)      0.000000     0.000000     0.000000
Gh(O)     -0.918718    -1.531255    -2.236425
Gh(H)     -1.762517    -1.144066    -2.152129
Gh(H)     -0.451980    -0.957002    -1.606841
O         -0.057855     2.757139     0.823387
H         -0.153772     1.814368     0.834672
H         -0.644771     3.064484     1.455290
Gh(O)      1.183092     0.237041     2.441939
Gh(H)      0.725475     0.249679     1.564024
Gh(H)      0.548909    -0.085551     3.073061
Gh(O)      2.058890     1.227888    -1.022105
Gh(H)      2.856425     0.854090    -0.614010
Gh(H)      1.361978     0.734019    -0.723384
Gh(O)     -2.424987    -0.275944     1.596124
Gh(H)     -3.071738    -0.606061     1.013613
Gh(H)     -1.631010    -0.040803     1.039161
Gh(O)      1.888808    -2.378152     0.345578
Gh(H)      1.283712    -1.599836     0.235615
Gh(H)      1.406826    -3.176557     0.608323

units ang
no_reorient
no_com
symmetry c1
}

set {
basis        aug-cc-pVTZ
scf_type     df
}

energy("mp2")
--------------------------------------------------------------------------

  Memory set to  55.879 GiB by Python driver.

Scratch directory: /ddmfs1a/scratch/
   => Libint2 <=

    Primary   basis highest AM E, G, H:  5, 4, 3
    Auxiliary basis highest AM E, G, H:  6, 5, 4
    Onebody   basis highest AM E, G, H:  6, 5, 4
    Solid Harmonics ordering:            gaussian

*** tstart() called on ddmfs1
*** at Mon Jan 22 16:39:56 2024

   => Loading Basis Set <=

    Name: AUG-CC-PVTZ
    Role: ORBITAL
    Keyword: BASIS
    atoms 1                                   entry F          line   377 file /ddmfs1b/softs/psi4conda/share/psi4/basis/aug-cc-pvtz.gbs 
    atoms 2, 5, 8, 11, 14, 17                 entry O          line   331 file /ddmfs1b/softs/psi4conda/share/psi4/basis/aug-cc-pvtz.gbs 
    atoms 3-4, 6-7, 9-10, 12-13, 15-16, 18-19 entry H          line    40 file /ddmfs1b/softs/psi4conda/share/psi4/basis/aug-cc-pvtz.gbs 


         ---------------------------------------------------------
                                   SCF
               by Justin Turney, Rob Parrish, Andy Simmonett
                          and Daniel G. A. Smith
                              RHF Reference
                       20 Threads,  57220 MiB Core
         ---------------------------------------------------------

  ==> Geometry <==

    Molecular point group: c1
    Full point group: C1

    Geometry (in Angstrom), charge = 0, multiplicity = 1:

       Center              X                  Y                   Z               Mass       
    ------------   -----------------  -----------------  -----------------  -----------------
      Gh(F)           0.000000000000     0.000000000000     0.000000000000    18.998403162730
      Gh(O)          -0.918718000000    -1.531255000000    -2.236425000000    15.994914619570
      Gh(H)          -1.762517000000    -1.144066000000    -2.152129000000     1.007825032230
      Gh(H)          -0.451980000000    -0.957002000000    -1.606841000000     1.007825032230
         O           -0.057855000000     2.757139000000     0.823387000000    15.994914619570
         H           -0.153772000000     1.814368000000     0.834672000000     1.007825032230
         H           -0.644771000000     3.064484000000     1.455290000000     1.007825032230
      Gh(O)           1.183092000000     0.237041000000     2.441939000000    15.994914619570
      Gh(H)           0.725475000000     0.249679000000     1.564024000000     1.007825032230
      Gh(H)           0.548909000000    -0.085551000000     3.073061000000     1.007825032230
      Gh(O)           2.058890000000     1.227888000000    -1.022105000000    15.994914619570
      Gh(H)           2.856425000000     0.854090000000    -0.614010000000     1.007825032230
      Gh(H)           1.361978000000     0.734019000000    -0.723384000000     1.007825032230
      Gh(O)          -2.424987000000    -0.275944000000     1.596124000000    15.994914619570
      Gh(H)          -3.071738000000    -0.606061000000     1.013613000000     1.007825032230
      Gh(H)          -1.631010000000    -0.040803000000     1.039161000000     1.007825032230
      Gh(O)           1.888808000000    -2.378152000000     0.345578000000    15.994914619570
      Gh(H)           1.283712000000    -1.599836000000     0.235615000000     1.007825032230
      Gh(H)           1.406826000000    -3.176557000000     0.608323000000     1.007825032230

  Running in c1 symmetry.

  Rotational constants: A =      0.03337  B =      0.02928  C =      0.02623 [cm^-1]
  Rotational constants: A =   1000.34920  B =    877.87633  C =    786.21788 [MHz]
  Nuclear repulsion =    9.448588483465985

  Charge       = 0
  Multiplicity = 1
  Electrons    = 10
  Nalpha       = 5
  Nbeta        = 5

  ==> Algorithm <==

  SCF Algorithm Type is DF.
  DIIS enabled.
  MOM disabled.
  Fractional occupation disabled.
  Guess Type is SAD.
  Energy threshold   = 1.00e-08
  Density threshold  = 1.00e-08
  Integral threshold = 1.00e-12

  ==> Primary Basis <==

  Basis Set: AUG-CC-PVTZ
    Blend: AUG-CC-PVTZ
    Number of shells: 206
    Number of basis functions: 598
    Number of Cartesian functions: 685
    Spherical Harmonics?: true
    Max angular momentum: 3

   => Loading Basis Set <=

    Name: (AUG-CC-PVTZ AUX)
    Role: JKFIT
    Keyword: DF_BASIS_SCF
    atoms 1                                   entry F          line   348 file /ddmfs1b/softs/psi4conda/share/psi4/basis/aug-cc-pvtz-jkfit.gbs 
    atoms 2, 5, 8, 11, 14, 17                 entry O          line   286 file /ddmfs1b/softs/psi4conda/share/psi4/basis/aug-cc-pvtz-jkfit.gbs 
    atoms 3-4, 6-7, 9-10, 12-13, 15-16, 18-19 entry H          line    70 file /ddmfs1b/softs/psi4conda/share/psi4/basis/aug-cc-pvtz-jkfit.gbs 

  ==> Integral Setup <==

  DFHelper Memory: AOs need 3.192 GiB; user supplied 41.910 GiB. 
  Using in-core AOs.

  ==> MemDFJK: Density-Fitted J/K Matrices <==

    J tasked:                   Yes
    K tasked:                   Yes
    wK tasked:                   No
    OpenMP threads:              20
    Memory [MiB]:             42915
    Algorithm:                 Core
    Schwarz Cutoff:           1E-12
    Mask sparsity (%):      10.4294
    Fitting Condition:        1E-10

   => Auxiliary Basis Set <=

  Basis Set: (AUG-CC-PVTZ AUX)
    Blend: AUG-CC-PVTZ-JKFIT
    Number of shells: 378
    Number of basis functions: 1280
    Number of Cartesian functions: 1577
    Spherical Harmonics?: true
    Max angular momentum: 4

  Minimum eigenvalue in the overlap matrix is 3.1244450418E-05.
  Reciprocal condition number of the overlap matrix is 1.9799785998E-06.
    Using symmetric orthogonalization.

  ==> Pre-Iterations <==

  SCF Guess: Superposition of Atomic Densities via on-the-fly atomic UHF (no occupation information).

   -------------------------
    Irrep   Nso     Nmo    
   -------------------------
     A        598     598 
   -------------------------
    Total     598     598
   -------------------------

  ==> Iterations <==

                           Total Energy        Delta E     RMS |[F,P]|

   @DF-RHF iter SAD:   -75.50566561565743   -7.55057e+01   0.00000e+00 
   @DF-RHF iter   1:   -75.97690948558221   -4.71244e-01   7.89776e-04 DIIS/ADIIS
   @DF-RHF iter   2:   -76.03050132433049   -5.35918e-02   5.21619e-04 DIIS/ADIIS
   @DF-RHF iter   3:   -76.06005642015330   -2.95551e-02   3.53112e-05 DIIS
   @DF-RHF iter   4:   -76.06041352813395   -3.57108e-04   7.93122e-06 DIIS
   @DF-RHF iter   5:   -76.06043273440756   -1.92063e-05   1.74792e-06 DIIS
   @DF-RHF iter   6:   -76.06043422904834   -1.49464e-06   3.81022e-07 DIIS
   @DF-RHF iter   7:   -76.06043430888403   -7.98357e-08   7.20533e-08 DIIS
   @DF-RHF iter   8:   -76.06043431146232   -2.57829e-09   1.17788e-08 DIIS
   @DF-RHF iter   9:   -76.06043431151521   -5.28928e-11   2.76458e-09 DIIS
  Energy and wave function converged.


  ==> Post-Iterations <==

    Orbital Energies [Eh]
    ---------------------

    Doubly Occupied:                                                      

       1A    -20.562117     2A     -1.367023     3A     -0.733399  
       4A     -0.588481     5A     -0.512396  

    Virtual:                                                              

       6A      0.014344     7A      0.032397     8A      0.035128  
       9A      0.040547    10A      0.051981    11A      0.054326  
      12A      0.061121    13A      0.067876    14A      0.074669  
      15A      0.082707    16A      0.083794    17A      0.098154  
      18A      0.110821    19A      0.123512    20A      0.126131  
      21A      0.134665    22A      0.140488    23A      0.144876  
      24A      0.148753    25A      0.156143    26A      0.158622  
      27A      0.165201    28A      0.173432    29A      0.178997  
      30A      0.184133    31A      0.192063    32A      0.195583  
      33A      0.203573    34A      0.204450    35A      0.207414  
      36A      0.219253    37A      0.224103    38A      0.225209  
      39A      0.236158    40A      0.239023    41A      0.248911  
      42A      0.256246    43A      0.265353    44A      0.272407  
      45A      0.283581    46A      0.291013    47A      0.297207  
      48A      0.305235    49A      0.314344    50A      0.320964  
      51A      0.328595    52A      0.331934    53A      0.338966  
      54A      0.343145    55A      0.345958    56A      0.357300  
      57A      0.359676    58A      0.364730    59A      0.366884  
      60A      0.369891    61A      0.377428    62A      0.383137  
      63A      0.390553    64A      0.395848    65A      0.409677  
      66A      0.412998    67A      0.422756    68A      0.424154  
      69A      0.434426    70A      0.437431    71A      0.438087  
      72A      0.449887    73A      0.450801    74A      0.462487  
      75A      0.464368    76A      0.474758    77A      0.479169  
      78A      0.483441    79A      0.495330    80A      0.498465  
      81A      0.507148    82A      0.527217    83A      0.536955  
      84A      0.556054    85A      0.562469    86A      0.565782  
      87A      0.575371    88A      0.599306    89A      0.607185  
      90A      0.616096    91A      0.623400    92A      0.644938  
      93A      0.657687    94A      0.684154    95A      0.699659  
      96A      0.709917    97A      0.716932    98A      0.724373  
      99A      0.731358   100A      0.733417   101A      0.744006  
     102A      0.753493   103A      0.759058   104A      0.773768  
     105A      0.777958   106A      0.787144   107A      0.792895  
     108A      0.793182   109A      0.798157   110A      0.809743  
     111A      0.815942   112A      0.821093   113A      0.825549  
     114A      0.834962   115A      0.841268   116A      0.849236  
     117A      0.852987   118A      0.855662   119A      0.862538  
     120A      0.865539   121A      0.872576   122A      0.877351  
     123A      0.884788   124A      0.886696   125A      0.895857  
     126A      0.901100   127A      0.909803   128A      0.913432  
     129A      0.925629   130A      0.932856   131A      0.934943  
     132A      0.938969   133A      0.947860   134A      0.954360  
     135A      0.957864   136A      0.963136   137A      0.967184  
     138A      0.974320   139A      0.978787   140A      0.979804  
     141A      0.995011   142A      0.997325   143A      1.000817  
     144A      1.004673   145A      1.007108   146A      1.011951  
     147A      1.026135   148A      1.034247   149A      1.039540  
     150A      1.052142   151A      1.056413   152A      1.059097  
     153A      1.065831   154A      1.070132   155A      1.079642  
     156A      1.087385   157A      1.092524   158A      1.105184  
     159A      1.107141   160A      1.115853   161A      1.119739  
     162A      1.124857   163A      1.133644   164A      1.140575  
     165A      1.152263   166A      1.166607   167A      1.171832  
     168A      1.183929   169A      1.188387   170A      1.191829  
     171A      1.210541   172A      1.220285   173A      1.222605  
     174A      1.230433   175A      1.251464   176A      1.252188  
     177A      1.258984   178A      1.270892   179A      1.271863  
     180A      1.278922   181A      1.289605   182A      1.297574  
     183A      1.312635   184A      1.317456   185A      1.336803  
     186A      1.343713   187A      1.353813   188A      1.362744  
     189A      1.372953   190A      1.379454   191A      1.385617  
     192A      1.403593   193A      1.416247   194A      1.422157  
     195A      1.441016   196A      1.450174   197A      1.460946  
     198A      1.483993   199A      1.487386   200A      1.494755  
     201A      1.505768   202A      1.510882   203A      1.524593  
     204A      1.543791   205A      1.552515   206A      1.558421  
     207A      1.573136   208A      1.583565   209A      1.596341  
     210A      1.617133   211A      1.637475   212A      1.651255  
     213A      1.660009   214A      1.676608   215A      1.683547  
     216A      1.693274   217A      1.717068   218A      1.720702  
     219A      1.728212   220A      1.733362   221A      1.746427  
     222A      1.763078   223A      1.768388   224A      1.780111  
     225A      1.783139   226A      1.792690   227A      1.807114  
     228A      1.812820   229A      1.822562   230A      1.832702  
     231A      1.834757   232A      1.837434   233A      1.860771  
     234A      1.869891   235A      1.890080   236A      1.899654  
     237A      1.907022   238A      1.919116   239A      1.927292  
     240A      1.942286   241A      1.958701   242A      1.979195  
     243A      1.983145   244A      1.996326   245A      2.004132  
     246A      2.025779   247A      2.044785   248A      2.049382  
     249A      2.073029   250A      2.076386   251A      2.103904  
     252A      2.120564   253A      2.141721   254A      2.148627  
     255A      2.166657   256A      2.193291   257A      2.207956  
     258A      2.242568   259A      2.268006   260A      2.310998  
     261A      2.334252   262A      2.340544   263A      2.365414  
     264A      2.432683   265A      2.456912   266A      2.467054  
     267A      2.481411   268A      2.487969   269A      2.499036  
     270A      2.504667   271A      2.513939   272A      2.520059  
     273A      2.530085   274A      2.534901   275A      2.548428  
     276A      2.553069   277A      2.571075   278A      2.578347  
     279A      2.596656   280A      2.601085   281A      2.613090  
     282A      2.626200   283A      2.628143   284A      2.644957  
     285A      2.647496   286A      2.667362   287A      2.675283  
     288A      2.684881   289A      2.692250   290A      2.709572  
     291A      2.716351   292A      2.726592   293A      2.737067  
     294A      2.759489   295A      2.766459   296A      2.777450  
     297A      2.780582   298A      2.792656   299A      2.828423  
     300A      2.831120   301A      2.845590   302A      2.859865  
     303A      2.866589   304A      2.887097   305A      2.898989  
     306A      2.902167   307A      2.917178   308A      2.933299  
     309A      2.961305   310A      2.966868   311A      2.970335  
     312A      2.978155   313A      2.994639   314A      3.009769  
     315A      3.032104   316A      3.066741   317A      3.087023  
     318A      3.109316   319A      3.139284   320A      3.141037  
     321A      3.175016   322A      3.213826   323A      3.217408  
     324A      3.237143   325A      3.239447   326A      3.249510  
     327A      3.259769   328A      3.266501   329A      3.269229  
     330A      3.282097   331A      3.286132   332A      3.309789  
     333A      3.340674   334A      3.350117   335A      3.373242  
     336A      3.377740   337A      3.416812   338A      3.434297  
     339A      3.484118   340A      3.516430   341A      3.525523  
     342A      3.546584   343A      3.566043   344A      3.584369  
     345A      3.604450   346A      3.626954   347A      3.633478  
     348A      3.635546   349A      3.647770   350A      3.665279  
     351A      3.687577   352A      3.708663   353A      3.766027  
     354A      3.781475   355A      3.795007   356A      3.803266  
     357A      3.822403   358A      3.840230   359A      3.853374  
     360A      3.891934   361A      3.902823   362A      3.949384  
     363A      4.007152   364A      4.034068   365A      4.072716  
     366A      4.158119   367A      4.167304   368A      4.203249  
     369A      4.241458   370A      4.250831   371A      4.311835  
     372A      4.330238   373A      4.354358   374A      4.374641  
     375A      4.396635   376A      4.411912   377A      4.432886  
     378A      4.444905   379A      4.457993   380A      4.474622  
     381A      4.488698   382A      4.495817   383A      4.500084  
     384A      4.516032   385A      4.525860   386A      4.527240  
     387A      4.542931   388A      4.546079   389A      4.564089  
     390A      4.567448   391A      4.579404   392A      4.603826  
     393A      4.606071   394A      4.625248   395A      4.634021  
     396A      4.641278   397A      4.671927   398A      4.689325  
     399A      4.700986   400A      4.708299   401A      4.728347  
     402A      4.737963   403A      4.779768   404A      4.805121  
     405A      4.811713   406A      4.829644   407A      4.832802  
     408A      4.872946   409A      4.893073   410A      4.912578  
     411A      4.920217   412A      4.929866   413A      4.934212  
     414A      4.950199   415A      4.963855   416A      4.977593  
     417A      5.004453   418A      5.009842   419A      5.041070  
     420A      5.046549   421A      5.066455   422A      5.079452  
     423A      5.109266   424A      5.132558   425A      5.144995  
     426A      5.180664   427A      5.208105   428A      5.214138  
     429A      5.227450   430A      5.237847   431A      5.280410  
     432A      5.329260   433A      5.334196   434A      5.353062  
     435A      5.390387   436A      5.411159   437A      5.481033  
     438A      5.494482   439A      5.505688   440A      5.550496  
     441A      5.561171   442A      5.579250   443A      5.595723  
     444A      5.624198   445A      5.650200   446A      5.658054  
     447A      5.678334   448A      5.702675   449A      5.720332  
     450A      5.724178   451A      5.735480   452A      5.753122  
     453A      5.762455   454A      5.768469   455A      5.804339  
     456A      5.894272   457A      5.931079   458A      5.962974  
     459A      6.017507   460A      6.038295   461A      6.076197  
     462A      6.169337   463A      6.205755   464A      6.245789  
     465A      6.346052   466A      6.362484   467A      6.377904  
     468A      6.413274   469A      6.452221   470A      6.525491  
     471A      6.597383   472A      6.614871   473A      6.666561  
     474A      6.746634   475A      6.790550   476A      6.803756  
     477A      6.845295   478A      6.868407   479A      6.878764  
     480A      7.052492   481A      7.097211   482A      7.139110  
     483A      7.149536   484A      7.175677   485A      7.222794  
     486A      7.375365   487A      7.380632   488A      7.448368  
     489A      7.490596   490A      7.527331   491A      7.616411  
     492A      7.693960   493A      7.742397   494A      7.774030  
     495A      7.797139   496A      7.801781   497A      7.836464  
     498A      7.867868   499A      7.894475   500A      7.915168  
     501A      7.944976   502A      7.989043   503A      8.063520  
     504A      8.069208   505A      8.089603   506A      8.120445  
     507A      8.142339   508A      8.188780   509A      8.197915  
     510A      8.201313   511A      8.250767   512A      8.266605  
     513A      8.311408   514A      8.320488   515A      8.346946  
     516A      8.369813   517A      8.371948   518A      8.397886  
     519A      8.470905   520A      8.711297   521A      8.813767  
     522A      8.842617   523A      8.886998   524A      8.967065  
     525A      8.992980   526A      9.027794   527A      9.037024  
     528A      9.048413   529A      9.110105   530A      9.403108  
     531A      9.718062   532A      9.735552   533A      9.769791  
     534A      9.877889   535A      9.895019   536A      9.920665  
     537A      9.934628   538A      9.942185   539A      9.948208  
     540A      9.975597   541A     10.091935   542A     10.124925  
     543A     10.137745   544A     10.194471   545A     10.231092  
     546A     10.273883   547A     10.320874   548A     10.351794  
     549A     10.367703   550A     10.418747   551A     10.484239  
     552A     10.576900   553A     10.634522   554A     10.662993  
     555A     10.728079   556A     10.816388   557A     10.856042  
     558A     11.094644   559A     11.194395   560A     11.300864  
     561A     11.330711   562A     11.437173   563A     11.746759  
     564A     11.788786   565A     11.836693   566A     11.899949  
     567A     11.986878   568A     12.123271   569A     12.176134  
     570A     12.379056   571A     12.447388   572A     12.584545  
     573A     12.938959   574A     13.332263   575A     13.356824  
     576A     13.468248   577A     13.481256   578A     13.578012  
     579A     13.675005   580A     13.722943   581A     13.748893  
     582A     13.812781   583A     13.975873   584A     13.998371  
     585A     14.021860   586A     14.042589   587A     14.147443  
     588A     14.458469   589A     15.316619   590A     15.467832  
     591A     15.627787   592A     17.805009   593A     65.987609  
     594A     66.758366   595A     67.501623   596A     68.024830  
     597A     70.523505   598A     76.332299  

    Final Occupation by Irrep:
              A 
    DOCC [     5 ]
    NA   [     5 ]
    NB   [     5 ]

  @DF-RHF Final Energy:   -76.06043431151521

   => Energetics <=

    Nuclear Repulsion Energy =              9.4485884834659846
    One-Electron Energy =                -123.4912110636839344
    Two-Electron Energy =                  37.9821882687027426
    Total Energy =                        -76.0604343115152091

Computation Completed


Properties will be evaluated at   0.000000,   0.000000,   0.000000 [a0]

Properties computed using the SCF density matrix


 Multipole Moments:

 ------------------------------------------------------------------------------------
     Multipole            Electronic (a.u.)      Nuclear  (a.u.)        Total (a.u.)
 ------------------------------------------------------------------------------------

 L = 1.  Multiply by 2.5417464519 to convert [e a0] to [Debye]
 Dipole X            :          1.9190742           -2.3836684           -0.4645942
 Dipole Y            :        -51.3278210           50.9015949           -0.4262261
 Dipole Z            :        -16.3372784           16.7752084            0.4379300
 Magnitude           :                                                    0.7676583

 ------------------------------------------------------------------------------------

*** tstop() called on ddmfs1 at Mon Jan 22 16:40:04 2024
Module time:
	user time   =     127.69 seconds =       2.13 minutes
	system time =       5.92 seconds =       0.10 minutes
	total time  =          8 seconds =       0.13 minutes
Total time:
	user time   =     127.69 seconds =       2.13 minutes
	system time =       5.92 seconds =       0.10 minutes
	total time  =          8 seconds =       0.13 minutes

*** tstart() called on ddmfs1
*** at Mon Jan 22 16:40:04 2024


  //>>>>>>>>>>>>>>>>>>>>>>>>>>>>>>>>>>>//
  //               DFMP2               //
  //<<<<<<<<<<<<<<<<<<<<<<<<<<<<<<<<<<<//

   => Loading Basis Set <=

    Name: (AUG-CC-PVTZ AUX)
    Role: RIFIT
    Keyword: DF_BASIS_MP2
    atoms 1                                   entry F          line   322 file /ddmfs1b/softs/psi4conda/share/psi4/basis/aug-cc-pvtz-ri.gbs 
    atoms 2, 5, 8, 11, 14, 17                 entry O          line   264 file /ddmfs1b/softs/psi4conda/share/psi4/basis/aug-cc-pvtz-ri.gbs 
    atoms 3-4, 6-7, 9-10, 12-13, 15-16, 18-19 entry H          line    30 file /ddmfs1b/softs/psi4conda/share/psi4/basis/aug-cc-pvtz-ri.gbs 

	 --------------------------------------------------------
	                          DF-MP2                         
	      2nd-Order Density-Fitted Moller-Plesset Theory     
	              RMP2 Wavefunction,  20 Threads             
	                                                         
	        Rob Parrish, Justin Turney, Andy Simmonett,      
	           Ed Hohenstein, and C. David Sherrill          
	 --------------------------------------------------------

   => Auxiliary Basis Set <=

  Basis Set: (AUG-CC-PVTZ AUX)
    Blend: AUG-CC-PVTZ-RI
    Number of shells: 364
    Number of basis functions: 1294
    Number of Cartesian functions: 1612
    Spherical Harmonics?: true
    Max angular momentum: 4

	 --------------------------------------------------------
	                 NBF =   598, NAUX =  1294
	 --------------------------------------------------------
	   CLASS    FOCC     OCC    AOCC    AVIR     VIR    FVIR
	   PAIRS       0       5       5     593     593       0
	 --------------------------------------------------------

	-----------------------------------------------------------
	 ==================> DF-MP2 Energies <==================== 
	-----------------------------------------------------------
	 Reference Energy          =     -76.0604343115152091 [Eh]
	 Singles Energy            =      -0.0000000000000000 [Eh]
	 Same-Spin Energy          =      -0.0679673196826045 [Eh]
	 Opposite-Spin Energy      =      -0.2147706608149640 [Eh]
	 Correlation Energy        =      -0.2827379804975685 [Eh]
	 Total Energy              =     -76.3431722920127811 [Eh]
	-----------------------------------------------------------
	 ================> DF-SCS-MP2 Energies <================== 
	-----------------------------------------------------------
	 SCS Same-Spin Scale       =       0.3333333333333333 [-]
	 SCS Opposite-Spin Scale   =       1.2000000000000000 [-]
	 SCS Same-Spin Energy      =      -0.0226557732275348 [Eh]
	 SCS Opposite-Spin Energy  =      -0.2577247929779568 [Eh]
	 SCS Correlation Energy    =      -0.2803805662054916 [Eh]
	 SCS Total Energy          =     -76.3408148777207032 [Eh]
	-----------------------------------------------------------


*** tstop() called on ddmfs1 at Mon Jan 22 16:40:09 2024
Module time:
	user time   =      32.51 seconds =       0.54 minutes
	system time =       1.87 seconds =       0.03 minutes
	total time  =          5 seconds =       0.08 minutes
Total time:
	user time   =     160.22 seconds =       2.67 minutes
	system time =       7.79 seconds =       0.13 minutes
	total time  =         13 seconds =       0.22 minutes

    Psi4 stopped on: Monday, 22 January 2024 04:40PM
    Psi4 wall time for execution: 0:00:13.36

*** Psi4 exiting successfully. Buy a developer a beer!
