
    -----------------------------------------------------------------------
          Psi4: An Open-Source Ab Initio Electronic Structure Package
                               Psi4 1.9 release

                         Git: Rev {} zzzzzzz 


    D. G. A. Smith, L. A. Burns, A. C. Simmonett, R. M. Parrish,
    M. C. Schieber, R. Galvelis, P. Kraus, H. Kruse, R. Di Remigio,
    A. Alenaizan, A. M. James, S. Lehtola, J. P. Misiewicz, M. Scheurer,
    R. A. Shaw, J. B. Schriber, Y. Xie, Z. L. Glick, D. A. Sirianni,
    J. S. O'Brien, J. M. Waldrop, A. Kumar, E. G. Hohenstein,
    B. P. Pritchard, B. R. Brooks, H. F. Schaefer III, A. Yu. Sokolov,
    K. Patkowski, A. E. DePrince III, U. Bozkaya, R. A. King,
    F. A. Evangelista, J. M. Turney, T. D. Crawford, C. D. Sherrill,
    J. Chem. Phys. 152(18) 184108 (2020). https://doi.org/10.1063/5.0006002

                            Additional Code Authors
    E. T. Seidl, C. L. Janssen, E. F. Valeev, M. L. Leininger,
    J. F. Gonthier, R. M. Richard, H. R. McAlexander, M. Saitow, X. Wang,
    P. Verma, M. H. Lechner, A. Jiang, S. Behnle, A. G. Heide,
    M. F. Herbst, and D. L. Poole

             Previous Authors, Complete List of Code Contributors,
                       and Citations for Specific Modules
    https://github.com/psi4/psi4/blob/master/codemeta.json
    https://github.com/psi4/psi4/graphs/contributors
    http://psicode.org/psi4manual/master/introduction.html#citing-psifour

    -----------------------------------------------------------------------


    Psi4 started on: Saturday, 06 January 2024 10:39PM

    Process ID: 558437
    Host:       moses-razer
    PSIDATADIR: /home/kchung25/anaconda3/envs/psi4_19/share/psi4
    Memory:     500.0 MiB
    Threads:    6
    
  ==> Input File <==

--------------------------------------------------------------------------
MEMORY 60 GB

molecule dimer {
-1 1
F      0.000000     0.000000     0.000000
--
0 1
O      2.677680    -0.431683     0.982344
H      2.933162     0.317043     0.487951
H      1.708005    -0.404595     0.837210
O      1.576856    -0.040462    -2.621091
H      2.404113    -0.374615    -2.443570
H      1.025387    -0.010348    -1.815928
O     -2.450615     0.572312     1.271496
H     -1.576686     0.559397     0.900868
H     -2.799350     1.506271     1.234932
O      0.318935     2.917871     0.285605
H      0.929765     3.196369     1.002172
H      0.243820     1.921280     0.350783
O     -1.632182    -0.210996    -2.315884
H     -1.059865    -0.204007    -1.547666
H     -1.569097     0.672687    -2.721168
O     -0.849068    -2.951308     0.210019
H     -0.770250    -1.966145     0.116227
H     -0.630310    -3.256642    -0.643333

units ang
no_reorient
no_com
symmetry c1
}

set {
basis        aug-cc-pVTZ
scf_type     df
}

energy("mp2", bsse_type="cp")
--------------------------------------------------------------------------

  Memory set to  55.879 GiB by Python driver.

Scratch directory: /scratch/

  //>>>>>>>>>>>>>>>>>>>>>>>>>>>>>>>>>>>>>//
  // ManyBody Setup: N-Body Levels [1, 2]//
  //<<<<<<<<<<<<<<<<<<<<<<<<<<<<<<<<<<<<<//

        Number of 1-body computations:     2
        Number of 2-body computations:     1

    -----------------------------------------------------------------------
          Psi4: An Open-Source Ab Initio Electronic Structure Package
                               Psi4 1.9 release

                         Git: Rev {} zzzzzzz 


    D. G. A. Smith, L. A. Burns, A. C. Simmonett, R. M. Parrish,
    M. C. Schieber, R. Galvelis, P. Kraus, H. Kruse, R. Di Remigio,
    A. Alenaizan, A. M. James, S. Lehtola, J. P. Misiewicz, M. Scheurer,
    R. A. Shaw, J. B. Schriber, Y. Xie, Z. L. Glick, D. A. Sirianni,
    J. S. O'Brien, J. M. Waldrop, A. Kumar, E. G. Hohenstein,
    B. P. Pritchard, B. R. Brooks, H. F. Schaefer III, A. Yu. Sokolov,
    K. Patkowski, A. E. DePrince III, U. Bozkaya, R. A. King,
    F. A. Evangelista, J. M. Turney, T. D. Crawford, C. D. Sherrill,
    J. Chem. Phys. 152(18) 184108 (2020). https://doi.org/10.1063/5.0006002

                            Additional Code Authors
    E. T. Seidl, C. L. Janssen, E. F. Valeev, M. L. Leininger,
    J. F. Gonthier, R. M. Richard, H. R. McAlexander, M. Saitow, X. Wang,
    P. Verma, M. H. Lechner, A. Jiang, S. Behnle, A. G. Heide,
    M. F. Herbst, and D. L. Poole

             Previous Authors, Complete List of Code Contributors,
                       and Citations for Specific Modules
    https://github.com/psi4/psi4/blob/master/codemeta.json
    https://github.com/psi4/psi4/graphs/contributors
    http://psicode.org/psi4manual/master/introduction.html#citing-psifour

    -----------------------------------------------------------------------


    Psi4 started on: Saturday, 06 January 2024 10:39PM

    Process ID: 558437
    Host:       moses-razer
    PSIDATADIR: /home/kchung25/anaconda3/envs/psi4_19/share/psi4
    Memory:     55.9 GiB
    Threads:    6
    
  ==> Input QCSchema <==

--------------------------------------------------------------------------
{'driver': 'energy',
 'extras': {'psiapi': True, 'wfn_qcvars_only': True},
 'id': None,
 'keywords': {'SCF_TYPE': 'DF', 'function_kwargs': {}},
 'model': {'basis': 'aug-cc-pvtz', 'method': 'mp2'},
 'molecule': {'atom_labels': ['', '', '', '', '', '', '', '', '', '', '', '', '', '', '', '', '', '', ''],
              'atomic_numbers': [9, 8, 1, 1, 8, 1, 1, 8, 1, 1, 8, 1, 1, 8, 1, 1, 8, 1, 1],
              'extras': {},
              'fix_com': True,
              'fix_orientation': True,
              'fix_symmetry': 'c1',
              'fragment_charges': [0.0, 0.0],
              'fragment_multiplicities': [1, 1],
              'fragments': [[0], [1, 2, 3, 4, 5, 6, 7, 8, 9, 10, 11, 12, 13, 14, 15, 16, 17, 18]],
              'geometry': [0.0, 0.0, 0.0, 5.060081851615918, -0.8157626430160116, 1.8563611209867448,
                           5.5428728616001335, 0.5991244399935263, 0.9220937526432728, 3.227661670912598,
                           -0.7645737417296099, 1.5820976094945483, 2.979825979284929, -0.07646209848827464,
                           -4.953144139902384, 4.543115144652796, -0.7079197524883842, -4.6176780683849845,
                           1.937700602604826, -0.019554885946237603, -3.431606583550383, -4.630991188938834,
                           1.0815129383130206, 2.4027792096151264, -2.979504725843601, 1.0571071254027327,
                           1.7023937951889427, -5.290004829300371, 2.846439660719488, 2.3336832635638864,
                           0.6026998018228925, 5.513977059415758, 0.539715230061383, 1.7570012110362976,
                           6.040262005903513, 1.8938306106023226, 0.4607530239091277, 3.630693010319616,
                           0.6628837994664734, -3.084376966902009, -0.3987246535670999, -4.376386498329777,
                           -2.002854579958361, -0.38551735767627515, -2.924664873682815, -2.965163594277502,
                           1.27119419815585, -5.142262261359828, -1.6045059818902274, -5.577163831872692,
                           0.39687839114252765, -1.4555615481338922, -3.715475572938282, 0.21963719838358697,
                           -1.1911132741373238, -6.154161468663232, -1.215723177469161],
              'mass_numbers': [19, 16, 1, 1, 16, 1, 1, 16, 1, 1, 16, 1, 1, 16, 1, 1, 16, 1, 1],
              'masses': [18.99840316273, 15.99491461957, 1.00782503223, 1.00782503223, 15.99491461957, 1.00782503223,
                         1.00782503223, 15.99491461957, 1.00782503223, 1.00782503223, 15.99491461957, 1.00782503223,
                         1.00782503223, 15.99491461957, 1.00782503223, 1.00782503223, 15.99491461957, 1.00782503223,
                         1.00782503223],
              'molecular_charge': 0.0,
              'molecular_multiplicity': 1,
              'name': 'dimer',
              'provenance': {'creator': 'QCElemental',
                             'routine': 'qcelemental.molparse.from_string',
                             'version': '0.27.1'},
              'real': [False, True, True, True, True, True, True, True, True, True, True, True, True, True, True, True,
                       True, True, True],
              'schema_name': 'qcschema_molecule',
              'schema_version': 2,
              'symbols': ['F', 'O', 'H', 'H', 'O', 'H', 'H', 'O', 'H', 'H', 'O', 'H', 'H', 'O', 'H', 'H', 'O', 'H',
                          'H'],
              'validated': True},
 'protocols': {'stdout': True},
 'provenance': {'creator': 'QCElemental', 'routine': 'qcelemental.models.results', 'version': '0.27.1'},
 'schema_name': 'qcschema_input',
 'schema_version': 1}
--------------------------------------------------------------------------

Scratch directory: /scratch/
   => Libint2 <=

    Primary   basis highest AM E, G, H:  5, 4, 3
    Auxiliary basis highest AM E, G, H:  6, 5, 4
    Onebody   basis highest AM E, G, H:  6, 5, 4
    Solid Harmonics ordering:            gaussian

*** tstart() called on moses-razer
*** at Sat Jan  6 22:39:08 2024

   => Loading Basis Set <=

    Name: AUG-CC-PVTZ
    Role: ORBITAL
    Keyword: BASIS
    atoms 1                                   entry F          line   377 file /home/kchung25/anaconda3/envs/p415env/share/psi4/basis/aug-cc-pvtz.gbs 
    atoms 2, 5, 8, 11, 14, 17                 entry O          line   331 file /home/kchung25/anaconda3/envs/p415env/share/psi4/basis/aug-cc-pvtz.gbs 
    atoms 3-4, 6-7, 9-10, 12-13, 15-16, 18-19 entry H          line    40 file /home/kchung25/anaconda3/envs/p415env/share/psi4/basis/aug-cc-pvtz.gbs 


         ---------------------------------------------------------
                                   SCF
               by Justin Turney, Rob Parrish, Andy Simmonett
                          and Daniel G. A. Smith
                              RHF Reference
                        6 Threads,  57220 MiB Core
         ---------------------------------------------------------

  ==> Geometry <==

    Molecular point group: c1
    Full point group: C1

    Geometry (in Bohr), charge = 0, multiplicity = 1:

       Center              X                  Y                   Z               Mass       
    ------------   -----------------  -----------------  -----------------  -----------------
      Gh(F)           0.000000000000     0.000000000000     0.000000000000    18.998403162730
         O            5.060081851616    -0.815762643016     1.856361120987    15.994914619570
         H            5.542872861600     0.599124439994     0.922093752643     1.007825032230
         H            3.227661670913    -0.764573741730     1.582097609495     1.007825032230
         O            2.979825979285    -0.076462098488    -4.953144139902    15.994914619570
         H            4.543115144653    -0.707919752488    -4.617678068385     1.007825032230
         H            1.937700602605    -0.019554885946    -3.431606583550     1.007825032230
         O           -4.630991188939     1.081512938313     2.402779209615    15.994914619570
         H           -2.979504725844     1.057107125403     1.702393795189     1.007825032230
         H           -5.290004829300     2.846439660719     2.333683263564     1.007825032230
         O            0.602699801823     5.513977059416     0.539715230061    15.994914619570
         H            1.757001211036     6.040262005904     1.893830610602     1.007825032230
         H            0.460753023909     3.630693010320     0.662883799466     1.007825032230
         O           -3.084376966902    -0.398724653567    -4.376386498330    15.994914619570
         H           -2.002854579958    -0.385517357676    -2.924664873683     1.007825032230
         H           -2.965163594278     1.271194198156    -5.142262261360     1.007825032230
         O           -1.604505981890    -5.577163831873     0.396878391143    15.994914619570
         H           -1.455561548134    -3.715475572938     0.219637198384     1.007825032230
         H           -1.191113274137    -6.154161468663    -1.215723177469     1.007825032230

  Running in c1 symmetry.

  Rotational constants: A =      0.02962  B =      0.02817  C =      0.02505 [cm^-1]
  Rotational constants: A =    888.01810  B =    844.39627  C =    750.83924 [MHz]
  Nuclear repulsion =  242.990485674911383

  Charge       = 0
  Multiplicity = 1
  Electrons    = 60
  Nalpha       = 30
  Nbeta        = 30

  ==> Algorithm <==

  SCF Algorithm Type is DF.
  DIIS enabled.
  MOM disabled.
  Fractional occupation disabled.
  Guess Type is SAD.
  Energy threshold   = 1.00e-08
  Density threshold  = 1.00e-08
  Integral threshold = 1.00e-12

  ==> Primary Basis <==

  Basis Set: AUG-CC-PVTZ
    Blend: AUG-CC-PVTZ
    Number of shells: 206
    Number of basis functions: 598
    Number of Cartesian functions: 685
    Spherical Harmonics?: true
    Max angular momentum: 3

   => Loading Basis Set <=

    Name: (AUG-CC-PVTZ AUX)
    Role: JKFIT
    Keyword: DF_BASIS_SCF
    atoms 1                                   entry F          line   348 file /home/kchung25/anaconda3/envs/p415env/share/psi4/basis/aug-cc-pvtz-jkfit.gbs 
    atoms 2, 5, 8, 11, 14, 17                 entry O          line   286 file /home/kchung25/anaconda3/envs/p415env/share/psi4/basis/aug-cc-pvtz-jkfit.gbs 
    atoms 3-4, 6-7, 9-10, 12-13, 15-16, 18-19 entry H          line    70 file /home/kchung25/anaconda3/envs/p415env/share/psi4/basis/aug-cc-pvtz-jkfit.gbs 

  ==> Integral Setup <==

  DFHelper Memory: AOs need 3.104 GiB; user supplied 41.910 GiB. 
  Using in-core AOs.

  ==> MemDFJK: Density-Fitted J/K Matrices <==

    J tasked:                   Yes
    K tasked:                   Yes
    wK tasked:                   No
    OpenMP threads:               6
    Memory [MiB]:             42915
    Algorithm:                 Core
    Schwarz Cutoff:           1E-12
    Mask sparsity (%):      11.9109
    Fitting Condition:        1E-10

   => Auxiliary Basis Set <=

  Basis Set: (AUG-CC-PVTZ AUX)
    Blend: AUG-CC-PVTZ-JKFIT
    Number of shells: 378
    Number of basis functions: 1280
    Number of Cartesian functions: 1577
    Spherical Harmonics?: true
    Max angular momentum: 4

  Minimum eigenvalue in the overlap matrix is 2.7702187204E-05.
  Reciprocal condition number of the overlap matrix is 1.8593195338E-06.
    Using symmetric orthogonalization.

  ==> Pre-Iterations <==

  SCF Guess: Superposition of Atomic Densities via on-the-fly atomic UHF (no occupation information).

   -------------------------
    Irrep   Nso     Nmo    
   -------------------------
     A        598     598 
   -------------------------
    Total     598     598
   -------------------------

  ==> Iterations <==

                           Total Energy        Delta E     RMS |[F,P]|

   @DF-RHF iter SAD:  -452.97690306574560   -4.52977e+02   0.00000e+00 
   @DF-RHF iter   1:  -455.81025038037274   -2.83335e+00   1.91924e-03 DIIS/ADIIS
   @DF-RHF iter   2:  -456.12645179160444   -3.16201e-01   1.32618e-03 DIIS/ADIIS
   @DF-RHF iter   3:  -456.32383680090891   -1.97385e-01   9.39750e-05 DIIS
   @DF-RHF iter   4:  -456.32652530094470   -2.68850e-03   2.37323e-05 DIIS
   @DF-RHF iter   5:  -456.32669556308701   -1.70262e-04   7.59549e-06 DIIS
   @DF-RHF iter   6:  -456.32671242059178   -1.68575e-05   3.22849e-06 DIIS
   @DF-RHF iter   7:  -456.32671497748618   -2.55689e-06   6.58817e-07 DIIS
   @DF-RHF iter   8:  -456.32671520074859   -2.23262e-07   1.35581e-07 DIIS
   @DF-RHF iter   9:  -456.32671520811891   -7.37032e-09   5.47718e-08 DIIS
   @DF-RHF iter  10:  -456.32671520876966   -6.50743e-10   1.49137e-08 DIIS
   @DF-RHF iter  11:  -456.32671520884185   -7.21911e-11   4.37487e-09 DIIS
  Energy and wave function converged.


  ==> Post-Iterations <==

    Orbital Energies [Eh]
    ---------------------

    Doubly Occupied:                                                      

       1A    -20.612416     2A    -20.602649     3A    -20.589007  
       4A    -20.588641     5A    -20.587397     6A    -20.578713  
       7A     -1.391174     8A     -1.383435     9A     -1.375280  
      10A     -1.369045    11A     -1.363793    12A     -1.362229  
      13A     -0.767700    14A     -0.745743    15A     -0.741327  
      16A     -0.740215    17A     -0.735554    18A     -0.720719  
      19A     -0.627119    20A     -0.613199    21A     -0.599887  
      22A     -0.597877    23A     -0.595469    24A     -0.592713  
      25A     -0.546581    26A     -0.544067    27A     -0.537669  
      28A     -0.530288    29A     -0.523571    30A     -0.519279  

    Virtual:                                                              

      31A      0.000399    32A      0.028337    33A      0.030373  
      34A      0.038278    35A      0.046931    36A      0.048897  
      37A      0.058227    38A      0.067009    39A      0.082150  
      40A      0.084419    41A      0.088968    42A      0.095609  
      43A      0.105491    44A      0.117790    45A      0.131778  
      46A      0.134081    47A      0.145864    48A      0.150074  
      49A      0.156820    50A      0.162093    51A      0.168579  
      52A      0.173257    53A      0.182551    54A      0.183477  
      55A      0.187283    56A      0.189921    57A      0.199869  
      58A      0.201532    59A      0.206362    60A      0.211192  
      61A      0.219030    62A      0.223064    63A      0.228599  
      64A      0.234297    65A      0.238747    66A      0.243227  
      67A      0.248206    68A      0.257383    69A      0.259901  
      70A      0.267336    71A      0.275064    72A      0.284159  
      73A      0.288860    74A      0.293117    75A      0.295881  
      76A      0.300967    77A      0.309401    78A      0.311628  
      79A      0.321092    80A      0.323695    81A      0.341605  
      82A      0.347845    83A      0.352372    84A      0.356651  
      85A      0.366178    86A      0.372453    87A      0.379903  
      88A      0.391055    89A      0.396792    90A      0.403555  
      91A      0.408659    92A      0.414086    93A      0.415547  
      94A      0.424588    95A      0.430546    96A      0.440296  
      97A      0.444670    98A      0.448752    99A      0.457095  
     100A      0.458866   101A      0.466447   102A      0.472940  
     103A      0.474757   104A      0.480451   105A      0.495587  
     106A      0.503226   107A      0.513800   108A      0.524531  
     109A      0.535410   110A      0.545530   111A      0.564052  
     112A      0.577397   113A      0.580983   114A      0.589580  
     115A      0.604797   116A      0.619201   117A      0.621765  
     118A      0.628039   119A      0.631554   120A      0.646493  
     121A      0.660418   122A      0.670349   123A      0.683560  
     124A      0.691541   125A      0.693689   126A      0.704008  
     127A      0.709203   128A      0.720634   129A      0.723047  
     130A      0.733131   131A      0.733906   132A      0.737477  
     133A      0.740317   134A      0.749144   135A      0.755396  
     136A      0.758979   137A      0.765177   138A      0.774844  
     139A      0.776547   140A      0.790376   141A      0.792792  
     142A      0.797148   143A      0.812786   144A      0.816872  
     145A      0.823097   146A      0.837418   147A      0.846363  
     148A      0.852112   149A      0.853593   150A      0.856910  
     151A      0.864431   152A      0.866730   153A      0.882606  
     154A      0.889987   155A      0.893532   156A      0.903754  
     157A      0.909652   158A      0.910554   159A      0.915893  
     160A      0.921108   161A      0.935919   162A      0.938847  
     163A      0.940519   164A      0.950800   165A      0.960223  
     166A      0.966514   167A      0.970394   168A      0.973962  
     169A      0.983203   170A      0.983266   171A      0.997215  
     172A      1.002270   173A      1.003062   174A      1.013812  
     175A      1.020093   176A      1.024271   177A      1.029616  
     178A      1.039004   179A      1.043624   180A      1.053905  
     181A      1.055226   182A      1.059529   183A      1.068995  
     184A      1.072638   185A      1.078004   186A      1.080697  
     187A      1.089722   188A      1.099003   189A      1.101198  
     190A      1.109141   191A      1.114923   192A      1.116137  
     193A      1.131911   194A      1.136978   195A      1.150300  
     196A      1.163550   197A      1.168050   198A      1.171772  
     199A      1.182279   200A      1.193013   201A      1.200483  
     202A      1.210591   203A      1.213568   204A      1.233482  
     205A      1.236445   206A      1.247695   207A      1.261367  
     208A      1.264047   209A      1.273427   210A      1.275706  
     211A      1.280992   212A      1.294562   213A      1.306600  
     214A      1.316661   215A      1.319434   216A      1.323690  
     217A      1.337638   218A      1.353424   219A      1.361152  
     220A      1.366841   221A      1.377996   222A      1.379862  
     223A      1.399967   224A      1.407695   225A      1.416566  
     226A      1.426312   227A      1.436393   228A      1.452960  
     229A      1.460608   230A      1.463503   231A      1.485480  
     232A      1.492818   233A      1.503714   234A      1.516925  
     235A      1.521776   236A      1.534301   237A      1.547671  
     238A      1.552285   239A      1.559331   240A      1.570719  
     241A      1.580368   242A      1.583547   243A      1.616909  
     244A      1.625855   245A      1.627336   246A      1.642637  
     247A      1.656360   248A      1.659286   249A      1.664796  
     250A      1.680466   251A      1.688105   252A      1.711618  
     253A      1.716451   254A      1.730652   255A      1.733969  
     256A      1.743621   257A      1.757607   258A      1.768188  
     259A      1.777850   260A      1.780622   261A      1.825650  
     262A      1.833495   263A      1.848231   264A      1.866489  
     265A      1.874256   266A      1.900599   267A      1.910277  
     268A      1.931087   269A      1.948899   270A      1.952477  
     271A      1.985180   272A      1.998165   273A      2.003652  
     274A      2.028347   275A      2.041851   276A      2.050763  
     277A      2.068136   278A      2.073715   279A      2.100662  
     280A      2.112929   281A      2.131292   282A      2.182673  
     283A      2.217580   284A      2.288169   285A      2.297393  
     286A      2.309308   287A      2.317697   288A      2.320568  
     289A      2.338917   290A      2.353273   291A      2.367910  
     292A      2.369453   293A      2.383148   294A      2.391072  
     295A      2.403800   296A      2.413813   297A      2.428563  
     298A      2.434980   299A      2.436059   300A      2.449564  
     301A      2.461888   302A      2.467403   303A      2.474417  
     304A      2.481317   305A      2.492663   306A      2.500922  
     307A      2.507920   308A      2.512147   309A      2.519771  
     310A      2.525238   311A      2.538740   312A      2.544260  
     313A      2.556831   314A      2.570272   315A      2.582271  
     316A      2.592736   317A      2.611383   318A      2.617232  
     319A      2.637830   320A      2.643353   321A      2.652622  
     322A      2.663994   323A      2.671881   324A      2.689295  
     325A      2.697272   326A      2.715799   327A      2.726642  
     328A      2.735045   329A      2.736570   330A      2.746521  
     331A      2.749549   332A      2.758452   333A      2.774348  
     334A      2.782786   335A      2.795663   336A      2.801189  
     337A      2.812025   338A      2.823925   339A      2.834149  
     340A      2.838857   341A      2.857817   342A      2.872211  
     343A      2.890230   344A      2.896686   345A      2.908409  
     346A      2.919304   347A      2.935983   348A      2.947124  
     349A      2.955217   350A      2.971990   351A      2.992040  
     352A      3.006793   353A      3.012210   354A      3.041582  
     355A      3.054269   356A      3.060348   357A      3.074542  
     358A      3.113656   359A      3.119868   360A      3.144098  
     361A      3.180817   362A      3.414306   363A      3.454094  
     364A      3.492430   365A      3.526224   366A      3.578249  
     367A      3.592212   368A      3.610038   369A      3.680719  
     370A      3.708124   371A      3.755576   372A      3.765513  
     373A      3.798896   374A      3.809769   375A      3.843084  
     376A      3.844849   377A      3.853921   378A      3.911266  
     379A      3.983064   380A      4.002628   381A      4.020181  
     382A      4.033152   383A      4.054801   384A      4.070725  
     385A      4.085076   386A      4.090208   387A      4.092349  
     388A      4.102693   389A      4.124915   390A      4.135778  
     391A      4.153965   392A      4.175771   393A      4.188177  
     394A      4.196473   395A      4.215562   396A      4.220656  
     397A      4.226809   398A      4.241304   399A      4.255755  
     400A      4.260383   401A      4.275154   402A      4.282876  
     403A      4.294019   404A      4.300448   405A      4.309412  
     406A      4.318759   407A      4.324621   408A      4.327801  
     409A      4.334096   410A      4.344249   411A      4.352097  
     412A      4.368994   413A      4.372832   414A      4.378506  
     415A      4.379999   416A      4.387602   417A      4.395737  
     418A      4.409516   419A      4.416720   420A      4.426254  
     421A      4.433844   422A      4.442500   423A      4.448672  
     424A      4.457338   425A      4.467498   426A      4.475189  
     427A      4.483399   428A      4.497646   429A      4.500617  
     430A      4.503216   431A      4.525550   432A      4.530142  
     433A      4.536239   434A      4.557390   435A      4.575490  
     436A      4.590131   437A      4.618232   438A      4.633692  
     439A      4.651447   440A      4.663612   441A      4.694727  
     442A      4.726649   443A      4.752725   444A      4.757174  
     445A      4.786317   446A      4.795373   447A      4.828405  
     448A      4.873759   449A      4.885164   450A      4.919918  
     451A      4.946317   452A      4.988166   453A      5.011497  
     454A      5.042944   455A      5.067823   456A      5.078090  
     457A      5.123933   458A      5.139320   459A      5.152407  
     460A      5.159994   461A      5.172248   462A      5.194487  
     463A      5.209000   464A      5.225717   465A      5.232845  
     466A      5.243618   467A      5.258503   468A      5.285989  
     469A      5.294940   470A      5.324925   471A      5.336698  
     472A      5.367945   473A      5.376072   474A      5.402713  
     475A      5.428666   476A      5.441634   477A      5.457101  
     478A      5.482377   479A      5.514356   480A      5.537647  
     481A      5.562288   482A      5.571917   483A      5.582513  
     484A      5.598324   485A      5.603476   486A      5.684833  
     487A      5.703219   488A      5.739208   489A      5.821190  
     490A      5.831732   491A      5.902885   492A      6.199234  
     493A      6.213095   494A      6.227062   495A      6.262014  
     496A      6.279375   497A      6.312455   498A      6.532584  
     499A      6.562462   500A      6.563790   501A      6.573473  
     502A      6.601784   503A      6.608259   504A      6.774627  
     505A      6.796402   506A      6.803486   507A      6.807377  
     508A      6.827438   509A      6.855184   510A      6.876250  
     511A      6.916157   512A      6.918567   513A      6.981075  
     514A      7.005767   515A      7.019444   516A      7.103749  
     517A      7.137791   518A      7.146844   519A      7.159001  
     520A      7.173935   521A      7.188978   522A      7.232726  
     523A      7.253252   524A      7.268279   525A      7.282545  
     526A      7.289615   527A      7.300715   528A      7.311825  
     529A      7.319139   530A      7.321409   531A      7.335105  
     532A      7.345984   533A      7.354049   534A      7.358350  
     535A      7.363606   536A      7.369488   537A      7.374617  
     538A      7.393027   539A      7.397939   540A      7.410494  
     541A      7.417271   542A      7.428351   543A      7.437275  
     544A      7.453438   545A      7.460297   546A      7.501346  
     547A      7.526517   548A      7.532601   549A      7.545990  
     550A      7.575662   551A      7.587785   552A      7.673460  
     553A      7.721880   554A      7.775539   555A      7.786486  
     556A      7.829108   557A      7.858622   558A      7.894490  
     559A      7.912421   560A      7.938290   561A      7.946871  
     562A      7.974252   563A      7.990646   564A      8.023361  
     565A      8.033839   566A      8.037740   567A      8.075127  
     568A      8.098780   569A      8.161061   570A      8.649298  
     571A      8.729786   572A      8.811624   573A      8.832924  
     574A      8.876367   575A      8.890206   576A     10.254547  
     577A     10.352707   578A     10.369795   579A     10.456251  
     580A     10.507624   581A     10.578743   582A     10.694128  
     583A     11.583980   584A     13.193130   585A     13.229158  
     586A     13.255263   587A     13.380608   588A     13.497510  
     589A     14.935702   590A     15.026320   591A     15.145022  
     592A     15.900967   593A     16.573584   594A     16.795205  
     595A     17.024184   596A     17.488790   597A     17.748977  
     598A     73.940105  

    Final Occupation by Irrep:
              A 
    DOCC [    30 ]
    NA   [    30 ]
    NB   [    30 ]

  @DF-RHF Final Energy:  -456.32671520884185

   => Energetics <=

    Nuclear Repulsion Energy =            242.9904856749113833
    One-Electron Energy =               -1112.4688868341934267
    Two-Electron Energy =                 413.1516859504401964
    Total Energy =                       -456.3267152088418470

Computation Completed


Properties will be evaluated at   0.000000,   0.000000,   0.000000 [a0]

Properties computed using the SCF density matrix


 Multipole Moments:

 ------------------------------------------------------------------------------------
     Multipole            Electronic (a.u.)      Nuclear  (a.u.)        Total (a.u.)
 ------------------------------------------------------------------------------------

 L = 1.  Multiply by 2.5417464519 to convert [e a0] to [Debye]
 Dipole X            :          4.8264653           -3.8332301            0.9932353
 Dipole Y            :         -0.0264750            1.5166318            1.4901568
 Dipole Z            :         41.0973630          -41.0856884            0.0116745
 Magnitude           :                                                    1.7908712

 ------------------------------------------------------------------------------------

*** tstop() called on moses-razer at Sat Jan  6 22:39:23 2024
Module time:
	user time   =      78.19 seconds =       1.30 minutes
	system time =       2.61 seconds =       0.04 minutes
	total time  =         15 seconds =       0.25 minutes
Total time:
	user time   =      78.19 seconds =       1.30 minutes
	system time =       2.61 seconds =       0.04 minutes
	total time  =         15 seconds =       0.25 minutes

*** tstart() called on moses-razer
*** at Sat Jan  6 22:39:23 2024


  //>>>>>>>>>>>>>>>>>>>>>>>>>>>>>>>>>>>//
  //               DFMP2               //
  //<<<<<<<<<<<<<<<<<<<<<<<<<<<<<<<<<<<//

   => Loading Basis Set <=

    Name: (AUG-CC-PVTZ AUX)
    Role: RIFIT
    Keyword: DF_BASIS_MP2
    atoms 1                                   entry F          line   322 file /home/kchung25/anaconda3/envs/p415env/share/psi4/basis/aug-cc-pvtz-ri.gbs 
    atoms 2, 5, 8, 11, 14, 17                 entry O          line   264 file /home/kchung25/anaconda3/envs/p415env/share/psi4/basis/aug-cc-pvtz-ri.gbs 
    atoms 3-4, 6-7, 9-10, 12-13, 15-16, 18-19 entry H          line    30 file /home/kchung25/anaconda3/envs/p415env/share/psi4/basis/aug-cc-pvtz-ri.gbs 

	 --------------------------------------------------------
	                          DF-MP2                         
	      2nd-Order Density-Fitted Moller-Plesset Theory     
	              RMP2 Wavefunction,   6 Threads             
	                                                         
	        Rob Parrish, Justin Turney, Andy Simmonett,      
	           Ed Hohenstein, and C. David Sherrill          
	 --------------------------------------------------------

   => Auxiliary Basis Set <=

  Basis Set: (AUG-CC-PVTZ AUX)
    Blend: AUG-CC-PVTZ-RI
    Number of shells: 364
    Number of basis functions: 1294
    Number of Cartesian functions: 1612
    Spherical Harmonics?: true
    Max angular momentum: 4

	 --------------------------------------------------------
	                 NBF =   598, NAUX =  1294
	 --------------------------------------------------------
	   CLASS    FOCC     OCC    AOCC    AVIR     VIR    FVIR
	   PAIRS       0      30      30     568     568       0
	 --------------------------------------------------------

	-----------------------------------------------------------
	 ==================> DF-MP2 Energies <==================== 
	-----------------------------------------------------------
	 Reference Energy          =    -456.3267152088418470 [Eh]
	 Singles Energy            =      -0.0000000000000000 [Eh]
	 Same-Spin Energy          =      -0.4140534324855281 [Eh]
	 Opposite-Spin Energy      =      -1.3028633904527560 [Eh]
	 Correlation Energy        =      -1.7169168229382841 [Eh]
	 Total Energy              =    -458.0436320317801346 [Eh]
	-----------------------------------------------------------
	 ================> DF-SCS-MP2 Energies <================== 
	-----------------------------------------------------------
	 SCS Same-Spin Scale       =       0.3333333333333333 [-]
	 SCS Opposite-Spin Scale   =       1.2000000000000000 [-]
	 SCS Same-Spin Energy      =      -0.1380178108285093 [Eh]
	 SCS Opposite-Spin Energy  =      -1.5634360685433071 [Eh]
	 SCS Correlation Energy    =      -1.7014538793718164 [Eh]
	 SCS Total Energy          =    -458.0281690882136445 [Eh]
	-----------------------------------------------------------


*** tstop() called on moses-razer at Sat Jan  6 22:39:29 2024
Module time:
	user time   =      31.59 seconds =       0.53 minutes
	system time =       1.60 seconds =       0.03 minutes
	total time  =          6 seconds =       0.10 minutes
Total time:
	user time   =     109.78 seconds =       1.83 minutes
	system time =       4.21 seconds =       0.07 minutes
	total time  =         21 seconds =       0.35 minutes

    Psi4 stopped on: Saturday, 06 January 2024 10:39PM
    Psi4 wall time for execution: 0:00:21.15


    -----------------------------------------------------------------------
          Psi4: An Open-Source Ab Initio Electronic Structure Package
                               Psi4 1.9 release

                         Git: Rev {} zzzzzzz 


    D. G. A. Smith, L. A. Burns, A. C. Simmonett, R. M. Parrish,
    M. C. Schieber, R. Galvelis, P. Kraus, H. Kruse, R. Di Remigio,
    A. Alenaizan, A. M. James, S. Lehtola, J. P. Misiewicz, M. Scheurer,
    R. A. Shaw, J. B. Schriber, Y. Xie, Z. L. Glick, D. A. Sirianni,
    J. S. O'Brien, J. M. Waldrop, A. Kumar, E. G. Hohenstein,
    B. P. Pritchard, B. R. Brooks, H. F. Schaefer III, A. Yu. Sokolov,
    K. Patkowski, A. E. DePrince III, U. Bozkaya, R. A. King,
    F. A. Evangelista, J. M. Turney, T. D. Crawford, C. D. Sherrill,
    J. Chem. Phys. 152(18) 184108 (2020). https://doi.org/10.1063/5.0006002

                            Additional Code Authors
    E. T. Seidl, C. L. Janssen, E. F. Valeev, M. L. Leininger,
    J. F. Gonthier, R. M. Richard, H. R. McAlexander, M. Saitow, X. Wang,
    P. Verma, M. H. Lechner, A. Jiang, S. Behnle, A. G. Heide,
    M. F. Herbst, and D. L. Poole

             Previous Authors, Complete List of Code Contributors,
                       and Citations for Specific Modules
    https://github.com/psi4/psi4/blob/master/codemeta.json
    https://github.com/psi4/psi4/graphs/contributors
    http://psicode.org/psi4manual/master/introduction.html#citing-psifour

    -----------------------------------------------------------------------


    Psi4 started on: Saturday, 06 January 2024 10:39PM

    Process ID: 558437
    Host:       moses-razer
    PSIDATADIR: /home/kchung25/anaconda3/envs/psi4_19/share/psi4
    Memory:     55.9 GiB
    Threads:    6
    
  ==> Input QCSchema <==

--------------------------------------------------------------------------
{'driver': 'energy',
 'extras': {'psiapi': True, 'wfn_qcvars_only': True},
 'id': None,
 'keywords': {'SCF_TYPE': 'DF', 'function_kwargs': {}},
 'model': {'basis': 'aug-cc-pvtz', 'method': 'mp2'},
 'molecule': {'atom_labels': ['', '', '', '', '', '', '', '', '', '', '', '', '', '', '', '', '', '', ''],
              'atomic_numbers': [9, 8, 1, 1, 8, 1, 1, 8, 1, 1, 8, 1, 1, 8, 1, 1, 8, 1, 1],
              'extras': {},
              'fix_com': True,
              'fix_orientation': True,
              'fix_symmetry': 'c1',
              'fragment_charges': [-1.0, 0.0],
              'fragment_multiplicities': [1, 1],
              'fragments': [[0], [1, 2, 3, 4, 5, 6, 7, 8, 9, 10, 11, 12, 13, 14, 15, 16, 17, 18]],
              'geometry': [0.0, 0.0, 0.0, 5.060081851615918, -0.8157626430160116, 1.8563611209867448,
                           5.5428728616001335, 0.5991244399935263, 0.9220937526432728, 3.227661670912598,
                           -0.7645737417296099, 1.5820976094945483, 2.979825979284929, -0.07646209848827464,
                           -4.953144139902384, 4.543115144652796, -0.7079197524883842, -4.6176780683849845,
                           1.937700602604826, -0.019554885946237603, -3.431606583550383, -4.630991188938834,
                           1.0815129383130206, 2.4027792096151264, -2.979504725843601, 1.0571071254027327,
                           1.7023937951889427, -5.290004829300371, 2.846439660719488, 2.3336832635638864,
                           0.6026998018228925, 5.513977059415758, 0.539715230061383, 1.7570012110362976,
                           6.040262005903513, 1.8938306106023226, 0.4607530239091277, 3.630693010319616,
                           0.6628837994664734, -3.084376966902009, -0.3987246535670999, -4.376386498329777,
                           -2.002854579958361, -0.38551735767627515, -2.924664873682815, -2.965163594277502,
                           1.27119419815585, -5.142262261359828, -1.6045059818902274, -5.577163831872692,
                           0.39687839114252765, -1.4555615481338922, -3.715475572938282, 0.21963719838358697,
                           -1.1911132741373238, -6.154161468663232, -1.215723177469161],
              'mass_numbers': [19, 16, 1, 1, 16, 1, 1, 16, 1, 1, 16, 1, 1, 16, 1, 1, 16, 1, 1],
              'masses': [18.99840316273, 15.99491461957, 1.00782503223, 1.00782503223, 15.99491461957, 1.00782503223,
                         1.00782503223, 15.99491461957, 1.00782503223, 1.00782503223, 15.99491461957, 1.00782503223,
                         1.00782503223, 15.99491461957, 1.00782503223, 1.00782503223, 15.99491461957, 1.00782503223,
                         1.00782503223],
              'molecular_charge': -1.0,
              'molecular_multiplicity': 1,
              'name': 'dimer',
              'provenance': {'creator': 'QCElemental',
                             'routine': 'qcelemental.molparse.from_string',
                             'version': '0.27.1'},
              'real': [True, False, False, False, False, False, False, False, False, False, False, False, False, False,
                       False, False, False, False, False],
              'schema_name': 'qcschema_molecule',
              'schema_version': 2,
              'symbols': ['F', 'O', 'H', 'H', 'O', 'H', 'H', 'O', 'H', 'H', 'O', 'H', 'H', 'O', 'H', 'H', 'O', 'H',
                          'H'],
              'validated': True},
 'protocols': {'stdout': True},
 'provenance': {'creator': 'QCElemental', 'routine': 'qcelemental.models.results', 'version': '0.27.1'},
 'schema_name': 'qcschema_input',
 'schema_version': 1}
--------------------------------------------------------------------------

Scratch directory: /scratch/
   => Libint2 <=

    Primary   basis highest AM E, G, H:  5, 4, 3
    Auxiliary basis highest AM E, G, H:  6, 5, 4
    Onebody   basis highest AM E, G, H:  6, 5, 4
    Solid Harmonics ordering:            gaussian

*** tstart() called on moses-razer
*** at Sat Jan  6 22:39:29 2024

   => Loading Basis Set <=

    Name: AUG-CC-PVTZ
    Role: ORBITAL
    Keyword: BASIS
    atoms 1                                   entry F          line   377 file /home/kchung25/anaconda3/envs/p415env/share/psi4/basis/aug-cc-pvtz.gbs 
    atoms 2, 5, 8, 11, 14, 17                 entry O          line   331 file /home/kchung25/anaconda3/envs/p415env/share/psi4/basis/aug-cc-pvtz.gbs 
    atoms 3-4, 6-7, 9-10, 12-13, 15-16, 18-19 entry H          line    40 file /home/kchung25/anaconda3/envs/p415env/share/psi4/basis/aug-cc-pvtz.gbs 


         ---------------------------------------------------------
                                   SCF
               by Justin Turney, Rob Parrish, Andy Simmonett
                          and Daniel G. A. Smith
                              RHF Reference
                        6 Threads,  57220 MiB Core
         ---------------------------------------------------------

  ==> Geometry <==

    Molecular point group: c1
    Full point group: C1

    Geometry (in Bohr), charge = -1, multiplicity = 1:

       Center              X                  Y                   Z               Mass       
    ------------   -----------------  -----------------  -----------------  -----------------
         F            0.000000000000     0.000000000000     0.000000000000    18.998403162730
      Gh(O)           5.060081851616    -0.815762643016     1.856361120987    15.994914619570
      Gh(H)           5.542872861600     0.599124439994     0.922093752643     1.007825032230
      Gh(H)           3.227661670913    -0.764573741730     1.582097609495     1.007825032230
      Gh(O)           2.979825979285    -0.076462098488    -4.953144139902    15.994914619570
      Gh(H)           4.543115144653    -0.707919752488    -4.617678068385     1.007825032230
      Gh(H)           1.937700602605    -0.019554885946    -3.431606583550     1.007825032230
      Gh(O)          -4.630991188939     1.081512938313     2.402779209615    15.994914619570
      Gh(H)          -2.979504725844     1.057107125403     1.702393795189     1.007825032230
      Gh(H)          -5.290004829300     2.846439660719     2.333683263564     1.007825032230
      Gh(O)           0.602699801823     5.513977059416     0.539715230061    15.994914619570
      Gh(H)           1.757001211036     6.040262005904     1.893830610602     1.007825032230
      Gh(H)           0.460753023909     3.630693010320     0.662883799466     1.007825032230
      Gh(O)          -3.084376966902    -0.398724653567    -4.376386498330    15.994914619570
      Gh(H)          -2.002854579958    -0.385517357676    -2.924664873683     1.007825032230
      Gh(H)          -2.965163594278     1.271194198156    -5.142262261360     1.007825032230
      Gh(O)          -1.604505981890    -5.577163831873     0.396878391143    15.994914619570
      Gh(H)          -1.455561548134    -3.715475572938     0.219637198384     1.007825032230
      Gh(H)          -1.191113274137    -6.154161468663    -1.215723177469     1.007825032230

  Running in c1 symmetry.

  Rotational constants: A =      0.02962  B =      0.02817  C =      0.02505 [cm^-1]
  Rotational constants: A =    888.01810  B =    844.39627  C =    750.83924 [MHz]
  Nuclear repulsion =    0.000000000000000

  Charge       = -1
  Multiplicity = 1
  Electrons    = 10
  Nalpha       = 5
  Nbeta        = 5

  ==> Algorithm <==

  SCF Algorithm Type is DF.
  DIIS enabled.
  MOM disabled.
  Fractional occupation disabled.
  Guess Type is SAD.
  Energy threshold   = 1.00e-08
  Density threshold  = 1.00e-08
  Integral threshold = 1.00e-12

  ==> Primary Basis <==

  Basis Set: AUG-CC-PVTZ
    Blend: AUG-CC-PVTZ
    Number of shells: 206
    Number of basis functions: 598
    Number of Cartesian functions: 685
    Spherical Harmonics?: true
    Max angular momentum: 3

   => Loading Basis Set <=

    Name: (AUG-CC-PVTZ AUX)
    Role: JKFIT
    Keyword: DF_BASIS_SCF
    atoms 1                                   entry F          line   348 file /home/kchung25/anaconda3/envs/p415env/share/psi4/basis/aug-cc-pvtz-jkfit.gbs 
    atoms 2, 5, 8, 11, 14, 17                 entry O          line   286 file /home/kchung25/anaconda3/envs/p415env/share/psi4/basis/aug-cc-pvtz-jkfit.gbs 
    atoms 3-4, 6-7, 9-10, 12-13, 15-16, 18-19 entry H          line    70 file /home/kchung25/anaconda3/envs/p415env/share/psi4/basis/aug-cc-pvtz-jkfit.gbs 

  ==> Integral Setup <==

  DFHelper Memory: AOs need 3.104 GiB; user supplied 41.910 GiB. 
  Using in-core AOs.

  ==> MemDFJK: Density-Fitted J/K Matrices <==

    J tasked:                   Yes
    K tasked:                   Yes
    wK tasked:                   No
    OpenMP threads:               6
    Memory [MiB]:             42915
    Algorithm:                 Core
    Schwarz Cutoff:           1E-12
    Mask sparsity (%):      11.9109
    Fitting Condition:        1E-10

   => Auxiliary Basis Set <=

  Basis Set: (AUG-CC-PVTZ AUX)
    Blend: AUG-CC-PVTZ-JKFIT
    Number of shells: 378
    Number of basis functions: 1280
    Number of Cartesian functions: 1577
    Spherical Harmonics?: true
    Max angular momentum: 4

  Minimum eigenvalue in the overlap matrix is 2.7702187204E-05.
  Reciprocal condition number of the overlap matrix is 1.8593195338E-06.
    Using symmetric orthogonalization.

  ==> Pre-Iterations <==

  SCF Guess: Superposition of Atomic Densities via on-the-fly atomic UHF (no occupation information).

   -------------------------
    Irrep   Nso     Nmo    
   -------------------------
     A        598     598 
   -------------------------
    Total     598     598
   -------------------------

  ==> Iterations <==

                           Total Energy        Delta E     RMS |[F,P]|

   @DF-RHF iter SAD:   -98.82535135967062   -9.88254e+01   0.00000e+00 
   @DF-RHF iter   1:   -99.33803949412737   -5.12688e-01   9.12903e-04 DIIS/ADIIS
   @DF-RHF iter   2:   -99.37298112538544   -3.49416e-02   8.92609e-04 DIIS/ADIIS
   @DF-RHF iter   3:   -99.45104832716515   -7.80672e-02   3.18428e-05 DIIS
   @DF-RHF iter   4:   -99.45112674188374   -7.84147e-05   1.11059e-05 DIIS
   @DF-RHF iter   5:   -99.45113792803153   -1.11861e-05   6.98607e-07 DIIS
   @DF-RHF iter   6:   -99.45113803042339   -1.02392e-07   6.76089e-08 DIIS
   @DF-RHF iter   7:   -99.45113803155813   -1.13474e-09   8.30887e-09 DIIS
  Energy and wave function converged.


  ==> Post-Iterations <==

    Orbital Energies [Eh]
    ---------------------

    Doubly Occupied:                                                      

       1A    -25.833509     2A     -1.075870     3A     -0.180910  
       4A     -0.180899     5A     -0.180877  

    Virtual:                                                              

       6A      0.120498     7A      0.126856     8A      0.132821  
       9A      0.137145    10A      0.141461    11A      0.150468  
      12A      0.167730    13A      0.170977    14A      0.173834  
      15A      0.183811    16A      0.189861    17A      0.202422  
      18A      0.248890    19A      0.252707    20A      0.258830  
      21A      0.263159    22A      0.265004    23A      0.267532  
      24A      0.270615    25A      0.279871    26A      0.282449  
      27A      0.289202    28A      0.295417    29A      0.298202  
      30A      0.309489    31A      0.312624    32A      0.316247  
      33A      0.316631    34A      0.325025    35A      0.328673  
      36A      0.335136    37A      0.343694    38A      0.348553  
      39A      0.354175    40A      0.363645    41A      0.366463  
      42A      0.398076    43A      0.407639    44A      0.419117  
      45A      0.428105    46A      0.442495    47A      0.453230  
      48A      0.457019    49A      0.458557    50A      0.466917  
      51A      0.471844    52A      0.478006    53A      0.481855  
      54A      0.490057    55A      0.494172    56A      0.499878  
      57A      0.500647    58A      0.508673    59A      0.518819  
      60A      0.520339    61A      0.521643    62A      0.528190  
      63A      0.531516    64A      0.540156    65A      0.544051  
      66A      0.548677    67A      0.559069    68A      0.563788  
      69A      0.570454    70A      0.576949    71A      0.586122  
      72A      0.588341    73A      0.597044    74A      0.602656  
      75A      0.612773    76A      0.631837    77A      0.640288  
      78A      0.655268    79A      0.664311    80A      0.682276  
      81A      0.690023    82A      0.705127    83A      0.709724  
      84A      0.726532    85A      0.739550    86A      0.747871  
      87A      0.778337    88A      0.791065    89A      0.794047  
      90A      0.811912    91A      0.830658    92A      0.836383  
      93A      0.850790    94A      0.856940    95A      0.859285  
      96A      0.870997    97A      0.881557    98A      0.890009  
      99A      0.899914   100A      0.910750   101A      0.916417  
     102A      0.925828   103A      0.931464   104A      0.937995  
     105A      0.941641   106A      0.950292   107A      0.960322  
     108A      0.961342   109A      0.966571   110A      0.971153  
     111A      0.972234   112A      0.979836   113A      0.988121  
     114A      0.994347   115A      0.998444   116A      1.004467  
     117A      1.009479   118A      1.013443   119A      1.022172  
     120A      1.029150   121A      1.035661   122A      1.041323  
     123A      1.046220   124A      1.046902   125A      1.051988  
     126A      1.058228   127A      1.060518   128A      1.073034  
     129A      1.077268   130A      1.081617   131A      1.082798  
     132A      1.090716   133A      1.102822   134A      1.108848  
     135A      1.121049   136A      1.126927   137A      1.134068  
     138A      1.138373   139A      1.142439   140A      1.148195  
     141A      1.154747   142A      1.164404   143A      1.169016  
     144A      1.175365   145A      1.183108   146A      1.187161  
     147A      1.193158   148A      1.198921   149A      1.212157  
     150A      1.218494   151A      1.221903   152A      1.227207  
     153A      1.231741   154A      1.243271   155A      1.249890  
     156A      1.258536   157A      1.266464   158A      1.272866  
     159A      1.282498   160A      1.288262   161A      1.290203  
     162A      1.304018   163A      1.319559   164A      1.322025  
     165A      1.326333   166A      1.337765   167A      1.341365  
     168A      1.346350   169A      1.355003   170A      1.363191  
     171A      1.379240   172A      1.384856   173A      1.392620  
     174A      1.407558   175A      1.412209   176A      1.431536  
     177A      1.440479   178A      1.451650   179A      1.456438  
     180A      1.464075   181A      1.474828   182A      1.488767  
     183A      1.499260   184A      1.518532   185A      1.525952  
     186A      1.534146   187A      1.545995   188A      1.554355  
     189A      1.566891   190A      1.582013   191A      1.596691  
     192A      1.613697   193A      1.616426   194A      1.626612  
     195A      1.630544   196A      1.642831   197A      1.649257  
     198A      1.656857   199A      1.667499   200A      1.683425  
     201A      1.694352   202A      1.705824   203A      1.715812  
     204A      1.726719   205A      1.752385   206A      1.757179  
     207A      1.767560   208A      1.782064   209A      1.804552  
     210A      1.817421   211A      1.818382   212A      1.845375  
     213A      1.859982   214A      1.874464   215A      1.888600  
     216A      1.892543   217A      1.912300   218A      1.920484  
     219A      1.924872   220A      1.933216   221A      1.936794  
     222A      1.939819   223A      1.962020   224A      1.964463  
     225A      1.974041   226A      1.980315   227A      1.987363  
     228A      2.001303   229A      2.003209   230A      2.018182  
     231A      2.033377   232A      2.043420   233A      2.051835  
     234A      2.059679   235A      2.070107   236A      2.079493  
     237A      2.086637   238A      2.097519   239A      2.114120  
     240A      2.130022   241A      2.148910   242A      2.158450  
     243A      2.170481   244A      2.171134   245A      2.195946  
     246A      2.200538   247A      2.217049   248A      2.228338  
     249A      2.238929   250A      2.278184   251A      2.284382  
     252A      2.308034   253A      2.355900   254A      2.377909  
     255A      2.391247   256A      2.421331   257A      2.429484  
     258A      2.475611   259A      2.493928   260A      2.530402  
     261A      2.568817   262A      2.592624   263A      2.604708  
     264A      2.639050   265A      2.651284   266A      2.663321  
     267A      2.669742   268A      2.673437   269A      2.679627  
     270A      2.691743   271A      2.700880   272A      2.704887  
     273A      2.709047   274A      2.720856   275A      2.728565  
     276A      2.739760   277A      2.745775   278A      2.766379  
     279A      2.779591   280A      2.783809   281A      2.784777  
     282A      2.820687   283A      2.826698   284A      2.833433  
     285A      2.841824   286A      2.851108   287A      2.856750  
     288A      2.861050   289A      2.878749   290A      2.883961  
     291A      2.890955   292A      2.899051   293A      2.919223  
     294A      2.927414   295A      2.940036   296A      2.968423  
     297A      2.972298   298A      2.975486   299A      2.985616  
     300A      3.004133   301A      3.019813   302A      3.032652  
     303A      3.053065   304A      3.071351   305A      3.082450  
     306A      3.104835   307A      3.133173   308A      3.142095  
     309A      3.180735   310A      3.182717   311A      3.198114  
     312A      3.202592   313A      3.214038   314A      3.222245  
     315A      3.244311   316A      3.291152   317A      3.297164  
     318A      3.351239   319A      3.363747   320A      3.375921  
     321A      3.380892   322A      3.389241   323A      3.394670  
     324A      3.407966   325A      3.417130   326A      3.422188  
     327A      3.431935   328A      3.447730   329A      3.457000  
     330A      3.474757   331A      3.487780   332A      3.498279  
     333A      3.507818   334A      3.531984   335A      3.568612  
     336A      3.583441   337A      3.606972   338A      3.628490  
     339A      3.642893   340A      3.649137   341A      3.655488  
     342A      3.679593   343A      3.707878   344A      3.712491  
     345A      3.737089   346A      3.770483   347A      3.777638  
     348A      3.794701   349A      3.800294   350A      3.819690  
     351A      3.823724   352A      3.847564   353A      3.880479  
     354A      3.906164   355A      3.918596   356A      3.928977  
     357A      3.934258   358A      3.941247   359A      3.958715  
     360A      3.984044   361A      3.996321   362A      4.011845  
     363A      4.017187   364A      4.051128   365A      4.063192  
     366A      4.112291   367A      4.163637   368A      4.210837  
     369A      4.244383   370A      4.276626   371A      4.416619  
     372A      4.483625   373A      4.577574   374A      4.601935  
     375A      4.608215   376A      4.626967   377A      4.637670  
     378A      4.654479   379A      4.667239   380A      4.676286  
     381A      4.681450   382A      4.709221   383A      4.723028  
     384A      4.731714   385A      4.787345   386A      4.798708  
     387A      4.816780   388A      4.820581   389A      4.837108  
     390A      4.849101   391A      4.863670   392A      4.879126  
     393A      4.882327   394A      4.901694   395A      4.906473  
     396A      4.915490   397A      4.922426   398A      4.927931  
     399A      4.945708   400A      4.959471   401A      4.972873  
     402A      4.980519   403A      5.041532   404A      5.052652  
     405A      5.064670   406A      5.073064   407A      5.105033  
     408A      5.119586   409A      5.132794   410A      5.152043  
     411A      5.175685   412A      5.191436   413A      5.205794  
     414A      5.224464   415A      5.236196   416A      5.255691  
     417A      5.272617   418A      5.283001   419A      5.322136  
     420A      5.330441   421A      5.350521   422A      5.360818  
     423A      5.373719   424A      5.427772   425A      5.451445  
     426A      5.475345   427A      5.503908   428A      5.516503  
     429A      5.528924   430A      5.537270   431A      5.551052  
     432A      5.633859   433A      5.658111   434A      5.705811  
     435A      5.715019   436A      5.747140   437A      5.774852  
     438A      5.782627   439A      5.784832   440A      5.791349  
     441A      5.811871   442A      5.823917   443A      5.846488  
     444A      5.862066   445A      5.892353   446A      5.905114  
     447A      5.931498   448A      5.969885   449A      6.007408  
     450A      6.014352   451A      6.025281   452A      6.046081  
     453A      6.097254   454A      6.104307   455A      6.125279  
     456A      6.166838   457A      6.286092   458A      6.309536  
     459A      6.330296   460A      6.390337   461A      6.434284  
     462A      6.449905   463A      6.570425   464A      6.614204  
     465A      6.637212   466A      6.658735   467A      6.703866  
     468A      6.718210   469A      6.746167   470A      6.842762  
     471A      6.863657   472A      6.877511   473A      6.918517  
     474A      6.949295   475A      6.955235   476A      6.985464  
     477A      7.114475   478A      7.191894   479A      7.314746  
     480A      7.358160   481A      7.367673   482A      7.373360  
     483A      7.449753   484A      7.926428   485A      7.931622  
     486A      7.936571   487A      7.945064   488A      7.955960  
     489A      7.988441   490A      8.000347   491A      8.020746  
     492A      8.025116   493A      8.066981   494A      8.085572  
     495A      8.147038   496A      8.235368   497A      8.257802  
     498A      8.270178   499A      8.279892   500A      8.324031  
     501A      8.354890   502A      8.376171   503A      8.418134  
     504A      8.423888   505A      8.444637   506A      8.454127  
     507A      8.475003   508A      8.497827   509A      8.517427  
     510A      8.524886   511A      8.529238   512A      8.538853  
     513A      8.619931   514A      8.877176   515A      8.960260  
     516A      8.990931   517A      9.028969   518A      9.034322  
     519A      9.072210   520A      9.102142   521A      9.152675  
     522A      9.176024   523A      9.279404   524A      9.334671  
     525A      9.443283   526A      9.500686   527A      9.592829  
     528A      9.604238   529A      9.711862   530A      9.753688  
     531A      9.788979   532A      9.872458   533A      9.886138  
     534A      9.908846   535A      9.963024   536A      9.990073  
     537A      9.992416   538A     10.028240   539A     10.057132  
     540A     10.071436   541A     10.084232   542A     10.101526  
     543A     10.104573   544A     10.133179   545A     10.165089  
     546A     10.191890   547A     10.212545   548A     10.266260  
     549A     10.290031   550A     10.318146   551A     10.334778  
     552A     10.343487   553A     10.358999   554A     10.388613  
     555A     10.497633   556A     10.531510   557A     10.546025  
     558A     10.571931   559A     10.583789   560A     10.596413  
     561A     10.646817   562A     11.267684   563A     11.278030  
     564A     11.388340   565A     11.408452   566A     11.474179  
     567A     11.531692   568A     11.923562   569A     11.975943  
     570A     11.987463   571A     12.007063   572A     12.027833  
     573A     12.071020   574A     12.188654   575A     12.399828  
     576A     12.486426   577A     12.566969   578A     12.610622  
     579A     12.705307   580A     13.671364   581A     13.776289  
     582A     13.841737   583A     13.896735   584A     13.927544  
     585A     14.025669   586A     14.128871   587A     14.157283  
     588A     14.195362   589A     14.239414   590A     14.269117  
     591A     14.303197   592A     15.275577   593A     65.136862  
     594A     66.536815   595A     66.899050   596A     67.337243  
     597A     68.224670   598A     68.852001  

    Final Occupation by Irrep:
              A 
    DOCC [     5 ]
    NA   [     5 ]
    NB   [     5 ]

  @DF-RHF Final Energy:   -99.45113803155813

   => Energetics <=

    Nuclear Repulsion Energy =              0.0000000000000000
    One-Electron Energy =                -143.9981389201281274
    Two-Electron Energy =                  44.5470008885699968
    Total Energy =                        -99.4511380315581306

Computation Completed


Properties will be evaluated at   0.000000,   0.000000,   0.000000 [a0]

Properties computed using the SCF density matrix


 Multipole Moments:

 ------------------------------------------------------------------------------------
     Multipole            Electronic (a.u.)      Nuclear  (a.u.)        Total (a.u.)
 ------------------------------------------------------------------------------------

 L = 1.  Multiply by 2.5417464519 to convert [e a0] to [Debye]
 Dipole X            :         -0.0000024            0.0000000           -0.0000024
 Dipole Y            :          0.0000615            0.0000000            0.0000615
 Dipole Z            :         -0.0000957            0.0000000           -0.0000957
 Magnitude           :                                                    0.0001138

 ------------------------------------------------------------------------------------

*** tstop() called on moses-razer at Sat Jan  6 22:39:39 2024
Module time:
	user time   =      51.12 seconds =       0.85 minutes
	system time =       1.77 seconds =       0.03 minutes
	total time  =         10 seconds =       0.17 minutes
Total time:
	user time   =     161.26 seconds =       2.69 minutes
	system time =       5.98 seconds =       0.10 minutes
	total time  =         31 seconds =       0.52 minutes

*** tstart() called on moses-razer
*** at Sat Jan  6 22:39:39 2024


  //>>>>>>>>>>>>>>>>>>>>>>>>>>>>>>>>>>>//
  //               DFMP2               //
  //<<<<<<<<<<<<<<<<<<<<<<<<<<<<<<<<<<<//

   => Loading Basis Set <=

    Name: (AUG-CC-PVTZ AUX)
    Role: RIFIT
    Keyword: DF_BASIS_MP2
    atoms 1                                   entry F          line   322 file /home/kchung25/anaconda3/envs/p415env/share/psi4/basis/aug-cc-pvtz-ri.gbs 
    atoms 2, 5, 8, 11, 14, 17                 entry O          line   264 file /home/kchung25/anaconda3/envs/p415env/share/psi4/basis/aug-cc-pvtz-ri.gbs 
    atoms 3-4, 6-7, 9-10, 12-13, 15-16, 18-19 entry H          line    30 file /home/kchung25/anaconda3/envs/p415env/share/psi4/basis/aug-cc-pvtz-ri.gbs 

	 --------------------------------------------------------
	                          DF-MP2                         
	      2nd-Order Density-Fitted Moller-Plesset Theory     
	              RMP2 Wavefunction,   6 Threads             
	                                                         
	        Rob Parrish, Justin Turney, Andy Simmonett,      
	           Ed Hohenstein, and C. David Sherrill          
	 --------------------------------------------------------

   => Auxiliary Basis Set <=

  Basis Set: (AUG-CC-PVTZ AUX)
    Blend: AUG-CC-PVTZ-RI
    Number of shells: 364
    Number of basis functions: 1294
    Number of Cartesian functions: 1612
    Spherical Harmonics?: true
    Max angular momentum: 4

	 --------------------------------------------------------
	                 NBF =   598, NAUX =  1294
	 --------------------------------------------------------
	   CLASS    FOCC     OCC    AOCC    AVIR     VIR    FVIR
	   PAIRS       0       5       5     593     593       0
	 --------------------------------------------------------

	-----------------------------------------------------------
	 ==================> DF-MP2 Energies <==================== 
	-----------------------------------------------------------
	 Reference Energy          =     -99.4511380315581306 [Eh]
	 Singles Energy            =      -0.0000000000000000 [Eh]
	 Same-Spin Energy          =      -0.0820468729427087 [Eh]
	 Opposite-Spin Energy      =      -0.2299556527780009 [Eh]
	 Correlation Energy        =      -0.3120025257207096 [Eh]
	 Total Energy              =     -99.7631405572788452 [Eh]
	-----------------------------------------------------------
	 ================> DF-SCS-MP2 Energies <================== 
	-----------------------------------------------------------
	 SCS Same-Spin Scale       =       0.3333333333333333 [-]
	 SCS Opposite-Spin Scale   =       1.2000000000000000 [-]
	 SCS Same-Spin Energy      =      -0.0273489576475696 [Eh]
	 SCS Opposite-Spin Energy  =      -0.2759467833336011 [Eh]
	 SCS Correlation Energy    =      -0.3032957409811706 [Eh]
	 SCS Total Energy          =     -99.7544337725393007 [Eh]
	-----------------------------------------------------------


*** tstop() called on moses-razer at Sat Jan  6 22:39:43 2024
Module time:
	user time   =      15.96 seconds =       0.27 minutes
	system time =       0.99 seconds =       0.02 minutes
	total time  =          4 seconds =       0.07 minutes
Total time:
	user time   =     177.22 seconds =       2.95 minutes
	system time =       6.97 seconds =       0.12 minutes
	total time  =         35 seconds =       0.58 minutes

    Psi4 stopped on: Saturday, 06 January 2024 10:39PM
    Psi4 wall time for execution: 0:00:13.62


    -----------------------------------------------------------------------
          Psi4: An Open-Source Ab Initio Electronic Structure Package
                               Psi4 1.9 release

                         Git: Rev {} zzzzzzz 


    D. G. A. Smith, L. A. Burns, A. C. Simmonett, R. M. Parrish,
    M. C. Schieber, R. Galvelis, P. Kraus, H. Kruse, R. Di Remigio,
    A. Alenaizan, A. M. James, S. Lehtola, J. P. Misiewicz, M. Scheurer,
    R. A. Shaw, J. B. Schriber, Y. Xie, Z. L. Glick, D. A. Sirianni,
    J. S. O'Brien, J. M. Waldrop, A. Kumar, E. G. Hohenstein,
    B. P. Pritchard, B. R. Brooks, H. F. Schaefer III, A. Yu. Sokolov,
    K. Patkowski, A. E. DePrince III, U. Bozkaya, R. A. King,
    F. A. Evangelista, J. M. Turney, T. D. Crawford, C. D. Sherrill,
    J. Chem. Phys. 152(18) 184108 (2020). https://doi.org/10.1063/5.0006002

                            Additional Code Authors
    E. T. Seidl, C. L. Janssen, E. F. Valeev, M. L. Leininger,
    J. F. Gonthier, R. M. Richard, H. R. McAlexander, M. Saitow, X. Wang,
    P. Verma, M. H. Lechner, A. Jiang, S. Behnle, A. G. Heide,
    M. F. Herbst, and D. L. Poole

             Previous Authors, Complete List of Code Contributors,
                       and Citations for Specific Modules
    https://github.com/psi4/psi4/blob/master/codemeta.json
    https://github.com/psi4/psi4/graphs/contributors
    http://psicode.org/psi4manual/master/introduction.html#citing-psifour

    -----------------------------------------------------------------------


    Psi4 started on: Saturday, 06 January 2024 10:39PM

    Process ID: 558437
    Host:       moses-razer
    PSIDATADIR: /home/kchung25/anaconda3/envs/psi4_19/share/psi4
    Memory:     55.9 GiB
    Threads:    6
    
  ==> Input QCSchema <==

--------------------------------------------------------------------------
{'driver': 'energy',
 'extras': {'psiapi': True, 'wfn_qcvars_only': True},
 'id': None,
 'keywords': {'SCF_TYPE': 'DF', 'function_kwargs': {}},
 'model': {'basis': 'aug-cc-pvtz', 'method': 'mp2'},
 'molecule': {'atom_labels': ['', '', '', '', '', '', '', '', '', '', '', '', '', '', '', '', '', '', ''],
              'atomic_numbers': [9, 8, 1, 1, 8, 1, 1, 8, 1, 1, 8, 1, 1, 8, 1, 1, 8, 1, 1],
              'extras': {},
              'fix_com': True,
              'fix_orientation': True,
              'fix_symmetry': 'c1',
              'fragment_charges': [-1.0, 0.0],
              'fragment_multiplicities': [1, 1],
              'fragments': [[0], [1, 2, 3, 4, 5, 6, 7, 8, 9, 10, 11, 12, 13, 14, 15, 16, 17, 18]],
              'geometry': [0.0, 0.0, 0.0, 5.060081851615918, -0.8157626430160116, 1.8563611209867448,
                           5.5428728616001335, 0.5991244399935263, 0.9220937526432728, 3.227661670912598,
                           -0.7645737417296099, 1.5820976094945483, 2.979825979284929, -0.07646209848827464,
                           -4.953144139902384, 4.543115144652796, -0.7079197524883842, -4.6176780683849845,
                           1.937700602604826, -0.019554885946237603, -3.431606583550383, -4.630991188938834,
                           1.0815129383130206, 2.4027792096151264, -2.979504725843601, 1.0571071254027327,
                           1.7023937951889427, -5.290004829300371, 2.846439660719488, 2.3336832635638864,
                           0.6026998018228925, 5.513977059415758, 0.539715230061383, 1.7570012110362976,
                           6.040262005903513, 1.8938306106023226, 0.4607530239091277, 3.630693010319616,
                           0.6628837994664734, -3.084376966902009, -0.3987246535670999, -4.376386498329777,
                           -2.002854579958361, -0.38551735767627515, -2.924664873682815, -2.965163594277502,
                           1.27119419815585, -5.142262261359828, -1.6045059818902274, -5.577163831872692,
                           0.39687839114252765, -1.4555615481338922, -3.715475572938282, 0.21963719838358697,
                           -1.1911132741373238, -6.154161468663232, -1.215723177469161],
              'mass_numbers': [19, 16, 1, 1, 16, 1, 1, 16, 1, 1, 16, 1, 1, 16, 1, 1, 16, 1, 1],
              'masses': [18.99840316273, 15.99491461957, 1.00782503223, 1.00782503223, 15.99491461957, 1.00782503223,
                         1.00782503223, 15.99491461957, 1.00782503223, 1.00782503223, 15.99491461957, 1.00782503223,
                         1.00782503223, 15.99491461957, 1.00782503223, 1.00782503223, 15.99491461957, 1.00782503223,
                         1.00782503223],
              'molecular_charge': -1.0,
              'molecular_multiplicity': 1,
              'name': 'dimer',
              'provenance': {'creator': 'QCElemental',
                             'routine': 'qcelemental.molparse.from_string',
                             'version': '0.27.1'},
              'real': [True, True, True, True, True, True, True, True, True, True, True, True, True, True, True, True,
                       True, True, True],
              'schema_name': 'qcschema_molecule',
              'schema_version': 2,
              'symbols': ['F', 'O', 'H', 'H', 'O', 'H', 'H', 'O', 'H', 'H', 'O', 'H', 'H', 'O', 'H', 'H', 'O', 'H',
                          'H'],
              'validated': True},
 'protocols': {'stdout': True},
 'provenance': {'creator': 'QCElemental', 'routine': 'qcelemental.models.results', 'version': '0.27.1'},
 'schema_name': 'qcschema_input',
 'schema_version': 1}
--------------------------------------------------------------------------

Scratch directory: /scratch/
   => Libint2 <=

    Primary   basis highest AM E, G, H:  5, 4, 3
    Auxiliary basis highest AM E, G, H:  6, 5, 4
    Onebody   basis highest AM E, G, H:  6, 5, 4
    Solid Harmonics ordering:            gaussian

*** tstart() called on moses-razer
*** at Sat Jan  6 22:39:43 2024

   => Loading Basis Set <=

    Name: AUG-CC-PVTZ
    Role: ORBITAL
    Keyword: BASIS
    atoms 1                                   entry F          line   377 file /home/kchung25/anaconda3/envs/p415env/share/psi4/basis/aug-cc-pvtz.gbs 
    atoms 2, 5, 8, 11, 14, 17                 entry O          line   331 file /home/kchung25/anaconda3/envs/p415env/share/psi4/basis/aug-cc-pvtz.gbs 
    atoms 3-4, 6-7, 9-10, 12-13, 15-16, 18-19 entry H          line    40 file /home/kchung25/anaconda3/envs/p415env/share/psi4/basis/aug-cc-pvtz.gbs 


         ---------------------------------------------------------
                                   SCF
               by Justin Turney, Rob Parrish, Andy Simmonett
                          and Daniel G. A. Smith
                              RHF Reference
                        6 Threads,  57220 MiB Core
         ---------------------------------------------------------

  ==> Geometry <==

    Molecular point group: c1
    Full point group: C1

    Geometry (in Bohr), charge = -1, multiplicity = 1:

       Center              X                  Y                   Z               Mass       
    ------------   -----------------  -----------------  -----------------  -----------------
         F            0.000000000000     0.000000000000     0.000000000000    18.998403162730
         O            5.060081851616    -0.815762643016     1.856361120987    15.994914619570
         H            5.542872861600     0.599124439994     0.922093752643     1.007825032230
         H            3.227661670913    -0.764573741730     1.582097609495     1.007825032230
         O            2.979825979285    -0.076462098488    -4.953144139902    15.994914619570
         H            4.543115144653    -0.707919752488    -4.617678068385     1.007825032230
         H            1.937700602605    -0.019554885946    -3.431606583550     1.007825032230
         O           -4.630991188939     1.081512938313     2.402779209615    15.994914619570
         H           -2.979504725844     1.057107125403     1.702393795189     1.007825032230
         H           -5.290004829300     2.846439660719     2.333683263564     1.007825032230
         O            0.602699801823     5.513977059416     0.539715230061    15.994914619570
         H            1.757001211036     6.040262005904     1.893830610602     1.007825032230
         H            0.460753023909     3.630693010320     0.662883799466     1.007825032230
         O           -3.084376966902    -0.398724653567    -4.376386498330    15.994914619570
         H           -2.002854579958    -0.385517357676    -2.924664873683     1.007825032230
         H           -2.965163594278     1.271194198156    -5.142262261360     1.007825032230
         O           -1.604505981890    -5.577163831873     0.396878391143    15.994914619570
         H           -1.455561548134    -3.715475572938     0.219637198384     1.007825032230
         H           -1.191113274137    -6.154161468663    -1.215723177469     1.007825032230

  Running in c1 symmetry.

  Rotational constants: A =      0.02962  B =      0.02817  C =      0.02505 [cm^-1]
  Rotational constants: A =    888.01810  B =    844.39627  C =    750.83924 [MHz]
  Nuclear repulsion =  343.941512003527862

  Charge       = -1
  Multiplicity = 1
  Electrons    = 70
  Nalpha       = 35
  Nbeta        = 35

  ==> Algorithm <==

  SCF Algorithm Type is DF.
  DIIS enabled.
  MOM disabled.
  Fractional occupation disabled.
  Guess Type is SAD.
  Energy threshold   = 1.00e-08
  Density threshold  = 1.00e-08
  Integral threshold = 1.00e-12

  ==> Primary Basis <==

  Basis Set: AUG-CC-PVTZ
    Blend: AUG-CC-PVTZ
    Number of shells: 206
    Number of basis functions: 598
    Number of Cartesian functions: 685
    Spherical Harmonics?: true
    Max angular momentum: 3

   => Loading Basis Set <=

    Name: (AUG-CC-PVTZ AUX)
    Role: JKFIT
    Keyword: DF_BASIS_SCF
    atoms 1                                   entry F          line   348 file /home/kchung25/anaconda3/envs/p415env/share/psi4/basis/aug-cc-pvtz-jkfit.gbs 
    atoms 2, 5, 8, 11, 14, 17                 entry O          line   286 file /home/kchung25/anaconda3/envs/p415env/share/psi4/basis/aug-cc-pvtz-jkfit.gbs 
    atoms 3-4, 6-7, 9-10, 12-13, 15-16, 18-19 entry H          line    70 file /home/kchung25/anaconda3/envs/p415env/share/psi4/basis/aug-cc-pvtz-jkfit.gbs 

  ==> Integral Setup <==

  DFHelper Memory: AOs need 3.104 GiB; user supplied 41.910 GiB. 
  Using in-core AOs.

  ==> MemDFJK: Density-Fitted J/K Matrices <==

    J tasked:                   Yes
    K tasked:                   Yes
    wK tasked:                   No
    OpenMP threads:               6
    Memory [MiB]:             42915
    Algorithm:                 Core
    Schwarz Cutoff:           1E-12
    Mask sparsity (%):      11.9109
    Fitting Condition:        1E-10

   => Auxiliary Basis Set <=

  Basis Set: (AUG-CC-PVTZ AUX)
    Blend: AUG-CC-PVTZ-JKFIT
    Number of shells: 378
    Number of basis functions: 1280
    Number of Cartesian functions: 1577
    Spherical Harmonics?: true
    Max angular momentum: 4

  Minimum eigenvalue in the overlap matrix is 2.7702187204E-05.
  Reciprocal condition number of the overlap matrix is 1.8593195338E-06.
    Using symmetric orthogonalization.

  ==> Pre-Iterations <==

  SCF Guess: Superposition of Atomic Densities via on-the-fly atomic UHF (no occupation information).

   -------------------------
    Irrep   Nso     Nmo    
   -------------------------
     A        598     598 
   -------------------------
    Total     598     598
   -------------------------

  ==> Iterations <==

                           Total Energy        Delta E     RMS |[F,P]|

   @DF-RHF iter SAD:  -552.06834247022709   -5.52068e+02   0.00000e+00 
   @DF-RHF iter   1:  -555.40239804468331   -3.33406e+00   1.98810e-03 DIIS/ADIIS
   @DF-RHF iter   2:  -555.73329503053651   -3.30897e-01   1.34092e-03 DIIS/ADIIS
   @DF-RHF iter   3:  -555.92575130007594   -1.92456e-01   8.71199e-05 DIIS
   @DF-RHF iter   4:  -555.92803027560751   -2.27898e-03   2.11676e-05 DIIS
   @DF-RHF iter   5:  -555.92815103298130   -1.20757e-04   8.14287e-06 DIIS
   @DF-RHF iter   6:  -555.92816563149336   -1.45985e-05   2.82603e-06 DIIS
   @DF-RHF iter   7:  -555.92816794973942   -2.31825e-06   6.56017e-07 DIIS
   @DF-RHF iter   8:  -555.92816814078958   -1.91050e-07   2.56278e-07 DIIS
   @DF-RHF iter   9:  -555.92816815335038   -1.25608e-08   6.95034e-08 DIIS
   @DF-RHF iter  10:  -555.92816815503943   -1.68905e-09   1.19175e-08 DIIS
   @DF-RHF iter  11:  -555.92816815509855   -5.91172e-11   4.41307e-09 DIIS
  Energy and wave function converged.


  ==> Post-Iterations <==

    Orbital Energies [Eh]
    ---------------------

    Doubly Occupied:                                                      

       1A    -26.013941     2A    -20.436149     3A    -20.420421  
       4A    -20.418424     5A    -20.411986     6A    -20.410358  
       7A    -20.406310     8A     -1.277259     9A     -1.217274  
      10A     -1.212760    11A     -1.202497    12A     -1.198836  
      13A     -1.189844    14A     -1.187628    15A     -0.600950  
      16A     -0.573087    17A     -0.569095    18A     -0.564229  
      19A     -0.562024    20A     -0.557171    21A     -0.459987  
      22A     -0.448177    23A     -0.439313    24A     -0.438040  
      25A     -0.429721    26A     -0.424298    27A     -0.376900  
      28A     -0.373191    29A     -0.370897    30A     -0.368380  
      31A     -0.367249    32A     -0.364112    33A     -0.355885  
      34A     -0.353548    35A     -0.348265  

    Virtual:                                                              

      36A      0.111617    37A      0.121722    38A      0.126912  
      39A      0.137167    40A      0.139806    41A      0.146180  
      42A      0.170384    43A      0.180261    44A      0.183444  
      45A      0.191741    46A      0.195845    47A      0.200470  
      48A      0.242481    49A      0.251571    50A      0.262778  
      51A      0.265931    52A      0.268408    53A      0.275025  
      54A      0.281635    55A      0.282527    56A      0.291267  
      57A      0.298137    58A      0.307953    59A      0.311689  
      60A      0.318238    61A      0.322547    62A      0.330473  
      63A      0.332343    64A      0.339002    65A      0.343390  
      66A      0.351190    67A      0.351903    68A      0.360053  
      69A      0.367946    70A      0.372822    71A      0.379482  
      72A      0.384964    73A      0.388549    74A      0.397355  
      75A      0.401567    76A      0.411645    77A      0.422211  
      78A      0.426276    79A      0.439898    80A      0.447694  
      81A      0.451124    82A      0.457404    83A      0.465566  
      84A      0.471048    85A      0.473286    86A      0.490188  
      87A      0.492443    88A      0.499004    89A      0.500828  
      90A      0.506915    91A      0.514891    92A      0.531108  
      93A      0.532910    94A      0.539842    95A      0.543552  
      96A      0.552636    97A      0.557748    98A      0.565095  
      99A      0.567702   100A      0.570024   101A      0.588666  
     102A      0.592960   103A      0.597829   104A      0.600960  
     105A      0.611666   106A      0.632564   107A      0.639130  
     108A      0.644210   109A      0.658775   110A      0.668935  
     111A      0.674071   112A      0.677892   113A      0.685889  
     114A      0.700238   115A      0.708719   116A      0.721256  
     117A      0.732512   118A      0.737435   119A      0.745590  
     120A      0.768053   121A      0.775896   122A      0.778435  
     123A      0.794472   124A      0.800968   125A      0.818408  
     126A      0.830922   127A      0.842263   128A      0.844407  
     129A      0.851449   130A      0.861176   131A      0.865422  
     132A      0.877166   133A      0.880117   134A      0.882132  
     135A      0.894304   136A      0.895447   137A      0.899789  
     138A      0.900391   139A      0.907949   140A      0.910937  
     141A      0.916937   142A      0.930507   143A      0.942659  
     144A      0.946231   145A      0.949113   146A      0.959011  
     147A      0.966551   148A      0.974352   149A      0.980930  
     150A      0.987936   151A      0.997000   152A      1.003517  
     153A      1.010067   154A      1.014915   155A      1.018990  
     156A      1.028355   157A      1.035594   158A      1.038664  
     159A      1.047729   160A      1.059047   161A      1.065201  
     162A      1.068571   163A      1.073399   164A      1.079988  
     165A      1.086092   166A      1.094298   167A      1.100258  
     168A      1.112320   169A      1.116122   170A      1.118218  
     171A      1.130372   172A      1.131950   173A      1.145568  
     174A      1.148170   175A      1.155126   176A      1.162422  
     177A      1.164992   178A      1.167477   179A      1.173821  
     180A      1.181465   181A      1.187064   182A      1.197166  
     183A      1.199132   184A      1.211053   185A      1.214851  
     186A      1.224658   187A      1.228767   188A      1.236655  
     189A      1.241117   190A      1.247981   191A      1.263807  
     192A      1.268187   193A      1.269761   194A      1.286177  
     195A      1.291098   196A      1.302944   197A      1.316243  
     198A      1.326816   199A      1.330420   200A      1.342239  
     201A      1.346688   202A      1.353171   203A      1.358390  
     204A      1.366537   205A      1.374724   206A      1.384004  
     207A      1.396370   208A      1.403995   209A      1.405593  
     210A      1.418949   211A      1.431549   212A      1.435261  
     213A      1.439014   214A      1.446361   215A      1.453657  
     216A      1.462926   217A      1.469393   218A      1.476307  
     219A      1.490871   220A      1.495775   221A      1.507950  
     222A      1.517642   223A      1.535713   224A      1.540567  
     225A      1.541793   226A      1.554500   227A      1.569306  
     228A      1.588956   229A      1.602210   230A      1.604579  
     231A      1.619198   232A      1.622388   233A      1.629011  
     234A      1.637706   235A      1.650086   236A      1.660830  
     237A      1.677015   238A      1.685821   239A      1.692450  
     240A      1.710313   241A      1.717842   242A      1.722747  
     243A      1.729448   244A      1.735250   245A      1.740975  
     246A      1.749944   247A      1.778761   248A      1.792839  
     249A      1.812675   250A      1.815702   251A      1.826042  
     252A      1.838317   253A      1.850443   254A      1.852086  
     255A      1.874960   256A      1.883554   257A      1.888085  
     258A      1.912898   259A      1.916510   260A      1.920948  
     261A      1.930278   262A      1.945278   263A      1.976771  
     264A      1.986855   265A      1.998744   266A      2.021108  
     267A      2.032235   268A      2.034983   269A      2.051848  
     270A      2.091558   271A      2.099568   272A      2.105228  
     273A      2.138432   274A      2.144293   275A      2.165392  
     276A      2.187326   277A      2.205569   278A      2.213329  
     279A      2.232325   280A      2.239064   281A      2.259762  
     282A      2.278496   283A      2.296018   284A      2.340802  
     285A      2.357356   286A      2.404581   287A      2.437688  
     288A      2.456562   289A      2.464544   290A      2.481687  
     291A      2.492815   292A      2.496453   293A      2.511701  
     294A      2.515181   295A      2.537297   296A      2.540858  
     297A      2.544803   298A      2.560600   299A      2.568747  
     300A      2.576597   301A      2.587593   302A      2.600668  
     303A      2.609374   304A      2.610581   305A      2.629236  
     306A      2.632186   307A      2.636864   308A      2.652200  
     309A      2.659871   310A      2.670731   311A      2.675428  
     312A      2.679808   313A      2.685530   314A      2.693575  
     315A      2.713635   316A      2.720213   317A      2.733187  
     318A      2.746964   319A      2.767472   320A      2.774011  
     321A      2.784365   322A      2.795828   323A      2.808330  
     324A      2.824394   325A      2.828443   326A      2.840595  
     327A      2.848774   328A      2.860548   329A      2.865106  
     330A      2.873206   331A      2.896118   332A      2.904622  
     333A      2.908659   334A      2.912510   335A      2.924021  
     336A      2.940704   337A      2.951783   338A      2.954499  
     339A      2.964289   340A      2.970171   341A      2.991131  
     342A      2.994645   343A      3.002606   344A      3.018568  
     345A      3.029384   346A      3.042108   347A      3.059370  
     348A      3.068042   349A      3.077026   350A      3.084864  
     351A      3.102192   352A      3.125170   353A      3.130450  
     354A      3.146076   355A      3.161976   356A      3.176163  
     357A      3.189082   358A      3.213702   359A      3.226189  
     360A      3.245299   361A      3.257810   362A      3.286172  
     363A      3.293588   364A      3.323318   365A      3.356971  
     366A      3.450387   367A      3.566610   368A      3.644868  
     369A      3.672623   370A      3.692257   371A      3.732484  
     372A      3.753085   373A      3.760877   374A      3.783543  
     375A      3.797229   376A      3.831961   377A      3.906276  
     378A      3.921704   379A      3.954121   380A      3.977121  
     381A      3.983684   382A      4.010813   383A      4.065067  
     384A      4.121434   385A      4.156903   386A      4.193227  
     387A      4.197277   388A      4.212277   389A      4.238056  
     390A      4.245577   391A      4.253145   392A      4.273533  
     393A      4.293715   394A      4.300041   395A      4.321884  
     396A      4.351498   397A      4.370363   398A      4.389183  
     399A      4.403717   400A      4.411011   401A      4.427568  
     402A      4.430916   403A      4.438967   404A      4.449764  
     405A      4.452801   406A      4.467339   407A      4.479283  
     408A      4.484862   409A      4.493187   410A      4.496031  
     411A      4.504667   412A      4.507106   413A      4.516244  
     414A      4.518723   415A      4.534262   416A      4.543284  
     417A      4.552075   418A      4.555591   419A      4.563274  
     420A      4.577959   421A      4.587907   422A      4.592724  
     423A      4.606510   424A      4.611208   425A      4.619323  
     426A      4.644374   427A      4.645955   428A      4.651231  
     429A      4.661545   430A      4.670805   431A      4.680043  
     432A      4.682066   433A      4.696156   434A      4.716516  
     435A      4.717663   436A      4.737522   437A      4.768142  
     438A      4.785093   439A      4.807567   440A      4.823005  
     441A      4.830748   442A      4.861738   443A      4.885753  
     444A      4.917977   445A      4.926150   446A      4.956505  
     447A      4.962837   448A      4.994563   449A      5.044193  
     450A      5.054796   451A      5.084138   452A      5.125057  
     453A      5.154571   454A      5.165217   455A      5.208084  
     456A      5.213239   457A      5.243287   458A      5.258234  
     459A      5.306572   460A      5.317578   461A      5.331645  
     462A      5.342268   463A      5.359208   464A      5.379733  
     465A      5.385764   466A      5.394315   467A      5.406184  
     468A      5.444237   469A      5.460716   470A      5.468849  
     471A      5.491675   472A      5.506340   473A      5.542044  
     474A      5.546298   475A      5.574221   476A      5.590116  
     477A      5.601719   478A      5.614759   479A      5.647597  
     480A      5.659948   481A      5.699002   482A      5.705999  
     483A      5.728088   484A      5.741082   485A      5.755163  
     486A      5.763887   487A      5.847997   488A      5.866657  
     489A      5.895359   490A      5.984174   491A      5.996942  
     492A      6.064012   493A      6.339982   494A      6.361156  
     495A      6.379263   496A      6.426825   497A      6.436618  
     498A      6.459068   499A      6.492689   500A      6.597351  
     501A      6.639216   502A      6.725865   503A      6.728334  
     504A      6.743469   505A      6.746146   506A      6.766372  
     507A      6.780855   508A      6.948201   509A      6.966866  
     510A      6.969874   511A      6.980964   512A      6.997130  
     513A      7.026037   514A      7.048405   515A      7.084527  
     516A      7.088608   517A      7.147063   518A      7.181554  
     519A      7.202178   520A      7.276515   521A      7.307894  
     522A      7.318425   523A      7.323940   524A      7.347108  
     525A      7.360894   526A      7.400887   527A      7.425404  
     528A      7.440979   529A      7.453064   530A      7.457426  
     531A      7.478168   532A      7.483845   533A      7.490716  
     534A      7.494274   535A      7.508291   536A      7.519816  
     537A      7.523190   538A      7.529946   539A      7.530637  
     540A      7.540680   541A      7.546735   542A      7.565034  
     543A      7.566681   544A      7.579563   545A      7.585489  
     546A      7.598443   547A      7.612426   548A      7.626377  
     549A      7.636323   550A      7.671957   551A      7.700195  
     552A      7.706629   553A      7.719141   554A      7.744975  
     555A      7.770730   556A      7.848977   557A      7.898600  
     558A      7.943072   559A      7.963944   560A      8.004409  
     561A      8.030657   562A      8.062826   563A      8.087449  
     564A      8.113092   565A      8.117454   566A      8.145368  
     567A      8.168208   568A      8.197291   569A      8.200117  
     570A      8.211301   571A      8.255126   572A      8.276744  
     573A      8.325425   574A      8.811329   575A      8.889509  
     576A      8.967670   577A      8.991415   578A      9.037631  
     579A      9.047864   580A      9.321582   581A      9.429456  
     582A      9.451092   583A      9.552752   584A      9.616238  
     585A      9.669922   586A      9.780031   587A     10.007046  
     588A     10.042280   589A     10.079717   590A     10.223623  
     591A     10.371910   592A     14.532335   593A     16.040173  
     594A     16.764597   595A     16.918874   596A     17.159032  
     597A     17.700163   598A     17.887893  

    Final Occupation by Irrep:
              A 
    DOCC [    35 ]
    NA   [    35 ]
    NB   [    35 ]

  @DF-RHF Final Energy:  -555.92816815509855

   => Energetics <=

    Nuclear Repulsion Energy =            343.9415120035278619
    One-Electron Energy =               -1467.0429434490833955
    Two-Electron Energy =                 567.1732632904570437
    Total Energy =                       -555.9281681550985468

Computation Completed


Properties will be evaluated at   0.000000,   0.000000,   0.000000 [a0]

Properties computed using the SCF density matrix


 Multipole Moments:

 ------------------------------------------------------------------------------------
     Multipole            Electronic (a.u.)      Nuclear  (a.u.)        Total (a.u.)
 ------------------------------------------------------------------------------------

 L = 1.  Multiply by 2.5417464519 to convert [e a0] to [Debye]
 Dipole X            :          4.8449248           -3.8332301            1.0116947
 Dipole Y            :         -0.1750511            1.5166318            1.3415807
 Dipole Z            :         41.3525685          -41.0856884            0.2668800
 Magnitude           :                                                    1.7013494

 ------------------------------------------------------------------------------------

*** tstop() called on moses-razer at Sat Jan  6 22:39:58 2024
Module time:
	user time   =      81.03 seconds =       1.35 minutes
	system time =       2.89 seconds =       0.05 minutes
	total time  =         15 seconds =       0.25 minutes
Total time:
	user time   =     258.59 seconds =       4.31 minutes
	system time =       9.87 seconds =       0.16 minutes
	total time  =         50 seconds =       0.83 minutes

*** tstart() called on moses-razer
*** at Sat Jan  6 22:39:58 2024


  //>>>>>>>>>>>>>>>>>>>>>>>>>>>>>>>>>>>//
  //               DFMP2               //
  //<<<<<<<<<<<<<<<<<<<<<<<<<<<<<<<<<<<//

   => Loading Basis Set <=

    Name: (AUG-CC-PVTZ AUX)
    Role: RIFIT
    Keyword: DF_BASIS_MP2
    atoms 1                                   entry F          line   322 file /home/kchung25/anaconda3/envs/p415env/share/psi4/basis/aug-cc-pvtz-ri.gbs 
    atoms 2, 5, 8, 11, 14, 17                 entry O          line   264 file /home/kchung25/anaconda3/envs/p415env/share/psi4/basis/aug-cc-pvtz-ri.gbs 
    atoms 3-4, 6-7, 9-10, 12-13, 15-16, 18-19 entry H          line    30 file /home/kchung25/anaconda3/envs/p415env/share/psi4/basis/aug-cc-pvtz-ri.gbs 

	 --------------------------------------------------------
	                          DF-MP2                         
	      2nd-Order Density-Fitted Moller-Plesset Theory     
	              RMP2 Wavefunction,   6 Threads             
	                                                         
	        Rob Parrish, Justin Turney, Andy Simmonett,      
	           Ed Hohenstein, and C. David Sherrill          
	 --------------------------------------------------------

   => Auxiliary Basis Set <=

  Basis Set: (AUG-CC-PVTZ AUX)
    Blend: AUG-CC-PVTZ-RI
    Number of shells: 364
    Number of basis functions: 1294
    Number of Cartesian functions: 1612
    Spherical Harmonics?: true
    Max angular momentum: 4

	 --------------------------------------------------------
	                 NBF =   598, NAUX =  1294
	 --------------------------------------------------------
	   CLASS    FOCC     OCC    AOCC    AVIR     VIR    FVIR
	   PAIRS       0      35      35     563     563       0
	 --------------------------------------------------------

	-----------------------------------------------------------
	 ==================> DF-MP2 Energies <==================== 
	-----------------------------------------------------------
	 Reference Energy          =    -555.9281681550985468 [Eh]
	 Singles Energy            =      -0.0000000000000000 [Eh]
	 Same-Spin Energy          =      -0.5010430250004917 [Eh]
	 Opposite-Spin Energy      =      -1.5312106557749929 [Eh]
	 Correlation Energy        =      -2.0322536807754847 [Eh]
	 Total Energy              =    -557.9604218358740582 [Eh]
	-----------------------------------------------------------
	 ================> DF-SCS-MP2 Energies <================== 
	-----------------------------------------------------------
	 SCS Same-Spin Scale       =       0.3333333333333333 [-]
	 SCS Opposite-Spin Scale   =       1.2000000000000000 [-]
	 SCS Same-Spin Energy      =      -0.1670143416668305 [Eh]
	 SCS Opposite-Spin Energy  =      -1.8374527869299915 [Eh]
	 SCS Correlation Energy    =      -2.0044671285968221 [Eh]
	 SCS Total Energy          =    -557.9326352836953902 [Eh]
	-----------------------------------------------------------


*** tstop() called on moses-razer at Sat Jan  6 22:40:06 2024
Module time:
	user time   =      36.86 seconds =       0.61 minutes
	system time =       1.66 seconds =       0.03 minutes
	total time  =          8 seconds =       0.13 minutes
Total time:
	user time   =     295.45 seconds =       4.92 minutes
	system time =      11.53 seconds =       0.19 minutes
	total time  =         58 seconds =       0.97 minutes

    Psi4 stopped on: Saturday, 06 January 2024 10:40PM
    Psi4 wall time for execution: 0:00:22.51


  //>>>>>>>>>>>>>>>>>>>>>>>>>>>>>>>>>>>//
  //          ManyBody Results         //
  //<<<<<<<<<<<<<<<<<<<<<<<<<<<<<<<<<<<//


   ==> N-Body: Counterpoise Corrected (CP) energies <==

        n-Body     Total Energy            Interaction Energy                          N-body Contribution to Interaction Energy
                   [Eh]                    [Eh]                  [kcal/mol]            [Eh]                  [kcal/mol]
             1  N/A                         0.000000000000        0.000000000000        0.000000000000        0.000000000000
  FULL/RTN   2  N/A                        -0.153649246815      -96.416358015272       -0.153649246815      -96.416358015272


    Psi4 stopped on: Saturday, 06 January 2024 10:40PM
    Psi4 wall time for execution: 0:00:58.97

*** Psi4 exiting successfully. Buy a developer a beer!
