
    -----------------------------------------------------------------------
          Psi4: An Open-Source Ab Initio Electronic Structure Package
                               Psi4 1.8.2 release

                         Git: Rev {} zzzzzzz 


    D. G. A. Smith, L. A. Burns, A. C. Simmonett, R. M. Parrish,
    M. C. Schieber, R. Galvelis, P. Kraus, H. Kruse, R. Di Remigio,
    A. Alenaizan, A. M. James, S. Lehtola, J. P. Misiewicz, M. Scheurer,
    R. A. Shaw, J. B. Schriber, Y. Xie, Z. L. Glick, D. A. Sirianni,
    J. S. O'Brien, J. M. Waldrop, A. Kumar, E. G. Hohenstein,
    B. P. Pritchard, B. R. Brooks, H. F. Schaefer III, A. Yu. Sokolov,
    K. Patkowski, A. E. DePrince III, U. Bozkaya, R. A. King,
    F. A. Evangelista, J. M. Turney, T. D. Crawford, C. D. Sherrill,
    J. Chem. Phys. 152(18) 184108 (2020). https://doi.org/10.1063/5.0006002

                            Additional Code Authors
    E. T. Seidl, C. L. Janssen, E. F. Valeev, M. L. Leininger,
    J. F. Gonthier, R. M. Richard, H. R. McAlexander, M. Saitow, X. Wang,
    P. Verma, M. H. Lechner, A. Jiang, S. Behnle, A. G. Heide,
    M. F. Herbst, and D. L. Poole

             Previous Authors, Complete List of Code Contributors,
                       and Citations for Specific Modules
    https://github.com/psi4/psi4/blob/master/codemeta.json
    https://github.com/psi4/psi4/graphs/contributors
    http://psicode.org/psi4manual/master/introduction.html#citing-psifour

    -----------------------------------------------------------------------


    Psi4 started on: Monday, 22 January 2024 05:32PM

    Process ID: 84951
    Host:       ddmfs1
    PSIDATADIR: /ddmfs1b/softs/psi4conda/share/psi4
    Memory:     500.0 MiB
    Threads:    20
    
  ==> Input File <==

--------------------------------------------------------------------------
MEMORY 60 GB

molecule dimer {
-1 1
F          0.000000     0.000000     0.000000
O          2.087812    -2.235654    -0.550394
H          2.423601    -2.899671    -1.150602
H          2.190875    -1.369155    -0.929071
O          0.415489    -2.119119     2.070246
H          0.482112    -2.996680     1.655893
H          0.091966    -1.548601     1.375700
O         -0.730006     1.647225     1.930793
H         -0.321923     1.147844     1.188363
H         -1.196312     2.375028     1.563056
O          2.361343     1.061093     0.316103
H          2.099324     1.707318     0.957043
H          1.582739     0.514063     0.417266
O          0.150347     2.501610    -1.052386
H          0.710848     3.031242    -0.538799
H          0.364562     1.585555    -0.826675
O         -1.585915    -0.182921    -2.257821
H         -0.843561    -0.199899    -1.588493
H         -2.094702    -1.043463    -2.099459

units ang
no_reorient
no_com
symmetry c1
}

set {
basis        aug-cc-pVTZ
scf_type     df
}

energy("mp2")
--------------------------------------------------------------------------

  Memory set to  55.879 GiB by Python driver.

Scratch directory: /ddmfs1a/scratch/
   => Libint2 <=

    Primary   basis highest AM E, G, H:  5, 4, 3
    Auxiliary basis highest AM E, G, H:  6, 5, 4
    Onebody   basis highest AM E, G, H:  6, 5, 4
    Solid Harmonics ordering:            gaussian

*** tstart() called on ddmfs1
*** at Mon Jan 22 17:32:29 2024

   => Loading Basis Set <=

    Name: AUG-CC-PVTZ
    Role: ORBITAL
    Keyword: BASIS
    atoms 1                                   entry F          line   377 file /ddmfs1b/softs/psi4conda/share/psi4/basis/aug-cc-pvtz.gbs 
    atoms 2, 5, 8, 11, 14, 17                 entry O          line   331 file /ddmfs1b/softs/psi4conda/share/psi4/basis/aug-cc-pvtz.gbs 
    atoms 3-4, 6-7, 9-10, 12-13, 15-16, 18-19 entry H          line    40 file /ddmfs1b/softs/psi4conda/share/psi4/basis/aug-cc-pvtz.gbs 


         ---------------------------------------------------------
                                   SCF
               by Justin Turney, Rob Parrish, Andy Simmonett
                          and Daniel G. A. Smith
                              RHF Reference
                       20 Threads,  57220 MiB Core
         ---------------------------------------------------------

  ==> Geometry <==

    Molecular point group: c1
    Full point group: C1

    Geometry (in Angstrom), charge = -1, multiplicity = 1:

       Center              X                  Y                   Z               Mass       
    ------------   -----------------  -----------------  -----------------  -----------------
         F            0.000000000000     0.000000000000     0.000000000000    18.998403162730
         O            2.087812000000    -2.235654000000    -0.550394000000    15.994914619570
         H            2.423601000000    -2.899671000000    -1.150602000000     1.007825032230
         H            2.190875000000    -1.369155000000    -0.929071000000     1.007825032230
         O            0.415489000000    -2.119119000000     2.070246000000    15.994914619570
         H            0.482112000000    -2.996680000000     1.655893000000     1.007825032230
         H            0.091966000000    -1.548601000000     1.375700000000     1.007825032230
         O           -0.730006000000     1.647225000000     1.930793000000    15.994914619570
         H           -0.321923000000     1.147844000000     1.188363000000     1.007825032230
         H           -1.196312000000     2.375028000000     1.563056000000     1.007825032230
         O            2.361343000000     1.061093000000     0.316103000000    15.994914619570
         H            2.099324000000     1.707318000000     0.957043000000     1.007825032230
         H            1.582739000000     0.514063000000     0.417266000000     1.007825032230
         O            0.150347000000     2.501610000000    -1.052386000000    15.994914619570
         H            0.710848000000     3.031242000000    -0.538799000000     1.007825032230
         H            0.364562000000     1.585555000000    -0.826675000000     1.007825032230
         O           -1.585915000000    -0.182921000000    -2.257821000000    15.994914619570
         H           -0.843561000000    -0.199899000000    -1.588493000000     1.007825032230
         H           -2.094702000000    -1.043463000000    -2.099459000000     1.007825032230

  Running in c1 symmetry.

  Rotational constants: A =      0.03728  B =      0.02853  C =      0.02577 [cm^-1]
  Rotational constants: A =   1117.77202  B =    855.24692  C =    772.62770 [MHz]
  Nuclear repulsion =  361.287071393169697

  Charge       = -1
  Multiplicity = 1
  Electrons    = 70
  Nalpha       = 35
  Nbeta        = 35

  ==> Algorithm <==

  SCF Algorithm Type is DF.
  DIIS enabled.
  MOM disabled.
  Fractional occupation disabled.
  Guess Type is SAD.
  Energy threshold   = 1.00e-08
  Density threshold  = 1.00e-08
  Integral threshold = 1.00e-12

  ==> Primary Basis <==

  Basis Set: AUG-CC-PVTZ
    Blend: AUG-CC-PVTZ
    Number of shells: 206
    Number of basis functions: 598
    Number of Cartesian functions: 685
    Spherical Harmonics?: true
    Max angular momentum: 3

   => Loading Basis Set <=

    Name: (AUG-CC-PVTZ AUX)
    Role: JKFIT
    Keyword: DF_BASIS_SCF
    atoms 1                                   entry F          line   348 file /ddmfs1b/softs/psi4conda/share/psi4/basis/aug-cc-pvtz-jkfit.gbs 
    atoms 2, 5, 8, 11, 14, 17                 entry O          line   286 file /ddmfs1b/softs/psi4conda/share/psi4/basis/aug-cc-pvtz-jkfit.gbs 
    atoms 3-4, 6-7, 9-10, 12-13, 15-16, 18-19 entry H          line    70 file /ddmfs1b/softs/psi4conda/share/psi4/basis/aug-cc-pvtz-jkfit.gbs 

  ==> Integral Setup <==

  DFHelper Memory: AOs need 3.183 GiB; user supplied 41.910 GiB. 
  Using in-core AOs.

  ==> MemDFJK: Density-Fitted J/K Matrices <==

    J tasked:                   Yes
    K tasked:                   Yes
    wK tasked:                   No
    OpenMP threads:              20
    Memory [MiB]:             42915
    Algorithm:                 Core
    Schwarz Cutoff:           1E-12
    Mask sparsity (%):      10.6878
    Fitting Condition:        1E-10

   => Auxiliary Basis Set <=

  Basis Set: (AUG-CC-PVTZ AUX)
    Blend: AUG-CC-PVTZ-JKFIT
    Number of shells: 378
    Number of basis functions: 1280
    Number of Cartesian functions: 1577
    Spherical Harmonics?: true
    Max angular momentum: 4

  Minimum eigenvalue in the overlap matrix is 3.6716929542E-05.
  Reciprocal condition number of the overlap matrix is 2.2900044799E-06.
    Using symmetric orthogonalization.

  ==> Pre-Iterations <==

  SCF Guess: Superposition of Atomic Densities via on-the-fly atomic UHF (no occupation information).

   -------------------------
    Irrep   Nso     Nmo    
   -------------------------
     A        598     598 
   -------------------------
    Total     598     598
   -------------------------

  ==> Iterations <==

                           Total Energy        Delta E     RMS |[F,P]|

   @DF-RHF iter SAD:  -552.31772543326019   -5.52318e+02   0.00000e+00 
   @DF-RHF iter   1:  -555.38592898871843   -3.06820e+00   1.97156e-03 ADIIS/DIIS
   @DF-RHF iter   2:  -555.72193428870787   -3.36005e-01   1.30920e-03 ADIIS/DIIS
   @DF-RHF iter   3:  -555.90556908289716   -1.83635e-01   9.05930e-05 DIIS
   @DF-RHF iter   4:  -555.90798072018129   -2.41164e-03   2.94980e-05 DIIS
   @DF-RHF iter   5:  -555.90814396105498   -1.63241e-04   1.16788e-05 DIIS
   @DF-RHF iter   6:  -555.90817249629106   -2.85352e-05   2.76105e-06 DIIS
   @DF-RHF iter   7:  -555.90817560291021   -3.10662e-06   7.93863e-07 DIIS
   @DF-RHF iter   8:  -555.90817583171963   -2.28809e-07   3.62233e-07 DIIS
   @DF-RHF iter   9:  -555.90817586127469   -2.95551e-08   7.08525e-08 DIIS
   @DF-RHF iter  10:  -555.90817586346770   -2.19302e-09   1.51003e-08 DIIS
   @DF-RHF iter  11:  -555.90817586354933   -8.16271e-11   6.54715e-09 DIIS
  Energy and wave function converged.


  ==> Post-Iterations <==

    Orbital Energies [Eh]
    ---------------------

    Doubly Occupied:                                                      

       1A    -25.999485     2A    -20.439211     3A    -20.404215  
       4A    -20.402850     5A    -20.401102     6A    -20.391222  
       7A    -20.386192     8A     -1.274469     9A     -1.227382  
      10A     -1.204732    11A     -1.189885    12A     -1.184820  
      13A     -1.175423    14A     -1.162555    15A     -0.606851  
      16A     -0.568469    17A     -0.558111    18A     -0.550777  
      19A     -0.548281    20A     -0.527758    21A     -0.460032  
      22A     -0.454462    23A     -0.431207    24A     -0.422538  
      25A     -0.420949    26A     -0.414098    27A     -0.385236  
      28A     -0.360991    29A     -0.359571    30A     -0.352635  
      31A     -0.347599    32A     -0.344181    33A     -0.339518  
      34A     -0.336180    35A     -0.331276  

    Virtual:                                                              

      36A      0.110019    37A      0.125469    38A      0.127741  
      39A      0.134509    40A      0.143127    41A      0.149427  
      42A      0.162419    43A      0.186535    44A      0.188796  
      45A      0.200780    46A      0.205595    47A      0.211518  
      48A      0.240333    49A      0.250570    50A      0.260402  
      51A      0.267495    52A      0.274238    53A      0.275303  
      54A      0.280740    55A      0.286755    56A      0.293905  
      57A      0.296321    58A      0.305180    59A      0.311180  
      60A      0.312212    61A      0.320858    62A      0.329371  
      63A      0.336647    64A      0.354152    65A      0.357429  
      66A      0.359932    67A      0.371094    68A      0.374887  
      69A      0.384773    70A      0.387496    71A      0.390732  
      72A      0.399202    73A      0.405530    74A      0.415094  
      75A      0.427533    76A      0.433892    77A      0.439377  
      78A      0.448269    79A      0.451832    80A      0.464399  
      81A      0.465279    82A      0.470473    83A      0.483708  
      84A      0.485280    85A      0.497775    86A      0.499438  
      87A      0.512060    88A      0.519245    89A      0.524073  
      90A      0.532908    91A      0.536930    92A      0.545296  
      93A      0.546681    94A      0.562716    95A      0.563369  
      96A      0.568174    97A      0.571445    98A      0.577810  
      99A      0.584608   100A      0.588258   101A      0.595790  
     102A      0.601909   103A      0.610726   104A      0.616564  
     105A      0.628952   106A      0.637917   107A      0.645690  
     108A      0.648461   109A      0.665679   110A      0.679119  
     111A      0.685254   112A      0.690918   113A      0.701136  
     114A      0.706713   115A      0.717553   116A      0.723841  
     117A      0.743156   118A      0.760749   119A      0.770401  
     120A      0.774572   121A      0.782904   122A      0.795134  
     123A      0.801842   124A      0.815257   125A      0.816733  
     126A      0.821056   127A      0.832824   128A      0.845777  
     129A      0.851467   130A      0.859808   131A      0.870971  
     132A      0.875378   133A      0.886322   134A      0.886809  
     135A      0.892476   136A      0.902485   137A      0.915698  
     138A      0.924334   139A      0.930266   140A      0.940416  
     141A      0.945620   142A      0.949443   143A      0.953748  
     144A      0.963496   145A      0.968523   146A      0.983206  
     147A      0.987791   148A      0.995286   149A      1.001024  
     150A      1.006718   151A      1.020907   152A      1.025708  
     153A      1.038937   154A      1.049551   155A      1.057204  
     156A      1.064720   157A      1.074058   158A      1.077115  
     159A      1.086367   160A      1.090732   161A      1.099984  
     162A      1.101580   163A      1.108431   164A      1.113810  
     165A      1.120885   166A      1.126883   167A      1.127927  
     168A      1.139664   169A      1.144243   170A      1.144717  
     171A      1.155083   172A      1.159014   173A      1.165365  
     174A      1.168697   175A      1.177574   176A      1.186152  
     177A      1.190056   178A      1.194244   179A      1.199668  
     180A      1.200920   181A      1.218256   182A      1.221445  
     183A      1.230159   184A      1.235737   185A      1.244227  
     186A      1.251823   187A      1.255920   188A      1.264792  
     189A      1.272217   190A      1.284575   191A      1.290476  
     192A      1.298471   193A      1.303598   194A      1.307034  
     195A      1.320539   196A      1.324169   197A      1.340393  
     198A      1.342850   199A      1.353994   200A      1.365346  
     201A      1.372092   202A      1.379177   203A      1.386353  
     204A      1.399651   205A      1.412246   206A      1.416481  
     207A      1.425330   208A      1.434164   209A      1.437064  
     210A      1.456260   211A      1.462281   212A      1.480800  
     213A      1.482356   214A      1.488980   215A      1.497611  
     216A      1.513816   217A      1.517687   218A      1.525144  
     219A      1.536392   220A      1.543767   221A      1.545973  
     222A      1.557954   223A      1.571021   224A      1.572561  
     225A      1.586526   226A      1.590314   227A      1.612333  
     228A      1.620236   229A      1.633847   230A      1.656554  
     231A      1.660194   232A      1.670486   233A      1.685930  
     234A      1.692511   235A      1.699492   236A      1.709321  
     237A      1.717773   238A      1.742514   239A      1.752899  
     240A      1.757151   241A      1.764016   242A      1.775165  
     243A      1.789146   244A      1.797705   245A      1.799865  
     246A      1.813835   247A      1.816916   248A      1.843745  
     249A      1.849627   250A      1.866292   251A      1.879988  
     252A      1.892211   253A      1.893311   254A      1.906400  
     255A      1.911066   256A      1.927888   257A      1.934140  
     258A      1.939315   259A      1.957761   260A      1.975121  
     261A      1.985282   262A      1.994605   263A      2.016078  
     264A      2.035751   265A      2.046042   266A      2.069275  
     267A      2.086198   268A      2.099046   269A      2.113244  
     270A      2.119052   271A      2.143428   272A      2.159646  
     273A      2.162277   274A      2.170224   275A      2.185793  
     276A      2.199757   277A      2.216562   278A      2.234594  
     279A      2.247677   280A      2.278950   281A      2.285215  
     282A      2.307382   283A      2.339956   284A      2.369382  
     285A      2.385664   286A      2.427186   287A      2.437119  
     288A      2.458219   289A      2.475974   290A      2.492851  
     291A      2.509756   292A      2.519134   293A      2.533711  
     294A      2.536885   295A      2.547372   296A      2.561183  
     297A      2.580443   298A      2.590932   299A      2.599305  
     300A      2.601869   301A      2.620289   302A      2.624867  
     303A      2.651482   304A      2.655776   305A      2.656595  
     306A      2.673289   307A      2.680064   308A      2.690758  
     309A      2.694968   310A      2.706094   311A      2.712153  
     312A      2.717907   313A      2.727471   314A      2.737941  
     315A      2.742970   316A      2.761817   317A      2.769444  
     318A      2.781475   319A      2.805536   320A      2.816828  
     321A      2.826891   322A      2.836213   323A      2.856636  
     324A      2.860881   325A      2.873954   326A      2.878359  
     327A      2.887837   328A      2.897278   329A      2.907619  
     330A      2.918077   331A      2.922682   332A      2.936145  
     333A      2.947968   334A      2.949852   335A      2.959214  
     336A      2.971739   337A      2.980710   338A      2.989866  
     339A      3.006428   340A      3.017725   341A      3.023691  
     342A      3.026873   343A      3.043298   344A      3.060845  
     345A      3.069256   346A      3.077216   347A      3.085034  
     348A      3.092788   349A      3.100511   350A      3.112063  
     351A      3.134574   352A      3.141689   353A      3.159651  
     354A      3.174459   355A      3.199216   356A      3.219649  
     357A      3.226132   358A      3.245985   359A      3.261720  
     360A      3.276006   361A      3.284991   362A      3.329596  
     363A      3.345108   364A      3.397459   365A      3.416192  
     366A      3.528295   367A      3.607170   368A      3.640251  
     369A      3.675369   370A      3.711084   371A      3.761220  
     372A      3.805371   373A      3.813685   374A      3.860442  
     375A      3.874826   376A      3.900742   377A      3.929104  
     378A      3.975297   379A      3.994016   380A      4.013165  
     381A      4.043496   382A      4.071116   383A      4.113699  
     384A      4.126717   385A      4.185324   386A      4.203172  
     387A      4.213532   388A      4.237816   389A      4.263204  
     390A      4.287970   391A      4.319497   392A      4.323007  
     393A      4.345515   394A      4.364921   395A      4.379115  
     396A      4.389875   397A      4.399535   398A      4.409040  
     399A      4.418500   400A      4.441450   401A      4.447612  
     402A      4.448990   403A      4.463329   404A      4.485532  
     405A      4.492054   406A      4.503665   407A      4.517305  
     408A      4.529204   409A      4.532204   410A      4.545569  
     411A      4.558092   412A      4.561826   413A      4.565008  
     414A      4.581128   415A      4.589894   416A      4.607002  
     417A      4.614220   418A      4.616039   419A      4.630480  
     420A      4.634083   421A      4.640075   422A      4.657243  
     423A      4.671285   424A      4.680844   425A      4.692452  
     426A      4.708986   427A      4.717014   428A      4.720439  
     429A      4.727069   430A      4.736545   431A      4.752245  
     432A      4.767493   433A      4.780158   434A      4.799773  
     435A      4.818471   436A      4.824169   437A      4.843210  
     438A      4.852700   439A      4.885216   440A      4.911323  
     441A      4.925173   442A      4.946148   443A      4.960452  
     444A      4.991274   445A      5.017874   446A      5.026793  
     447A      5.048297   448A      5.070805   449A      5.080926  
     450A      5.128194   451A      5.135252   452A      5.161385  
     453A      5.216540   454A      5.237918   455A      5.259302  
     456A      5.269174   457A      5.287179   458A      5.304239  
     459A      5.330229   460A      5.338577   461A      5.365456  
     462A      5.396199   463A      5.409592   464A      5.439946  
     465A      5.461576   466A      5.485475   467A      5.495183  
     468A      5.508829   469A      5.517902   470A      5.526224  
     471A      5.544802   472A      5.561088   473A      5.567664  
     474A      5.591934   475A      5.628726   476A      5.643507  
     477A      5.658225   478A      5.665982   479A      5.705089  
     480A      5.720601   481A      5.734745   482A      5.754365  
     483A      5.775146   484A      5.846188   485A      5.888264  
     486A      5.906893   487A      5.918922   488A      5.932101  
     489A      6.020223   490A      6.058906   491A      6.077889  
     492A      6.117743   493A      6.336183   494A      6.391122  
     495A      6.444747   496A      6.498853   497A      6.532121  
     498A      6.619728   499A      6.635317   500A      6.676441  
     501A      6.734967   502A      6.747694   503A      6.756495  
     504A      6.764081   505A      6.789308   506A      6.805015  
     507A      6.809533   508A      6.925063   509A      6.976187  
     510A      6.995114   511A      7.036843   512A      7.045711  
     513A      7.055902   514A      7.087146   515A      7.108425  
     516A      7.145415   517A      7.177274   518A      7.252918  
     519A      7.278377   520A      7.313185   521A      7.362817  
     522A      7.379342   523A      7.400571   524A      7.415655  
     525A      7.436326   526A      7.448846   527A      7.452219  
     528A      7.472360   529A      7.481041   530A      7.486447  
     531A      7.500550   532A      7.502293   533A      7.521618  
     534A      7.527735   535A      7.541850   536A      7.552555  
     537A      7.557285   538A      7.562609   539A      7.573968  
     540A      7.578619   541A      7.583895   542A      7.608884  
     543A      7.616558   544A      7.632819   545A      7.645212  
     546A      7.650373   547A      7.671216   548A      7.676173  
     549A      7.685561   550A      7.726621   551A      7.733217  
     552A      7.734707   553A      7.791929   554A      7.810442  
     555A      7.849539   556A      7.853146   557A      7.875803  
     558A      7.919376   559A      8.027750   560A      8.048424  
     561A      8.074567   562A      8.077956   563A      8.082227  
     564A      8.133496   565A      8.156475   566A      8.174845  
     567A      8.178460   568A      8.215852   569A      8.220619  
     570A      8.255803   571A      8.319935   572A      8.346453  
     573A      8.377521   574A      8.779193   575A      8.968768  
     576A      8.994779   577A      9.052130   578A      9.090703  
     579A      9.177791   580A      9.449230   581A      9.526037  
     582A      9.596224   583A      9.631311   584A      9.693800  
     585A      9.960343   586A      9.995800   587A     10.003929  
     588A     10.067671   589A     10.155167   590A     10.214143  
     591A     10.337569   592A     15.523801   593A     16.160624  
     594A     16.581161   595A     16.769941   596A     17.659552  
     597A     17.799974   598A     17.957584  

    Final Occupation by Irrep:
              A 
    DOCC [    35 ]
    NA   [    35 ]
    NB   [    35 ]

  @DF-RHF Final Energy:  -555.90817586354933

   => Energetics <=

    Nuclear Repulsion Energy =            361.2870713931696969
    One-Electron Energy =               -1502.4619584772922281
    Two-Electron Energy =                 585.2667112205731428
    Total Energy =                       -555.9081758635493316

Computation Completed


Properties will be evaluated at   0.000000,   0.000000,   0.000000 [a0]

Properties computed using the SCF density matrix


 Multipole Moments:

 ------------------------------------------------------------------------------------
     Multipole            Electronic (a.u.)      Nuclear  (a.u.)        Total (a.u.)
 ------------------------------------------------------------------------------------

 L = 1.  Multiply by 2.5417464519 to convert [e a0] to [Debye]
 Dipole X            :        -51.1809459           51.1777311           -0.0032148
 Dipole Y            :        -11.7738151           10.7363902           -1.0374249
 Dipole Z            :         -7.6482374            6.9476726           -0.7005648
 Magnitude           :                                                    1.2518194

 ------------------------------------------------------------------------------------

*** tstop() called on ddmfs1 at Mon Jan 22 17:32:41 2024
Module time:
	user time   =     194.57 seconds =       3.24 minutes
	system time =       9.75 seconds =       0.16 minutes
	total time  =         12 seconds =       0.20 minutes
Total time:
	user time   =     194.57 seconds =       3.24 minutes
	system time =       9.75 seconds =       0.16 minutes
	total time  =         12 seconds =       0.20 minutes

*** tstart() called on ddmfs1
*** at Mon Jan 22 17:32:41 2024


  //>>>>>>>>>>>>>>>>>>>>>>>>>>>>>>>>>>>//
  //               DFMP2               //
  //<<<<<<<<<<<<<<<<<<<<<<<<<<<<<<<<<<<//

   => Loading Basis Set <=

    Name: (AUG-CC-PVTZ AUX)
    Role: RIFIT
    Keyword: DF_BASIS_MP2
    atoms 1                                   entry F          line   322 file /ddmfs1b/softs/psi4conda/share/psi4/basis/aug-cc-pvtz-ri.gbs 
    atoms 2, 5, 8, 11, 14, 17                 entry O          line   264 file /ddmfs1b/softs/psi4conda/share/psi4/basis/aug-cc-pvtz-ri.gbs 
    atoms 3-4, 6-7, 9-10, 12-13, 15-16, 18-19 entry H          line    30 file /ddmfs1b/softs/psi4conda/share/psi4/basis/aug-cc-pvtz-ri.gbs 

	 --------------------------------------------------------
	                          DF-MP2                         
	      2nd-Order Density-Fitted Moller-Plesset Theory     
	              RMP2 Wavefunction,  20 Threads             
	                                                         
	        Rob Parrish, Justin Turney, Andy Simmonett,      
	           Ed Hohenstein, and C. David Sherrill          
	 --------------------------------------------------------

   => Auxiliary Basis Set <=

  Basis Set: (AUG-CC-PVTZ AUX)
    Blend: AUG-CC-PVTZ-RI
    Number of shells: 364
    Number of basis functions: 1294
    Number of Cartesian functions: 1612
    Spherical Harmonics?: true
    Max angular momentum: 4

	 --------------------------------------------------------
	                 NBF =   598, NAUX =  1294
	 --------------------------------------------------------
	   CLASS    FOCC     OCC    AOCC    AVIR     VIR    FVIR
	   PAIRS       0      35      35     563     563       0
	 --------------------------------------------------------

	-----------------------------------------------------------
	 ==================> DF-MP2 Energies <==================== 
	-----------------------------------------------------------
	 Reference Energy          =    -555.9081758635493316 [Eh]
	 Singles Energy            =      -0.0000000000000000 [Eh]
	 Same-Spin Energy          =      -0.5040995242520625 [Eh]
	 Opposite-Spin Energy      =      -1.5341636680627091 [Eh]
	 Correlation Energy        =      -2.0382631923147718 [Eh]
	 Total Energy              =    -557.9464390558640616 [Eh]
	-----------------------------------------------------------
	 ================> DF-SCS-MP2 Energies <================== 
	-----------------------------------------------------------
	 SCS Same-Spin Scale       =       0.3333333333333333 [-]
	 SCS Opposite-Spin Scale   =       1.2000000000000000 [-]
	 SCS Same-Spin Energy      =      -0.1680331747506875 [Eh]
	 SCS Opposite-Spin Energy  =      -1.8409964016752509 [Eh]
	 SCS Correlation Energy    =      -2.0090295764259385 [Eh]
	 SCS Total Energy          =    -557.9172054399753051 [Eh]
	-----------------------------------------------------------


*** tstop() called on ddmfs1 at Mon Jan 22 17:32:48 2024
Module time:
	user time   =      65.47 seconds =       1.09 minutes
	system time =       2.71 seconds =       0.05 minutes
	total time  =          7 seconds =       0.12 minutes
Total time:
	user time   =     260.06 seconds =       4.33 minutes
	system time =      12.46 seconds =       0.21 minutes
	total time  =         19 seconds =       0.32 minutes

    Psi4 stopped on: Monday, 22 January 2024 05:32PM
    Psi4 wall time for execution: 0:00:18.97

*** Psi4 exiting successfully. Buy a developer a beer!
