
    -----------------------------------------------------------------------
          Psi4: An Open-Source Ab Initio Electronic Structure Package
                               Psi4 1.9 release

                         Git: Rev {} zzzzzzz 


    D. G. A. Smith, L. A. Burns, A. C. Simmonett, R. M. Parrish,
    M. C. Schieber, R. Galvelis, P. Kraus, H. Kruse, R. Di Remigio,
    A. Alenaizan, A. M. James, S. Lehtola, J. P. Misiewicz, M. Scheurer,
    R. A. Shaw, J. B. Schriber, Y. Xie, Z. L. Glick, D. A. Sirianni,
    J. S. O'Brien, J. M. Waldrop, A. Kumar, E. G. Hohenstein,
    B. P. Pritchard, B. R. Brooks, H. F. Schaefer III, A. Yu. Sokolov,
    K. Patkowski, A. E. DePrince III, U. Bozkaya, R. A. King,
    F. A. Evangelista, J. M. Turney, T. D. Crawford, C. D. Sherrill,
    J. Chem. Phys. 152(18) 184108 (2020). https://doi.org/10.1063/5.0006002

                            Additional Code Authors
    E. T. Seidl, C. L. Janssen, E. F. Valeev, M. L. Leininger,
    J. F. Gonthier, R. M. Richard, H. R. McAlexander, M. Saitow, X. Wang,
    P. Verma, M. H. Lechner, A. Jiang, S. Behnle, A. G. Heide,
    M. F. Herbst, and D. L. Poole

             Previous Authors, Complete List of Code Contributors,
                       and Citations for Specific Modules
    https://github.com/psi4/psi4/blob/master/codemeta.json
    https://github.com/psi4/psi4/graphs/contributors
    http://psicode.org/psi4manual/master/introduction.html#citing-psifour

    -----------------------------------------------------------------------


    Psi4 started on: Saturday, 06 January 2024 10:44PM

    Process ID: 558668
    Host:       moses-razer
    PSIDATADIR: /home/kchung25/anaconda3/envs/psi4_19/share/psi4
    Memory:     500.0 MiB
    Threads:    6
    
  ==> Input File <==

--------------------------------------------------------------------------
MEMORY 60 GB

molecule dimer {
-1 1
Cl     0.000000     0.000000     0.000000
--
0 1
O     -2.452431     1.179516    -1.383822
H     -1.837991     0.632158    -0.895002
H     -2.120427     2.027958    -1.619128
O     -1.167744    -2.919915    -0.939325
H     -1.764740    -2.860149    -0.192311
H     -0.702783    -2.092863    -0.831785
O      1.116976     2.890657    -0.274401
H      1.074806     1.920461    -0.397918
H      1.908259     3.184212    -0.701728
O      1.222605    -0.362937    -3.063516
H      2.064077    -0.758243    -2.722188
H      0.654956    -0.035259    -2.271002

units ang
no_reorient
no_com
symmetry c1
}

set {
basis        aug-cc-pVTZ
scf_type     df
}

energy("mp2", bsse_type="cp")
--------------------------------------------------------------------------

  Memory set to  55.879 GiB by Python driver.

Scratch directory: /scratch/

  //>>>>>>>>>>>>>>>>>>>>>>>>>>>>>>>>>>>>>//
  // ManyBody Setup: N-Body Levels [1, 2]//
  //<<<<<<<<<<<<<<<<<<<<<<<<<<<<<<<<<<<<<//

        Number of 1-body computations:     2
        Number of 2-body computations:     1

    -----------------------------------------------------------------------
          Psi4: An Open-Source Ab Initio Electronic Structure Package
                               Psi4 1.9 release

                         Git: Rev {} zzzzzzz 


    D. G. A. Smith, L. A. Burns, A. C. Simmonett, R. M. Parrish,
    M. C. Schieber, R. Galvelis, P. Kraus, H. Kruse, R. Di Remigio,
    A. Alenaizan, A. M. James, S. Lehtola, J. P. Misiewicz, M. Scheurer,
    R. A. Shaw, J. B. Schriber, Y. Xie, Z. L. Glick, D. A. Sirianni,
    J. S. O'Brien, J. M. Waldrop, A. Kumar, E. G. Hohenstein,
    B. P. Pritchard, B. R. Brooks, H. F. Schaefer III, A. Yu. Sokolov,
    K. Patkowski, A. E. DePrince III, U. Bozkaya, R. A. King,
    F. A. Evangelista, J. M. Turney, T. D. Crawford, C. D. Sherrill,
    J. Chem. Phys. 152(18) 184108 (2020). https://doi.org/10.1063/5.0006002

                            Additional Code Authors
    E. T. Seidl, C. L. Janssen, E. F. Valeev, M. L. Leininger,
    J. F. Gonthier, R. M. Richard, H. R. McAlexander, M. Saitow, X. Wang,
    P. Verma, M. H. Lechner, A. Jiang, S. Behnle, A. G. Heide,
    M. F. Herbst, and D. L. Poole

             Previous Authors, Complete List of Code Contributors,
                       and Citations for Specific Modules
    https://github.com/psi4/psi4/blob/master/codemeta.json
    https://github.com/psi4/psi4/graphs/contributors
    http://psicode.org/psi4manual/master/introduction.html#citing-psifour

    -----------------------------------------------------------------------


    Psi4 started on: Saturday, 06 January 2024 10:44PM

    Process ID: 558668
    Host:       moses-razer
    PSIDATADIR: /home/kchung25/anaconda3/envs/psi4_19/share/psi4
    Memory:     55.9 GiB
    Threads:    6
    
  ==> Input QCSchema <==

--------------------------------------------------------------------------
{'driver': 'energy',
 'extras': {'psiapi': True, 'wfn_qcvars_only': True},
 'id': None,
 'keywords': {'SCF_TYPE': 'DF', 'function_kwargs': {}},
 'model': {'basis': 'aug-cc-pvtz', 'method': 'mp2'},
 'molecule': {'atom_labels': ['', '', '', '', '', '', '', '', '', '', '', '', ''],
              'atomic_numbers': [17, 8, 1, 1, 8, 1, 1, 8, 1, 1, 8, 1, 1],
              'extras': {},
              'fix_com': True,
              'fix_orientation': True,
              'fix_symmetry': 'c1',
              'fragment_charges': [0.0, 0.0],
              'fragment_multiplicities': [1, 1],
              'fragments': [[0], [1, 2, 3, 4, 5, 6, 7, 8, 9, 10, 11, 12]],
              'geometry': [0.0, 0.0, 0.0, -4.634422931582667, 2.2289622005955154, -2.615044586383303,
                           -3.4732996110563588, 1.1946054880171697, -1.691308661737007, -4.007026299026166,
                           3.8322852139312062, -3.059708482060282, -2.206716344646626, -5.517839659616194,
                           -1.7750669927956744, -3.3348752826404477, -5.404898288002081, -0.3634151209129204,
                           -1.328067395627629, -3.9549378881040465, -1.5718458452639397, 2.110778728709383,
                           5.462550052637549, -0.5185427385517535, 2.0310889779988264, 3.629145324622866,
                           -0.751956040389928, 3.6060868864400297, 6.017288605396322, -1.326073734565271,
                           2.310388609615368, -0.6858515307952878, -5.7892062209580635, 3.900540231856618,
                           -1.43287160654552, -5.144189782007794, 1.2376874642253572, -0.06662985345751755,
                           -4.291571810366979],
              'mass_numbers': [35, 16, 1, 1, 16, 1, 1, 16, 1, 1, 16, 1, 1],
              'masses': [34.968852682, 15.99491461957, 1.00782503223, 1.00782503223, 15.99491461957, 1.00782503223,
                         1.00782503223, 15.99491461957, 1.00782503223, 1.00782503223, 15.99491461957, 1.00782503223,
                         1.00782503223],
              'molecular_charge': 0.0,
              'molecular_multiplicity': 1,
              'name': 'dimer',
              'provenance': {'creator': 'QCElemental',
                             'routine': 'qcelemental.molparse.from_string',
                             'version': '0.27.1'},
              'real': [False, True, True, True, True, True, True, True, True, True, True, True, True],
              'schema_name': 'qcschema_molecule',
              'schema_version': 2,
              'symbols': ['Cl', 'O', 'H', 'H', 'O', 'H', 'H', 'O', 'H', 'H', 'O', 'H', 'H'],
              'validated': True},
 'protocols': {'stdout': True},
 'provenance': {'creator': 'QCElemental', 'routine': 'qcelemental.models.results', 'version': '0.27.1'},
 'schema_name': 'qcschema_input',
 'schema_version': 1}
--------------------------------------------------------------------------

Scratch directory: /scratch/
   => Libint2 <=

    Primary   basis highest AM E, G, H:  5, 4, 3
    Auxiliary basis highest AM E, G, H:  6, 5, 4
    Onebody   basis highest AM E, G, H:  6, 5, 4
    Solid Harmonics ordering:            gaussian

*** tstart() called on moses-razer
*** at Sat Jan  6 22:44:36 2024

   => Loading Basis Set <=

    Name: AUG-CC-PVTZ
    Role: ORBITAL
    Keyword: BASIS
    atoms 1                     entry CL         line   988 file /home/kchung25/anaconda3/envs/p415env/share/psi4/basis/aug-cc-pvtz.gbs 
    atoms 2, 5, 8, 11           entry O          line   331 file /home/kchung25/anaconda3/envs/p415env/share/psi4/basis/aug-cc-pvtz.gbs 
    atoms 3-4, 6-7, 9-10, 12-13 entry H          line    40 file /home/kchung25/anaconda3/envs/p415env/share/psi4/basis/aug-cc-pvtz.gbs 


         ---------------------------------------------------------
                                   SCF
               by Justin Turney, Rob Parrish, Andy Simmonett
                          and Daniel G. A. Smith
                              RHF Reference
                        6 Threads,  57220 MiB Core
         ---------------------------------------------------------

  ==> Geometry <==

    Molecular point group: c1
    Full point group: C1

    Geometry (in Bohr), charge = 0, multiplicity = 1:

       Center              X                  Y                   Z               Mass       
    ------------   -----------------  -----------------  -----------------  -----------------
      Gh(CL)          0.000000000000     0.000000000000     0.000000000000    34.968852682000
         O           -4.634422931583     2.228962200596    -2.615044586383    15.994914619570
         H           -3.473299611056     1.194605488017    -1.691308661737     1.007825032230
         H           -4.007026299026     3.832285213931    -3.059708482060     1.007825032230
         O           -2.206716344647    -5.517839659616    -1.775066992796    15.994914619570
         H           -3.334875282640    -5.404898288002    -0.363415120913     1.007825032230
         H           -1.328067395628    -3.954937888104    -1.571845845264     1.007825032230
         O            2.110778728709     5.462550052638    -0.518542738552    15.994914619570
         H            2.031088977999     3.629145324623    -0.751956040390     1.007825032230
         H            3.606086886440     6.017288605396    -1.326073734565     1.007825032230
         O            2.310388609615    -0.685851530795    -5.789206220958    15.994914619570
         H            3.900540231857    -1.432871606546    -5.144189782008     1.007825032230
         H            1.237687464225    -0.066629853458    -4.291571810367     1.007825032230

  Running in c1 symmetry.

  Rotational constants: A =      0.04540  B =      0.03293  C =      0.03000 [cm^-1]
  Rotational constants: A =   1360.91074  B =    987.06925  C =    899.23661 [MHz]
  Nuclear repulsion =  108.974063630228542

  Charge       = 0
  Multiplicity = 1
  Electrons    = 40
  Nalpha       = 20
  Nbeta        = 20

  ==> Algorithm <==

  SCF Algorithm Type is DF.
  DIIS enabled.
  MOM disabled.
  Fractional occupation disabled.
  Guess Type is SAD.
  Energy threshold   = 1.00e-08
  Density threshold  = 1.00e-08
  Integral threshold = 1.00e-12

  ==> Primary Basis <==

  Basis Set: AUG-CC-PVTZ
    Blend: AUG-CC-PVTZ
    Number of shells: 144
    Number of basis functions: 418
    Number of Cartesian functions: 479
    Spherical Harmonics?: true
    Max angular momentum: 3

   => Loading Basis Set <=

    Name: (AUG-CC-PVTZ AUX)
    Role: JKFIT
    Keyword: DF_BASIS_SCF
    atoms 1                     entry CL         line   816 file /home/kchung25/anaconda3/envs/p415env/share/psi4/basis/aug-cc-pvtz-jkfit.gbs 
    atoms 2, 5, 8, 11           entry O          line   286 file /home/kchung25/anaconda3/envs/p415env/share/psi4/basis/aug-cc-pvtz-jkfit.gbs 
    atoms 3-4, 6-7, 9-10, 12-13 entry H          line    70 file /home/kchung25/anaconda3/envs/p415env/share/psi4/basis/aug-cc-pvtz-jkfit.gbs 

  ==> Integral Setup <==

  DFHelper Memory: AOs need 1.139 GiB; user supplied 41.910 GiB. 
  Using in-core AOs.

  ==> MemDFJK: Density-Fitted J/K Matrices <==

    J tasked:                   Yes
    K tasked:                   Yes
    wK tasked:                   No
    OpenMP threads:               6
    Memory [MiB]:             42915
    Algorithm:                 Core
    Schwarz Cutoff:           1E-12
    Mask sparsity (%):       9.9643
    Fitting Condition:        1E-10

   => Auxiliary Basis Set <=

  Basis Set: (AUG-CC-PVTZ AUX)
    Blend: AUG-CC-PVTZ-JKFIT
    Number of shells: 274
    Number of basis functions: 930
    Number of Cartesian functions: 1144
    Spherical Harmonics?: true
    Max angular momentum: 4

  Minimum eigenvalue in the overlap matrix is 1.7952856540E-04.
  Reciprocal condition number of the overlap matrix is 1.5692255422E-05.
    Using symmetric orthogonalization.

  ==> Pre-Iterations <==

  SCF Guess: Superposition of Atomic Densities via on-the-fly atomic UHF (no occupation information).

   -------------------------
    Irrep   Nso     Nmo    
   -------------------------
     A        418     418 
   -------------------------
    Total     418     418
   -------------------------

  ==> Iterations <==

                           Total Energy        Delta E     RMS |[F,P]|

   @DF-RHF iter SAD:  -301.88576867289629   -3.01886e+02   0.00000e+00 
   @DF-RHF iter   1:  -303.87990473567106   -1.99414e+00   2.24580e-03 ADIIS/DIIS
   @DF-RHF iter   2:  -304.08968009347655   -2.09775e-01   1.55490e-03 ADIIS/DIIS
   @DF-RHF iter   3:  -304.22149956829583   -1.31819e-01   1.08656e-04 ADIIS/DIIS
   @DF-RHF iter   4:  -304.22320998707522   -1.71042e-03   3.22379e-05 DIIS
   @DF-RHF iter   5:  -304.22333618900632   -1.26202e-04   1.25305e-05 DIIS
   @DF-RHF iter   6:  -304.22335373619580   -1.75472e-05   3.80250e-06 DIIS
   @DF-RHF iter   7:  -304.22335621639866   -2.48020e-06   7.87919e-07 DIIS
   @DF-RHF iter   8:  -304.22335638867708   -1.72278e-07   1.67989e-07 DIIS
   @DF-RHF iter   9:  -304.22335639403042   -5.35334e-09   7.42606e-08 DIIS
   @DF-RHF iter  10:  -304.22335639458112   -5.50699e-10   1.57187e-08 DIIS
   @DF-RHF iter  11:  -304.22335639462955   -4.84306e-11   4.56418e-09 DIIS
  Energy and wave function converged.


  ==> Post-Iterations <==

    Orbital Energies [Eh]
    ---------------------

    Doubly Occupied:                                                      

       1A    -20.591973     2A    -20.587293     3A    -20.578466  
       4A    -20.571010     5A     -1.369721     6A     -1.366815  
       7A     -1.360670     8A     -1.343353     9A     -0.751028  
      10A     -0.739702    11A     -0.717698    12A     -0.714993  
      13A     -0.603554    14A     -0.599741    15A     -0.582468  
      16A     -0.576019    17A     -0.529433    18A     -0.522210  
      19A     -0.520388    20A     -0.517334  

    Virtual:                                                              

      21A      0.007746    22A      0.029644    23A      0.038372  
      24A      0.046713    25A      0.049338    26A      0.066509  
      27A      0.069191    28A      0.079841    29A      0.095164  
      30A      0.099793    31A      0.109748    32A      0.132070  
      33A      0.139023    34A      0.146084    35A      0.156387  
      36A      0.167818    37A      0.168955    38A      0.170317  
      39A      0.184940    40A      0.186605    41A      0.196817  
      42A      0.200594    43A      0.204879    44A      0.211655  
      45A      0.212672    46A      0.221106    47A      0.235648  
      48A      0.238097    49A      0.245299    50A      0.253724  
      51A      0.262816    52A      0.269473    53A      0.277755  
      54A      0.288904    55A      0.293741    56A      0.302632  
      57A      0.311617    58A      0.316135    59A      0.320624  
      60A      0.325646    61A      0.335341    62A      0.339114  
      63A      0.350459    64A      0.371211    65A      0.378894  
      66A      0.396438    67A      0.404405    68A      0.410470  
      69A      0.421384    70A      0.436161    71A      0.441722  
      72A      0.450796    73A      0.458986    74A      0.467535  
      75A      0.481000    76A      0.488010    77A      0.497715  
      78A      0.507366    79A      0.531338    80A      0.538147  
      81A      0.563250    82A      0.574991    83A      0.587024  
      84A      0.594404    85A      0.610367    86A      0.618933  
      87A      0.638083    88A      0.647732    89A      0.663474  
      90A      0.670878    91A      0.674632    92A      0.688236  
      93A      0.695329    94A      0.713495    95A      0.725077  
      96A      0.730544    97A      0.731028    98A      0.734423  
      99A      0.743633   100A      0.748290   101A      0.756816  
     102A      0.762238   103A      0.765411   104A      0.781352  
     105A      0.795168   106A      0.798211   107A      0.813281  
     108A      0.821319   109A      0.832076   110A      0.846577  
     111A      0.869144   112A      0.872977   113A      0.883732  
     114A      0.888686   115A      0.898272   116A      0.905534  
     117A      0.910722   118A      0.916463   119A      0.929701  
     120A      0.931059   121A      0.946602   122A      0.959349  
     123A      0.965217   124A      0.971179   125A      0.974799  
     126A      0.982165   127A      0.987102   128A      0.990288  
     129A      1.002926   130A      1.019062   131A      1.024826  
     132A      1.026913   133A      1.036599   134A      1.043975  
     135A      1.044765   136A      1.052075   137A      1.061809  
     138A      1.063909   139A      1.080550   140A      1.087231  
     141A      1.091051   142A      1.109321   143A      1.124937  
     144A      1.135256   145A      1.146805   146A      1.156318  
     147A      1.182677   148A      1.191614   149A      1.194056  
     150A      1.212770   151A      1.216741   152A      1.233787  
     153A      1.242840   154A      1.249817   155A      1.257497  
     156A      1.271134   157A      1.281970   158A      1.303696  
     159A      1.313797   160A      1.320520   161A      1.339527  
     162A      1.360979   163A      1.374406   164A      1.399417  
     165A      1.414354   166A      1.435515   167A      1.450307  
     168A      1.464607   169A      1.486870   170A      1.502665  
     171A      1.534615   172A      1.539945   173A      1.548714  
     174A      1.562121   175A      1.563577   176A      1.587795  
     177A      1.595817   178A      1.602946   179A      1.607252  
     180A      1.616362   181A      1.632313   182A      1.647887  
     183A      1.675360   184A      1.689326   185A      1.697988  
     186A      1.718791   187A      1.737106   188A      1.739944  
     189A      1.754329   190A      1.766741   191A      1.787672  
     192A      1.801130   193A      1.811700   194A      1.840091  
     195A      1.852877   196A      1.865093   197A      1.873307  
     198A      1.904268   199A      1.942410   200A      1.959883  
     201A      1.987318   202A      2.023035   203A      2.028582  
     204A      2.060275   205A      2.088979   206A      2.109555  
     207A      2.118426   208A      2.164267   209A      2.244840  
     210A      2.278357   211A      2.291781   212A      2.296520  
     213A      2.307394   214A      2.327234   215A      2.351845  
     216A      2.388445   217A      2.396073   218A      2.407593  
     219A      2.419054   220A      2.427848   221A      2.436888  
     222A      2.442706   223A      2.457774   224A      2.460349  
     225A      2.478996   226A      2.484736   227A      2.489706  
     228A      2.504249   229A      2.506675   230A      2.518567  
     231A      2.520689   232A      2.535779   233A      2.552986  
     234A      2.560365   235A      2.566059   236A      2.590941  
     237A      2.610815   238A      2.659919   239A      2.689291  
     240A      2.725823   241A      2.737027   242A      2.739848  
     243A      2.758899   244A      2.767832   245A      2.775010  
     246A      2.783408   247A      2.803900   248A      2.809159  
     249A      2.828737   250A      2.870233   251A      2.871112  
     252A      2.904904   253A      2.929652   254A      2.939129  
     255A      2.959992   256A      2.982276   257A      3.007688  
     258A      3.017006   259A      3.022659   260A      3.080217  
     261A      3.126018   262A      3.664011   263A      3.718964  
     264A      3.748745   265A      3.755931   266A      3.852702  
     267A      3.859941   268A      3.896652   269A      3.924428  
     270A      4.017652   271A      4.041808   272A      4.047163  
     273A      4.066169   274A      4.088708   275A      4.100165  
     276A      4.110102   277A      4.133436   278A      4.151069  
     279A      4.161489   280A      4.177615   281A      4.183631  
     282A      4.186339   283A      4.208920   284A      4.218072  
     285A      4.232944   286A      4.247465   287A      4.254048  
     288A      4.262799   289A      4.277449   290A      4.299412  
     291A      4.307221   292A      4.318544   293A      4.335247  
     294A      4.347764   295A      4.360455   296A      4.363034  
     297A      4.384455   298A      4.386555   299A      4.398745  
     300A      4.401461   301A      4.408097   302A      4.418757  
     303A      4.425552   304A      4.441930   305A      4.446368  
     306A      4.463948   307A      4.476002   308A      4.480428  
     309A      4.503650   310A      4.516541   311A      4.544393  
     312A      4.596516   313A      4.619630   314A      4.649391  
     315A      4.667786   316A      4.701101   317A      4.729429  
     318A      4.745056   319A      4.761772   320A      4.781987  
     321A      4.794863   322A      4.801997   323A      4.856012  
     324A      4.892367   325A      4.925315   326A      4.967872  
     327A      4.988965   328A      5.063816   329A      5.090803  
     330A      5.121533   331A      5.142855   332A      5.149088  
     333A      5.167934   334A      5.183823   335A      5.239847  
     336A      5.249027   337A      5.263935   338A      5.285632  
     339A      5.303200   340A      5.318915   341A      5.345642  
     342A      5.370471   343A      5.414543   344A      5.448772  
     345A      5.468932   346A      5.501834   347A      5.510293  
     348A      5.548024   349A      5.565207   350A      5.664897  
     351A      5.668683   352A      5.733363   353A      5.899570  
     354A      6.097570   355A      6.130393   356A      6.206180  
     357A      6.285923   358A      6.532489   359A      6.548894  
     360A      6.596107   361A      6.601227   362A      6.731349  
     363A      6.752805   364A      6.774614   365A      6.780324  
     366A      6.829413   367A      6.868558   368A      6.903101  
     369A      7.031297   370A      7.110696   371A      7.133784  
     372A      7.140255   373A      7.190027   374A      7.203871  
     375A      7.264751   376A      7.279116   377A      7.285207  
     378A      7.293886   379A      7.303721   380A      7.306946  
     381A      7.315895   382A      7.319930   383A      7.338640  
     384A      7.345923   385A      7.352329   386A      7.360143  
     387A      7.365065   388A      7.419704   389A      7.430504  
     390A      7.441116   391A      7.478974   392A      7.487671  
     393A      7.586885   394A      7.611651   395A      7.669246  
     396A      7.709074   397A      7.802722   398A      7.823968  
     399A      7.901532   400A      7.920486   401A      7.932988  
     402A      7.971472   403A      8.013586   404A      8.023562  
     405A      8.145269   406A      8.509670   407A      8.788803  
     408A      8.829267   409A      8.891605   410A     14.926215  
     411A     15.761193   412A     16.147267   413A     16.799441  
     414A     17.255189   415A     28.115301   416A     28.223178  
     417A     28.340611   418A    160.885500  

    Final Occupation by Irrep:
              A 
    DOCC [    20 ]
    NA   [    20 ]
    NB   [    20 ]

  @DF-RHF Final Energy:  -304.22335639462955

   => Energetics <=

    Nuclear Repulsion Energy =            108.9740636302285424
    One-Electron Energy =                -636.1070911289895093
    Two-Electron Energy =                 222.9096711041314052
    Total Energy =                       -304.2233563946295476

Computation Completed


Properties will be evaluated at   0.000000,   0.000000,   0.000000 [a0]

Properties computed using the SCF density matrix


 Multipole Moments:

 ------------------------------------------------------------------------------------
     Multipole            Electronic (a.u.)      Nuclear  (a.u.)        Total (a.u.)
 ------------------------------------------------------------------------------------

 L = 1.  Multiply by 2.5417464519 to convert [e a0] to [Debye]
 Dipole X            :         21.9638349          -20.7276405            1.2361944
 Dipole Y            :        -15.3987476           15.7165555            0.3178079
 Dipole Z            :        104.7982669         -103.7829538            1.0153131
 Magnitude           :                                                    1.6309626

 ------------------------------------------------------------------------------------

*** tstop() called on moses-razer at Sat Jan  6 22:44:42 2024
Module time:
	user time   =      28.69 seconds =       0.48 minutes
	system time =       1.20 seconds =       0.02 minutes
	total time  =          6 seconds =       0.10 minutes
Total time:
	user time   =      28.69 seconds =       0.48 minutes
	system time =       1.20 seconds =       0.02 minutes
	total time  =          6 seconds =       0.10 minutes

*** tstart() called on moses-razer
*** at Sat Jan  6 22:44:42 2024


  //>>>>>>>>>>>>>>>>>>>>>>>>>>>>>>>>>>>//
  //               DFMP2               //
  //<<<<<<<<<<<<<<<<<<<<<<<<<<<<<<<<<<<//

   => Loading Basis Set <=

    Name: (AUG-CC-PVTZ AUX)
    Role: RIFIT
    Keyword: DF_BASIS_MP2
    atoms 1                     entry CL         line   742 file /home/kchung25/anaconda3/envs/p415env/share/psi4/basis/aug-cc-pvtz-ri.gbs 
    atoms 2, 5, 8, 11           entry O          line   264 file /home/kchung25/anaconda3/envs/p415env/share/psi4/basis/aug-cc-pvtz-ri.gbs 
    atoms 3-4, 6-7, 9-10, 12-13 entry H          line    30 file /home/kchung25/anaconda3/envs/p415env/share/psi4/basis/aug-cc-pvtz-ri.gbs 

	 --------------------------------------------------------
	                          DF-MP2                         
	      2nd-Order Density-Fitted Moller-Plesset Theory     
	              RMP2 Wavefunction,   6 Threads             
	                                                         
	        Rob Parrish, Justin Turney, Andy Simmonett,      
	           Ed Hohenstein, and C. David Sherrill          
	 --------------------------------------------------------

   => Auxiliary Basis Set <=

  Basis Set: (AUG-CC-PVTZ AUX)
    Blend: AUG-CC-PVTZ-RI
    Number of shells: 261
    Number of basis functions: 939
    Number of Cartesian functions: 1175
    Spherical Harmonics?: true
    Max angular momentum: 4

	 --------------------------------------------------------
	                 NBF =   418, NAUX =   939
	 --------------------------------------------------------
	   CLASS    FOCC     OCC    AOCC    AVIR     VIR    FVIR
	   PAIRS       0      20      20     398     398       0
	 --------------------------------------------------------

	-----------------------------------------------------------
	 ==================> DF-MP2 Energies <==================== 
	-----------------------------------------------------------
	 Reference Energy          =    -304.2233563946295476 [Eh]
	 Singles Energy            =      -0.0000000000000000 [Eh]
	 Same-Spin Energy          =      -0.2751499994182827 [Eh]
	 Opposite-Spin Energy      =      -0.8665590626124468 [Eh]
	 Correlation Energy        =      -1.1417090620307295 [Eh]
	 Total Energy              =    -305.3650654566602611 [Eh]
	-----------------------------------------------------------
	 ================> DF-SCS-MP2 Energies <================== 
	-----------------------------------------------------------
	 SCS Same-Spin Scale       =       0.3333333333333333 [-]
	 SCS Opposite-Spin Scale   =       1.2000000000000000 [-]
	 SCS Same-Spin Energy      =      -0.0917166664727609 [Eh]
	 SCS Opposite-Spin Energy  =      -1.0398708751349361 [Eh]
	 SCS Correlation Energy    =      -1.1315875416076970 [Eh]
	 SCS Total Energy          =    -305.3549439362372482 [Eh]
	-----------------------------------------------------------


*** tstop() called on moses-razer at Sat Jan  6 22:44:44 2024
Module time:
	user time   =      10.16 seconds =       0.17 minutes
	system time =       0.62 seconds =       0.01 minutes
	total time  =          2 seconds =       0.03 minutes
Total time:
	user time   =      38.86 seconds =       0.65 minutes
	system time =       1.82 seconds =       0.03 minutes
	total time  =          8 seconds =       0.13 minutes

    Psi4 stopped on: Saturday, 06 January 2024 10:44PM
    Psi4 wall time for execution: 0:00:07.95


    -----------------------------------------------------------------------
          Psi4: An Open-Source Ab Initio Electronic Structure Package
                               Psi4 1.9 release

                         Git: Rev {} zzzzzzz 


    D. G. A. Smith, L. A. Burns, A. C. Simmonett, R. M. Parrish,
    M. C. Schieber, R. Galvelis, P. Kraus, H. Kruse, R. Di Remigio,
    A. Alenaizan, A. M. James, S. Lehtola, J. P. Misiewicz, M. Scheurer,
    R. A. Shaw, J. B. Schriber, Y. Xie, Z. L. Glick, D. A. Sirianni,
    J. S. O'Brien, J. M. Waldrop, A. Kumar, E. G. Hohenstein,
    B. P. Pritchard, B. R. Brooks, H. F. Schaefer III, A. Yu. Sokolov,
    K. Patkowski, A. E. DePrince III, U. Bozkaya, R. A. King,
    F. A. Evangelista, J. M. Turney, T. D. Crawford, C. D. Sherrill,
    J. Chem. Phys. 152(18) 184108 (2020). https://doi.org/10.1063/5.0006002

                            Additional Code Authors
    E. T. Seidl, C. L. Janssen, E. F. Valeev, M. L. Leininger,
    J. F. Gonthier, R. M. Richard, H. R. McAlexander, M. Saitow, X. Wang,
    P. Verma, M. H. Lechner, A. Jiang, S. Behnle, A. G. Heide,
    M. F. Herbst, and D. L. Poole

             Previous Authors, Complete List of Code Contributors,
                       and Citations for Specific Modules
    https://github.com/psi4/psi4/blob/master/codemeta.json
    https://github.com/psi4/psi4/graphs/contributors
    http://psicode.org/psi4manual/master/introduction.html#citing-psifour

    -----------------------------------------------------------------------


    Psi4 started on: Saturday, 06 January 2024 10:44PM

    Process ID: 558668
    Host:       moses-razer
    PSIDATADIR: /home/kchung25/anaconda3/envs/psi4_19/share/psi4
    Memory:     55.9 GiB
    Threads:    6
    
  ==> Input QCSchema <==

--------------------------------------------------------------------------
{'driver': 'energy',
 'extras': {'psiapi': True, 'wfn_qcvars_only': True},
 'id': None,
 'keywords': {'SCF_TYPE': 'DF', 'function_kwargs': {}},
 'model': {'basis': 'aug-cc-pvtz', 'method': 'mp2'},
 'molecule': {'atom_labels': ['', '', '', '', '', '', '', '', '', '', '', '', ''],
              'atomic_numbers': [17, 8, 1, 1, 8, 1, 1, 8, 1, 1, 8, 1, 1],
              'extras': {},
              'fix_com': True,
              'fix_orientation': True,
              'fix_symmetry': 'c1',
              'fragment_charges': [-1.0, 0.0],
              'fragment_multiplicities': [1, 1],
              'fragments': [[0], [1, 2, 3, 4, 5, 6, 7, 8, 9, 10, 11, 12]],
              'geometry': [0.0, 0.0, 0.0, -4.634422931582667, 2.2289622005955154, -2.615044586383303,
                           -3.4732996110563588, 1.1946054880171697, -1.691308661737007, -4.007026299026166,
                           3.8322852139312062, -3.059708482060282, -2.206716344646626, -5.517839659616194,
                           -1.7750669927956744, -3.3348752826404477, -5.404898288002081, -0.3634151209129204,
                           -1.328067395627629, -3.9549378881040465, -1.5718458452639397, 2.110778728709383,
                           5.462550052637549, -0.5185427385517535, 2.0310889779988264, 3.629145324622866,
                           -0.751956040389928, 3.6060868864400297, 6.017288605396322, -1.326073734565271,
                           2.310388609615368, -0.6858515307952878, -5.7892062209580635, 3.900540231856618,
                           -1.43287160654552, -5.144189782007794, 1.2376874642253572, -0.06662985345751755,
                           -4.291571810366979],
              'mass_numbers': [35, 16, 1, 1, 16, 1, 1, 16, 1, 1, 16, 1, 1],
              'masses': [34.968852682, 15.99491461957, 1.00782503223, 1.00782503223, 15.99491461957, 1.00782503223,
                         1.00782503223, 15.99491461957, 1.00782503223, 1.00782503223, 15.99491461957, 1.00782503223,
                         1.00782503223],
              'molecular_charge': -1.0,
              'molecular_multiplicity': 1,
              'name': 'dimer',
              'provenance': {'creator': 'QCElemental',
                             'routine': 'qcelemental.molparse.from_string',
                             'version': '0.27.1'},
              'real': [True, False, False, False, False, False, False, False, False, False, False, False, False],
              'schema_name': 'qcschema_molecule',
              'schema_version': 2,
              'symbols': ['Cl', 'O', 'H', 'H', 'O', 'H', 'H', 'O', 'H', 'H', 'O', 'H', 'H'],
              'validated': True},
 'protocols': {'stdout': True},
 'provenance': {'creator': 'QCElemental', 'routine': 'qcelemental.models.results', 'version': '0.27.1'},
 'schema_name': 'qcschema_input',
 'schema_version': 1}
--------------------------------------------------------------------------

Scratch directory: /scratch/
   => Libint2 <=

    Primary   basis highest AM E, G, H:  5, 4, 3
    Auxiliary basis highest AM E, G, H:  6, 5, 4
    Onebody   basis highest AM E, G, H:  6, 5, 4
    Solid Harmonics ordering:            gaussian

*** tstart() called on moses-razer
*** at Sat Jan  6 22:44:44 2024

   => Loading Basis Set <=

    Name: AUG-CC-PVTZ
    Role: ORBITAL
    Keyword: BASIS
    atoms 1                     entry CL         line   988 file /home/kchung25/anaconda3/envs/p415env/share/psi4/basis/aug-cc-pvtz.gbs 
    atoms 2, 5, 8, 11           entry O          line   331 file /home/kchung25/anaconda3/envs/p415env/share/psi4/basis/aug-cc-pvtz.gbs 
    atoms 3-4, 6-7, 9-10, 12-13 entry H          line    40 file /home/kchung25/anaconda3/envs/p415env/share/psi4/basis/aug-cc-pvtz.gbs 


         ---------------------------------------------------------
                                   SCF
               by Justin Turney, Rob Parrish, Andy Simmonett
                          and Daniel G. A. Smith
                              RHF Reference
                        6 Threads,  57220 MiB Core
         ---------------------------------------------------------

  ==> Geometry <==

    Molecular point group: c1
    Full point group: C1

    Geometry (in Bohr), charge = -1, multiplicity = 1:

       Center              X                  Y                   Z               Mass       
    ------------   -----------------  -----------------  -----------------  -----------------
         CL           0.000000000000     0.000000000000     0.000000000000    34.968852682000
      Gh(O)          -4.634422931583     2.228962200596    -2.615044586383    15.994914619570
      Gh(H)          -3.473299611056     1.194605488017    -1.691308661737     1.007825032230
      Gh(H)          -4.007026299026     3.832285213931    -3.059708482060     1.007825032230
      Gh(O)          -2.206716344647    -5.517839659616    -1.775066992796    15.994914619570
      Gh(H)          -3.334875282640    -5.404898288002    -0.363415120913     1.007825032230
      Gh(H)          -1.328067395628    -3.954937888104    -1.571845845264     1.007825032230
      Gh(O)           2.110778728709     5.462550052638    -0.518542738552    15.994914619570
      Gh(H)           2.031088977999     3.629145324623    -0.751956040390     1.007825032230
      Gh(H)           3.606086886440     6.017288605396    -1.326073734565     1.007825032230
      Gh(O)           2.310388609615    -0.685851530795    -5.789206220958    15.994914619570
      Gh(H)           3.900540231857    -1.432871606546    -5.144189782008     1.007825032230
      Gh(H)           1.237687464225    -0.066629853458    -4.291571810367     1.007825032230

  Running in c1 symmetry.

  Rotational constants: A =      0.04540  B =      0.03293  C =      0.03000 [cm^-1]
  Rotational constants: A =   1360.91074  B =    987.06925  C =    899.23661 [MHz]
  Nuclear repulsion =    0.000000000000000

  Charge       = -1
  Multiplicity = 1
  Electrons    = 18
  Nalpha       = 9
  Nbeta        = 9

  ==> Algorithm <==

  SCF Algorithm Type is DF.
  DIIS enabled.
  MOM disabled.
  Fractional occupation disabled.
  Guess Type is SAD.
  Energy threshold   = 1.00e-08
  Density threshold  = 1.00e-08
  Integral threshold = 1.00e-12

  ==> Primary Basis <==

  Basis Set: AUG-CC-PVTZ
    Blend: AUG-CC-PVTZ
    Number of shells: 144
    Number of basis functions: 418
    Number of Cartesian functions: 479
    Spherical Harmonics?: true
    Max angular momentum: 3

   => Loading Basis Set <=

    Name: (AUG-CC-PVTZ AUX)
    Role: JKFIT
    Keyword: DF_BASIS_SCF
    atoms 1                     entry CL         line   816 file /home/kchung25/anaconda3/envs/p415env/share/psi4/basis/aug-cc-pvtz-jkfit.gbs 
    atoms 2, 5, 8, 11           entry O          line   286 file /home/kchung25/anaconda3/envs/p415env/share/psi4/basis/aug-cc-pvtz-jkfit.gbs 
    atoms 3-4, 6-7, 9-10, 12-13 entry H          line    70 file /home/kchung25/anaconda3/envs/p415env/share/psi4/basis/aug-cc-pvtz-jkfit.gbs 

  ==> Integral Setup <==

  DFHelper Memory: AOs need 1.139 GiB; user supplied 41.910 GiB. 
  Using in-core AOs.

  ==> MemDFJK: Density-Fitted J/K Matrices <==

    J tasked:                   Yes
    K tasked:                   Yes
    wK tasked:                   No
    OpenMP threads:               6
    Memory [MiB]:             42915
    Algorithm:                 Core
    Schwarz Cutoff:           1E-12
    Mask sparsity (%):       9.9643
    Fitting Condition:        1E-10

   => Auxiliary Basis Set <=

  Basis Set: (AUG-CC-PVTZ AUX)
    Blend: AUG-CC-PVTZ-JKFIT
    Number of shells: 274
    Number of basis functions: 930
    Number of Cartesian functions: 1144
    Spherical Harmonics?: true
    Max angular momentum: 4

  Minimum eigenvalue in the overlap matrix is 1.7952856540E-04.
  Reciprocal condition number of the overlap matrix is 1.5692255422E-05.
    Using symmetric orthogonalization.

  ==> Pre-Iterations <==

  SCF Guess: Superposition of Atomic Densities via on-the-fly atomic UHF (no occupation information).

   -------------------------
    Irrep   Nso     Nmo    
   -------------------------
     A        418     418 
   -------------------------
    Total     418     418
   -------------------------

  ==> Iterations <==

                           Total Energy        Delta E     RMS |[F,P]|

   @DF-RHF iter SAD:  -459.11248998611313   -4.59112e+02   0.00000e+00 
   @DF-RHF iter   1:  -459.51389088717906   -4.01401e-01   7.14728e-04 ADIIS/DIIS
   @DF-RHF iter   2:  -459.56480786326011   -5.09170e-02   3.66370e-04 ADIIS/DIIS
   @DF-RHF iter   3:  -459.57350765192325   -8.69979e-03   2.55159e-05 DIIS
   @DF-RHF iter   4:  -459.57356522707136   -5.75751e-05   5.01291e-06 DIIS
   @DF-RHF iter   5:  -459.57356884448387   -3.61741e-06   5.13558e-07 DIIS
   @DF-RHF iter   6:  -459.57356892638370   -8.18998e-08   4.58587e-08 DIIS
   @DF-RHF iter   7:  -459.57356892734782   -9.64121e-10   5.22327e-09 DIIS
  Energy and wave function converged.


  ==> Post-Iterations <==

    Orbital Energies [Eh]
    ---------------------

    Doubly Occupied:                                                      

       1A   -104.507158     2A    -10.230036     3A     -7.696104  
       4A     -7.696093     5A     -7.696076     6A     -0.733473  
       7A     -0.150314     8A     -0.150310     9A     -0.150308  

    Virtual:                                                              

      10A      0.121422    11A      0.132564    12A      0.137081  
      13A      0.141411    14A      0.161725    15A      0.166757  
      16A      0.176624    17A      0.185059    18A      0.237502  
      19A      0.245342    20A      0.248457    21A      0.254270  
      22A      0.263213    23A      0.268034    24A      0.268821  
      25A      0.272661    26A      0.284403    27A      0.291224  
      28A      0.300745    29A      0.305616    30A      0.314938  
      31A      0.318206    32A      0.327214    33A      0.335413  
      34A      0.338794    35A      0.346639    36A      0.373289  
      37A      0.390190    38A      0.410192    39A      0.413208  
      40A      0.426407    41A      0.434958    42A      0.440097  
      43A      0.450000    44A      0.459274    45A      0.466541  
      46A      0.474629    47A      0.477964    48A      0.478081  
      49A      0.492460    50A      0.496067    51A      0.510350  
      52A      0.516481    53A      0.520105    54A      0.527961  
      55A      0.536319    56A      0.546531    57A      0.559031  
      58A      0.567307    59A      0.576518    60A      0.581782  
      61A      0.596073    62A      0.635218    63A      0.643623  
      64A      0.656504    65A      0.672163    66A      0.676093  
      67A      0.690768    68A      0.710196    69A      0.722187  
      70A      0.731223    71A      0.735115    72A      0.762072  
      73A      0.779294    74A      0.795849    75A      0.818861  
      76A      0.838582    77A      0.848580    78A      0.868477  
      79A      0.883930    80A      0.892599    81A      0.911644  
      82A      0.913123    83A      0.929390    84A      0.929572  
      85A      0.943239    86A      0.944134    87A      0.947882  
      88A      0.956362    89A      0.967566    90A      0.969855  
      91A      0.971838    92A      0.984411    93A      0.987068  
      94A      0.990089    95A      0.997197    96A      1.006547  
      97A      1.010123    98A      1.017353    99A      1.027381  
     100A      1.031265   101A      1.037853   102A      1.044449  
     103A      1.056873   104A      1.063318   105A      1.081334  
     106A      1.082607   107A      1.086763   108A      1.105219  
     109A      1.112171   110A      1.119563   111A      1.123407  
     112A      1.136601   113A      1.139883   114A      1.147275  
     115A      1.153401   116A      1.162925   117A      1.166821  
     118A      1.182638   119A      1.187427   120A      1.190971  
     121A      1.207276   122A      1.209614   123A      1.213282  
     124A      1.224066   125A      1.240252   126A      1.246782  
     127A      1.260924   128A      1.267014   129A      1.279410  
     130A      1.284173   131A      1.292466   132A      1.308710  
     133A      1.323880   134A      1.327502   135A      1.346416  
     136A      1.349762   137A      1.358736   138A      1.364858  
     139A      1.391679   140A      1.413840   141A      1.423783  
     142A      1.440392   143A      1.447174   144A      1.459555  
     145A      1.480848   146A      1.497583   147A      1.513486  
     148A      1.525664   149A      1.532542   150A      1.559352  
     151A      1.572397   152A      1.573356   153A      1.617401  
     154A      1.620978   155A      1.622402   156A      1.642368  
     157A      1.654147   158A      1.668620   159A      1.726975  
     160A      1.748107   161A      1.769614   162A      1.785302  
     163A      1.804253   164A      1.819740   165A      1.836928  
     166A      1.857859   167A      1.874062   168A      1.880809  
     169A      1.893163   170A      1.901853   171A      1.913024  
     172A      1.924421   173A      1.928281   174A      1.941346  
     175A      1.951680   176A      1.962143   177A      1.975869  
     178A      1.991254   179A      1.997938   180A      2.018018  
     181A      2.022738   182A      2.035528   183A      2.052332  
     184A      2.068063   185A      2.070780   186A      2.092742  
     187A      2.116063   188A      2.129233   189A      2.152893  
     190A      2.157015   191A      2.192240   192A      2.225243  
     193A      2.262250   194A      2.290759   195A      2.306318  
     196A      2.403160   197A      2.412568   198A      2.449229  
     199A      2.592028   200A      2.605223   201A      2.615342  
     202A      2.620595   203A      2.633210   204A      2.645886  
     205A      2.656731   206A      2.662163   207A      2.676764  
     208A      2.699809   209A      2.711862   210A      2.735485  
     211A      2.750545   212A      2.769877   213A      2.776309  
     214A      2.793637   215A      2.801469   216A      2.803577  
     217A      2.810859   218A      2.826655   219A      2.836535  
     220A      2.844744   221A      2.854513   222A      2.857042  
     223A      2.877580   224A      2.891594   225A      2.902598  
     226A      2.925159   227A      2.932295   228A      2.941626  
     229A      2.948982   230A      2.994248   231A      3.054249  
     232A      3.069584   233A      3.111546   234A      3.121304  
     235A      3.135109   236A      3.194420   237A      3.210378  
     238A      3.233863   239A      3.306127   240A      3.327034  
     241A      3.337197   242A      3.350368   243A      3.363775  
     244A      3.380676   245A      3.384227   246A      3.391688  
     247A      3.401123   248A      3.410650   249A      3.435858  
     250A      3.460081   251A      3.481994   252A      3.509828  
     253A      3.540614   254A      3.562307   255A      3.574866  
     256A      3.608401   257A      3.614232   258A      3.621087  
     259A      3.653885   260A      3.663712   261A      3.674306  
     262A      3.682987   263A      3.688358   264A      3.713077  
     265A      3.740578   266A      3.759505   267A      3.785961  
     268A      3.796420   269A      3.810067   270A      3.857070  
     271A      3.931311   272A      3.942891   273A      3.966957  
     274A      3.970621   275A      4.005980   276A      4.014334  
     277A      4.135919   278A      4.568571   279A      4.591068  
     280A      4.598280   281A      4.615618   282A      4.629259  
     283A      4.640318   284A      4.643053   285A      4.680829  
     286A      4.689441   287A      4.735581   288A      4.756582  
     289A      4.769471   290A      4.788484   291A      4.801008  
     292A      4.816542   293A      4.835427   294A      4.859400  
     295A      4.878791   296A      4.896443   297A      4.904833  
     298A      5.023550   299A      5.035707   300A      5.044165  
     301A      5.054611   302A      5.059483   303A      5.071456  
     304A      5.090443   305A      5.106362   306A      5.134080  
     307A      5.150815   308A      5.181121   309A      5.209502  
     310A      5.219902   311A      5.259266   312A      5.289102  
     313A      5.344254   314A      5.361017   315A      5.410756  
     316A      5.487408   317A      5.504221   318A      5.537567  
     319A      5.614850   320A      5.719161   321A      5.730662  
     322A      5.763629   323A      5.802781   324A      5.806674  
     325A      5.813150   326A      5.835175   327A      5.846338  
     328A      5.882357   329A      5.897248   330A      5.945597  
     331A      6.005537   332A      6.048132   333A      6.111974  
     334A      6.303265   335A      6.335902   336A      6.339036  
     337A      6.392896   338A      6.395405   339A      6.548184  
     340A      6.598874   341A      6.629012   342A      6.773447  
     343A      6.867004   344A      6.884343   345A      7.069815  
     346A      7.117916   347A      7.266446   348A      7.316068  
     349A      7.352774   350A      7.499691   351A      7.838317  
     352A      7.865767   353A      7.895161   354A      7.898427  
     355A      7.923600   356A      7.960708   357A      7.987127  
     358A      8.101281   359A      8.205504   360A      8.220290  
     361A      8.247593   362A      8.338177   363A      8.342476  
     364A      8.361456   365A      8.376871   366A      8.393271  
     367A      8.454214   368A      8.461575   369A      8.482476  
     370A      8.621110   371A      8.739600   372A      8.870170  
     373A      8.974711   374A      8.995351   375A      9.022718  
     376A      9.096027   377A      9.169068   378A      9.322949  
     379A      9.837789   380A      9.879105   381A      9.892796  
     382A      9.945170   383A     10.017993   384A     10.040545  
     385A     10.043612   386A     10.062664   387A     10.202654  
     388A     10.214877   389A     10.263288   390A     10.273195  
     391A     10.446091   392A     10.484693   393A     10.487870  
     394A     10.514027   395A     11.050129   396A     11.364661  
     397A     11.383265   398A     11.483630   399A     11.792743  
     400A     11.857264   401A     11.904887   402A     11.925267  
     403A     11.987148   404A     12.325629   405A     12.397741  
     406A     12.502971   407A     13.467791   408A     13.770866  
     409A     13.818865   410A     13.907781   411A     14.094955  
     412A     14.117514   413A     14.122644   414A     14.165179  
     415A     63.732347   416A     65.590043   417A     66.794593  
     418A     67.737395  

    Final Occupation by Irrep:
              A 
    DOCC [     9 ]
    NA   [     9 ]
    NB   [     9 ]

  @DF-RHF Final Energy:  -459.57356892734782

   => Energetics <=

    Nuclear Repulsion Energy =              0.0000000000000000
    One-Electron Energy =                -641.1274054788909780
    Two-Electron Energy =                 181.5538365515431565
    Total Energy =                       -459.5735689273478215

Computation Completed


Properties will be evaluated at   0.000000,   0.000000,   0.000000 [a0]

Properties computed using the SCF density matrix


 Multipole Moments:

 ------------------------------------------------------------------------------------
     Multipole            Electronic (a.u.)      Nuclear  (a.u.)        Total (a.u.)
 ------------------------------------------------------------------------------------

 L = 1.  Multiply by 2.5417464519 to convert [e a0] to [Debye]
 Dipole X            :         -0.0002824            0.0000000           -0.0002824
 Dipole Y            :          0.0000366            0.0000000            0.0000366
 Dipole Z            :         -0.0005458            0.0000000           -0.0005458
 Magnitude           :                                                    0.0006156

 ------------------------------------------------------------------------------------

*** tstop() called on moses-razer at Sat Jan  6 22:44:49 2024
Module time:
	user time   =      21.96 seconds =       0.37 minutes
	system time =       1.04 seconds =       0.02 minutes
	total time  =          5 seconds =       0.08 minutes
Total time:
	user time   =      61.18 seconds =       1.02 minutes
	system time =       2.87 seconds =       0.05 minutes
	total time  =         13 seconds =       0.22 minutes

*** tstart() called on moses-razer
*** at Sat Jan  6 22:44:49 2024


  //>>>>>>>>>>>>>>>>>>>>>>>>>>>>>>>>>>>//
  //               DFMP2               //
  //<<<<<<<<<<<<<<<<<<<<<<<<<<<<<<<<<<<//

   => Loading Basis Set <=

    Name: (AUG-CC-PVTZ AUX)
    Role: RIFIT
    Keyword: DF_BASIS_MP2
    atoms 1                     entry CL         line   742 file /home/kchung25/anaconda3/envs/p415env/share/psi4/basis/aug-cc-pvtz-ri.gbs 
    atoms 2, 5, 8, 11           entry O          line   264 file /home/kchung25/anaconda3/envs/p415env/share/psi4/basis/aug-cc-pvtz-ri.gbs 
    atoms 3-4, 6-7, 9-10, 12-13 entry H          line    30 file /home/kchung25/anaconda3/envs/p415env/share/psi4/basis/aug-cc-pvtz-ri.gbs 

	 --------------------------------------------------------
	                          DF-MP2                         
	      2nd-Order Density-Fitted Moller-Plesset Theory     
	              RMP2 Wavefunction,   6 Threads             
	                                                         
	        Rob Parrish, Justin Turney, Andy Simmonett,      
	           Ed Hohenstein, and C. David Sherrill          
	 --------------------------------------------------------

   => Auxiliary Basis Set <=

  Basis Set: (AUG-CC-PVTZ AUX)
    Blend: AUG-CC-PVTZ-RI
    Number of shells: 261
    Number of basis functions: 939
    Number of Cartesian functions: 1175
    Spherical Harmonics?: true
    Max angular momentum: 4

	 --------------------------------------------------------
	                 NBF =   418, NAUX =   939
	 --------------------------------------------------------
	   CLASS    FOCC     OCC    AOCC    AVIR     VIR    FVIR
	   PAIRS       0       9       9     409     409       0
	 --------------------------------------------------------

	-----------------------------------------------------------
	 ==================> DF-MP2 Energies <==================== 
	-----------------------------------------------------------
	 Reference Energy          =    -459.5735689273478215 [Eh]
	 Singles Energy            =      -0.0000000000000000 [Eh]
	 Same-Spin Energy          =      -0.0634286208572241 [Eh]
	 Opposite-Spin Energy      =      -0.1834085389192673 [Eh]
	 Correlation Energy        =      -0.2468371597764913 [Eh]
	 Total Energy              =    -459.8204060871242973 [Eh]
	-----------------------------------------------------------
	 ================> DF-SCS-MP2 Energies <================== 
	-----------------------------------------------------------
	 SCS Same-Spin Scale       =       0.3333333333333333 [-]
	 SCS Opposite-Spin Scale   =       1.2000000000000000 [-]
	 SCS Same-Spin Energy      =      -0.0211428736190747 [Eh]
	 SCS Opposite-Spin Energy  =      -0.2200902467031207 [Eh]
	 SCS Correlation Energy    =      -0.2412331203221954 [Eh]
	 SCS Total Energy          =    -459.8148020476700140 [Eh]
	-----------------------------------------------------------


*** tstop() called on moses-razer at Sat Jan  6 22:44:51 2024
Module time:
	user time   =       7.85 seconds =       0.13 minutes
	system time =       0.47 seconds =       0.01 minutes
	total time  =          2 seconds =       0.03 minutes
Total time:
	user time   =      69.03 seconds =       1.15 minutes
	system time =       3.34 seconds =       0.06 minutes
	total time  =         15 seconds =       0.25 minutes

    Psi4 stopped on: Saturday, 06 January 2024 10:44PM
    Psi4 wall time for execution: 0:00:06.31


    -----------------------------------------------------------------------
          Psi4: An Open-Source Ab Initio Electronic Structure Package
                               Psi4 1.9 release

                         Git: Rev {} zzzzzzz 


    D. G. A. Smith, L. A. Burns, A. C. Simmonett, R. M. Parrish,
    M. C. Schieber, R. Galvelis, P. Kraus, H. Kruse, R. Di Remigio,
    A. Alenaizan, A. M. James, S. Lehtola, J. P. Misiewicz, M. Scheurer,
    R. A. Shaw, J. B. Schriber, Y. Xie, Z. L. Glick, D. A. Sirianni,
    J. S. O'Brien, J. M. Waldrop, A. Kumar, E. G. Hohenstein,
    B. P. Pritchard, B. R. Brooks, H. F. Schaefer III, A. Yu. Sokolov,
    K. Patkowski, A. E. DePrince III, U. Bozkaya, R. A. King,
    F. A. Evangelista, J. M. Turney, T. D. Crawford, C. D. Sherrill,
    J. Chem. Phys. 152(18) 184108 (2020). https://doi.org/10.1063/5.0006002

                            Additional Code Authors
    E. T. Seidl, C. L. Janssen, E. F. Valeev, M. L. Leininger,
    J. F. Gonthier, R. M. Richard, H. R. McAlexander, M. Saitow, X. Wang,
    P. Verma, M. H. Lechner, A. Jiang, S. Behnle, A. G. Heide,
    M. F. Herbst, and D. L. Poole

             Previous Authors, Complete List of Code Contributors,
                       and Citations for Specific Modules
    https://github.com/psi4/psi4/blob/master/codemeta.json
    https://github.com/psi4/psi4/graphs/contributors
    http://psicode.org/psi4manual/master/introduction.html#citing-psifour

    -----------------------------------------------------------------------


    Psi4 started on: Saturday, 06 January 2024 10:44PM

    Process ID: 558668
    Host:       moses-razer
    PSIDATADIR: /home/kchung25/anaconda3/envs/psi4_19/share/psi4
    Memory:     55.9 GiB
    Threads:    6
    
  ==> Input QCSchema <==

--------------------------------------------------------------------------
{'driver': 'energy',
 'extras': {'psiapi': True, 'wfn_qcvars_only': True},
 'id': None,
 'keywords': {'SCF_TYPE': 'DF', 'function_kwargs': {}},
 'model': {'basis': 'aug-cc-pvtz', 'method': 'mp2'},
 'molecule': {'atom_labels': ['', '', '', '', '', '', '', '', '', '', '', '', ''],
              'atomic_numbers': [17, 8, 1, 1, 8, 1, 1, 8, 1, 1, 8, 1, 1],
              'extras': {},
              'fix_com': True,
              'fix_orientation': True,
              'fix_symmetry': 'c1',
              'fragment_charges': [-1.0, 0.0],
              'fragment_multiplicities': [1, 1],
              'fragments': [[0], [1, 2, 3, 4, 5, 6, 7, 8, 9, 10, 11, 12]],
              'geometry': [0.0, 0.0, 0.0, -4.634422931582667, 2.2289622005955154, -2.615044586383303,
                           -3.4732996110563588, 1.1946054880171697, -1.691308661737007, -4.007026299026166,
                           3.8322852139312062, -3.059708482060282, -2.206716344646626, -5.517839659616194,
                           -1.7750669927956744, -3.3348752826404477, -5.404898288002081, -0.3634151209129204,
                           -1.328067395627629, -3.9549378881040465, -1.5718458452639397, 2.110778728709383,
                           5.462550052637549, -0.5185427385517535, 2.0310889779988264, 3.629145324622866,
                           -0.751956040389928, 3.6060868864400297, 6.017288605396322, -1.326073734565271,
                           2.310388609615368, -0.6858515307952878, -5.7892062209580635, 3.900540231856618,
                           -1.43287160654552, -5.144189782007794, 1.2376874642253572, -0.06662985345751755,
                           -4.291571810366979],
              'mass_numbers': [35, 16, 1, 1, 16, 1, 1, 16, 1, 1, 16, 1, 1],
              'masses': [34.968852682, 15.99491461957, 1.00782503223, 1.00782503223, 15.99491461957, 1.00782503223,
                         1.00782503223, 15.99491461957, 1.00782503223, 1.00782503223, 15.99491461957, 1.00782503223,
                         1.00782503223],
              'molecular_charge': -1.0,
              'molecular_multiplicity': 1,
              'name': 'dimer',
              'provenance': {'creator': 'QCElemental',
                             'routine': 'qcelemental.molparse.from_string',
                             'version': '0.27.1'},
              'real': [True, True, True, True, True, True, True, True, True, True, True, True, True],
              'schema_name': 'qcschema_molecule',
              'schema_version': 2,
              'symbols': ['Cl', 'O', 'H', 'H', 'O', 'H', 'H', 'O', 'H', 'H', 'O', 'H', 'H'],
              'validated': True},
 'protocols': {'stdout': True},
 'provenance': {'creator': 'QCElemental', 'routine': 'qcelemental.models.results', 'version': '0.27.1'},
 'schema_name': 'qcschema_input',
 'schema_version': 1}
--------------------------------------------------------------------------

Scratch directory: /scratch/
   => Libint2 <=

    Primary   basis highest AM E, G, H:  5, 4, 3
    Auxiliary basis highest AM E, G, H:  6, 5, 4
    Onebody   basis highest AM E, G, H:  6, 5, 4
    Solid Harmonics ordering:            gaussian

*** tstart() called on moses-razer
*** at Sat Jan  6 22:44:51 2024

   => Loading Basis Set <=

    Name: AUG-CC-PVTZ
    Role: ORBITAL
    Keyword: BASIS
    atoms 1                     entry CL         line   988 file /home/kchung25/anaconda3/envs/p415env/share/psi4/basis/aug-cc-pvtz.gbs 
    atoms 2, 5, 8, 11           entry O          line   331 file /home/kchung25/anaconda3/envs/p415env/share/psi4/basis/aug-cc-pvtz.gbs 
    atoms 3-4, 6-7, 9-10, 12-13 entry H          line    40 file /home/kchung25/anaconda3/envs/p415env/share/psi4/basis/aug-cc-pvtz.gbs 


         ---------------------------------------------------------
                                   SCF
               by Justin Turney, Rob Parrish, Andy Simmonett
                          and Daniel G. A. Smith
                              RHF Reference
                        6 Threads,  57220 MiB Core
         ---------------------------------------------------------

  ==> Geometry <==

    Molecular point group: c1
    Full point group: C1

    Geometry (in Bohr), charge = -1, multiplicity = 1:

       Center              X                  Y                   Z               Mass       
    ------------   -----------------  -----------------  -----------------  -----------------
         CL           0.000000000000     0.000000000000     0.000000000000    34.968852682000
         O           -4.634422931583     2.228962200596    -2.615044586383    15.994914619570
         H           -3.473299611056     1.194605488017    -1.691308661737     1.007825032230
         H           -4.007026299026     3.832285213931    -3.059708482060     1.007825032230
         O           -2.206716344647    -5.517839659616    -1.775066992796    15.994914619570
         H           -3.334875282640    -5.404898288002    -0.363415120913     1.007825032230
         H           -1.328067395628    -3.954937888104    -1.571845845264     1.007825032230
         O            2.110778728709     5.462550052638    -0.518542738552    15.994914619570
         H            2.031088977999     3.629145324623    -0.751956040390     1.007825032230
         H            3.606086886440     6.017288605396    -1.326073734565     1.007825032230
         O            2.310388609615    -0.685851530795    -5.789206220958    15.994914619570
         H            3.900540231857    -1.432871606546    -5.144189782008     1.007825032230
         H            1.237687464225    -0.066629853458    -4.291571810367     1.007825032230

  Running in c1 symmetry.

  Rotational constants: A =      0.04540  B =      0.03293  C =      0.03000 [cm^-1]
  Rotational constants: A =   1360.91074  B =    987.06925  C =    899.23661 [MHz]
  Nuclear repulsion =  225.449687198908975

  Charge       = -1
  Multiplicity = 1
  Electrons    = 58
  Nalpha       = 29
  Nbeta        = 29

  ==> Algorithm <==

  SCF Algorithm Type is DF.
  DIIS enabled.
  MOM disabled.
  Fractional occupation disabled.
  Guess Type is SAD.
  Energy threshold   = 1.00e-08
  Density threshold  = 1.00e-08
  Integral threshold = 1.00e-12

  ==> Primary Basis <==

  Basis Set: AUG-CC-PVTZ
    Blend: AUG-CC-PVTZ
    Number of shells: 144
    Number of basis functions: 418
    Number of Cartesian functions: 479
    Spherical Harmonics?: true
    Max angular momentum: 3

   => Loading Basis Set <=

    Name: (AUG-CC-PVTZ AUX)
    Role: JKFIT
    Keyword: DF_BASIS_SCF
    atoms 1                     entry CL         line   816 file /home/kchung25/anaconda3/envs/p415env/share/psi4/basis/aug-cc-pvtz-jkfit.gbs 
    atoms 2, 5, 8, 11           entry O          line   286 file /home/kchung25/anaconda3/envs/p415env/share/psi4/basis/aug-cc-pvtz-jkfit.gbs 
    atoms 3-4, 6-7, 9-10, 12-13 entry H          line    70 file /home/kchung25/anaconda3/envs/p415env/share/psi4/basis/aug-cc-pvtz-jkfit.gbs 

  ==> Integral Setup <==

  DFHelper Memory: AOs need 1.139 GiB; user supplied 41.910 GiB. 
  Using in-core AOs.

  ==> MemDFJK: Density-Fitted J/K Matrices <==

    J tasked:                   Yes
    K tasked:                   Yes
    wK tasked:                   No
    OpenMP threads:               6
    Memory [MiB]:             42915
    Algorithm:                 Core
    Schwarz Cutoff:           1E-12
    Mask sparsity (%):       9.9643
    Fitting Condition:        1E-10

   => Auxiliary Basis Set <=

  Basis Set: (AUG-CC-PVTZ AUX)
    Blend: AUG-CC-PVTZ-JKFIT
    Number of shells: 274
    Number of basis functions: 930
    Number of Cartesian functions: 1144
    Spherical Harmonics?: true
    Max angular momentum: 4

  Minimum eigenvalue in the overlap matrix is 1.7952856540E-04.
  Reciprocal condition number of the overlap matrix is 1.5692255422E-05.
    Using symmetric orthogonalization.

  ==> Pre-Iterations <==

  SCF Guess: Superposition of Atomic Densities via on-the-fly atomic UHF (no occupation information).

   -------------------------
    Irrep   Nso     Nmo    
   -------------------------
     A        418     418 
   -------------------------
    Total     418     418
   -------------------------

  ==> Iterations <==

                           Total Energy        Delta E     RMS |[F,P]|

   @DF-RHF iter SAD:  -761.28219648825541   -7.61282e+02   0.00000e+00 
   @DF-RHF iter   1:  -763.50030449936230   -2.21811e+00   2.30671e-03 ADIIS/DIIS
   @DF-RHF iter   2:  -763.72378914460387   -2.23485e-01   1.56389e-03 ADIIS/DIIS
   @DF-RHF iter   3:  -763.85534595405306   -1.31557e-01   1.14011e-04 ADIIS/DIIS
   @DF-RHF iter   4:  -763.85706839368015   -1.72244e-03   4.16716e-05 DIIS
   @DF-RHF iter   5:  -763.85725310277235   -1.84709e-04   9.94948e-06 DIIS
   @DF-RHF iter   6:  -763.85726936383674   -1.62611e-05   3.82690e-06 DIIS
   @DF-RHF iter   7:  -763.85727128432347   -1.92049e-06   1.22135e-06 DIIS
   @DF-RHF iter   8:  -763.85727156151449   -2.77191e-07   2.91183e-07 DIIS
   @DF-RHF iter   9:  -763.85727158201348   -2.04990e-08   5.87708e-08 DIIS
   @DF-RHF iter  10:  -763.85727158274574   -7.32257e-10   2.01612e-08 DIIS
   @DF-RHF iter  11:  -763.85727158278769   -4.19504e-11   6.63484e-09 DIIS
  Energy and wave function converged.


  ==> Post-Iterations <==

    Orbital Energies [Eh]
    ---------------------

    Doubly Occupied:                                                      

       1A   -104.584146     2A    -20.419730     3A    -20.416714  
       4A    -20.410798     5A    -20.389410     6A    -10.309763  
       7A     -7.775850     8A     -7.775819     9A     -7.775769  
      10A     -1.202978    11A     -1.202359    12A     -1.184304  
      13A     -1.175857    14A     -0.830650    15A     -0.576937  
      16A     -0.572558    17A     -0.553772    18A     -0.549717  
      19A     -0.445592    20A     -0.436095    21A     -0.421370  
      22A     -0.407878    23A     -0.362985    24A     -0.357928  
      25A     -0.355343    26A     -0.342338    27A     -0.242582  
      28A     -0.238389    29A     -0.236800  

    Virtual:                                                              

      30A      0.116928    31A      0.131445    32A      0.135462  
      33A      0.143595    34A      0.168501    35A      0.173522  
      36A      0.182963    37A      0.187896    38A      0.236488  
      39A      0.246929    40A      0.255824    41A      0.269512  
      42A      0.274417    43A      0.277418    44A      0.283706  
      45A      0.285734    46A      0.292247    47A      0.301466  
      48A      0.313684    49A      0.322857    50A      0.332013  
      51A      0.336090    52A      0.342127    53A      0.351972  
      54A      0.356256    55A      0.357168    56A      0.362934  
      57A      0.373136    58A      0.384240    59A      0.391475  
      60A      0.414420    61A      0.415724    62A      0.418564  
      63A      0.426752    64A      0.444118    65A      0.453320  
      66A      0.460509    67A      0.461291    68A      0.467302  
      69A      0.489982    70A      0.494498    71A      0.507112  
      72A      0.514034    73A      0.519767    74A      0.531004  
      75A      0.554812    76A      0.560133    77A      0.567374  
      78A      0.578277    79A      0.589147    80A      0.598814  
      81A      0.602117    82A      0.614199    83A      0.622208  
      84A      0.640289    85A      0.646159    86A      0.665542  
      87A      0.688013    88A      0.696550    89A      0.702719  
      90A      0.713614    91A      0.735524    92A      0.738960  
      93A      0.764869    94A      0.774929    95A      0.794661  
      96A      0.814391    97A      0.826125    98A      0.834742  
      99A      0.846279   100A      0.851115   101A      0.866943  
     102A      0.873288   103A      0.880457   104A      0.888416  
     105A      0.890490   106A      0.893115   107A      0.898469  
     108A      0.905411   109A      0.911554   110A      0.922996  
     111A      0.929739   112A      0.941110   113A      0.953099  
     114A      0.971052   115A      0.976139   116A      0.984780  
     117A      1.004910   118A      1.012543   119A      1.028380  
     120A      1.031892   121A      1.034787   122A      1.037072  
     123A      1.048396   124A      1.061227   125A      1.065222  
     126A      1.079980   127A      1.088841   128A      1.094722  
     129A      1.097943   130A      1.103972   131A      1.109371  
     132A      1.116487   133A      1.129310   134A      1.133088  
     135A      1.142632   136A      1.149787   137A      1.150432  
     138A      1.160961   139A      1.164152   140A      1.167305  
     141A      1.175463   142A      1.186746   143A      1.199234  
     144A      1.205229   145A      1.211444   146A      1.218594  
     147A      1.229584   148A      1.236092   149A      1.244801  
     150A      1.259462   151A      1.272432   152A      1.289787  
     153A      1.295721   154A      1.301877   155A      1.312254  
     156A      1.328984   157A      1.331235   158A      1.352161  
     159A      1.358765   160A      1.364731   161A      1.373357  
     162A      1.388552   163A      1.396912   164A      1.407903  
     165A      1.424829   166A      1.434370   167A      1.449779  
     168A      1.459018   169A      1.477820   170A      1.501425  
     171A      1.525999   172A      1.531992   173A      1.558988  
     174A      1.576464   175A      1.593466   176A      1.601604  
     177A      1.623472   178A      1.636279   179A      1.641609  
     180A      1.667265   181A      1.674873   182A      1.699577  
     183A      1.704645   184A      1.709719   185A      1.735491  
     186A      1.753148   187A      1.759484   188A      1.776549  
     189A      1.789642   190A      1.794606   191A      1.820184  
     192A      1.831418   193A      1.841441   194A      1.860724  
     195A      1.870629   196A      1.901919   197A      1.920182  
     198A      1.925435   199A      1.956056   200A      1.971671  
     201A      2.000678   202A      2.016448   203A      2.029336  
     204A      2.078711   205A      2.084215   206A      2.110463  
     207A      2.144534   208A      2.150240   209A      2.153465  
     210A      2.189467   211A      2.202933   212A      2.246777  
     213A      2.276301   214A      2.347537   215A      2.427262  
     216A      2.441104   217A      2.445875   218A      2.460941  
     219A      2.474045   220A      2.500168   221A      2.525085  
     222A      2.527206   223A      2.553992   224A      2.569254  
     225A      2.572210   226A      2.581732   227A      2.590183  
     228A      2.600256   229A      2.604165   230A      2.622287  
     231A      2.633836   232A      2.638562   233A      2.642366  
     234A      2.651701   235A      2.657815   236A      2.664936  
     237A      2.671219   238A      2.679587   239A      2.693761  
     240A      2.714448   241A      2.731259   242A      2.744222  
     243A      2.754721   244A      2.780222   245A      2.807865  
     246A      2.866038   247A      2.880551   248A      2.894484  
     249A      2.899711   250A      2.913810   251A      2.917052  
     252A      2.929656   253A      2.948776   254A      2.967279  
     255A      2.984873   256A      2.988156   257A      3.004325  
     258A      3.014826   259A      3.040685   260A      3.071215  
     261A      3.075808   262A      3.100039   263A      3.117740  
     264A      3.130616   265A      3.147348   266A      3.155306  
     267A      3.161713   268A      3.198921   269A      3.243535  
     270A      3.310545   271A      3.370243   272A      3.427049  
     273A      3.437289   274A      3.526357   275A      3.561149  
     276A      3.595577   277A      3.614424   278A      3.654880  
     279A      3.737372   280A      3.767983   281A      3.851908  
     282A      3.857527   283A      3.896566   284A      3.933330  
     285A      3.956107   286A      4.077208   287A      4.115048  
     288A      4.152878   289A      4.186309   290A      4.197466  
     291A      4.230964   292A      4.252552   293A      4.263046  
     294A      4.314154   295A      4.345740   296A      4.364229  
     297A      4.384580   298A      4.402975   299A      4.407444  
     300A      4.438886   301A      4.444132   302A      4.456907  
     303A      4.478654   304A      4.483488   305A      4.499413  
     306A      4.507722   307A      4.528492   308A      4.545136  
     309A      4.551100   310A      4.557675   311A      4.559053  
     312A      4.570438   313A      4.589535   314A      4.598556  
     315A      4.614333   316A      4.622189   317A      4.634251  
     318A      4.649795   319A      4.661891   320A      4.685899  
     321A      4.720114   322A      4.758025   323A      4.779066  
     324A      4.812876   325A      4.856890   326A      4.869317  
     327A      4.933210   328A      4.948236   329A      4.956191  
     330A      5.010378   331A      5.079958   332A      5.121519  
     333A      5.144125   334A      5.210958   335A      5.236559  
     336A      5.308771   337A      5.319803   338A      5.330478  
     339A      5.347353   340A      5.413862   341A      5.418803  
     342A      5.451929   343A      5.460998   344A      5.463820  
     345A      5.480095   346A      5.528434   347A      5.566710  
     348A      5.584982   349A      5.606556   350A      5.633096  
     351A      5.668698   352A      5.717872   353A      5.729378  
     354A      5.827270   355A      5.829587   356A      5.890825  
     357A      6.061536   358A      6.263734   359A      6.303613  
     360A      6.367882   361A      6.448461   362A      6.690739  
     363A      6.711722   364A      6.760002   365A      6.768622  
     366A      6.895459   367A      6.920103   368A      6.937140  
     369A      6.949555   370A      6.993636   371A      7.038616  
     372A      7.066968   373A      7.180579   374A      7.276097  
     375A      7.291799   376A      7.300084   377A      7.350547  
     378A      7.369663   379A      7.372589   380A      7.431918  
     381A      7.442728   382A      7.452287   383A      7.462200  
     384A      7.474268   385A      7.479170   386A      7.484847  
     387A      7.488184   388A      7.506278   389A      7.511571  
     390A      7.518038   391A      7.530919   392A      7.536754  
     393A      7.585894   394A      7.597075   395A      7.608767  
     396A      7.647755   397A      7.663641   398A      7.762362  
     399A      7.789099   400A      7.836787   401A      7.890967  
     402A      7.982952   403A      7.993821   404A      8.072546  
     405A      8.094158   406A      8.101644   407A      8.145466  
     408A      8.182418   409A      8.206868   410A      8.321448  
     411A      8.681462   412A      8.960255   413A      9.008231  
     414A      9.058852   415A     15.232944   416A     16.314117  
     417A     16.866777   418A     17.387151  

    Final Occupation by Irrep:
              A 
    DOCC [    29 ]
    NA   [    29 ]
    NB   [    29 ]

  @DF-RHF Final Energy:  -763.85727158278769

   => Energetics <=

    Nuclear Repulsion Energy =            225.4496871989089755
    One-Electron Energy =               -1515.5050536871069653
    Two-Electron Energy =                 526.1980949054102439
    Total Energy =                       -763.8572715827876891

Computation Completed


Properties will be evaluated at   0.000000,   0.000000,   0.000000 [a0]

Properties computed using the SCF density matrix


 Multipole Moments:

 ------------------------------------------------------------------------------------
     Multipole            Electronic (a.u.)      Nuclear  (a.u.)        Total (a.u.)
 ------------------------------------------------------------------------------------

 L = 1.  Multiply by 2.5417464519 to convert [e a0] to [Debye]
 Dipole X            :         22.0720604          -20.7276405            1.3444199
 Dipole Y            :        -15.5283056           15.7165555            0.1882499
 Dipole Z            :        105.5572612         -103.7829538            1.7743074
 Magnitude           :                                                    2.2340702

 ------------------------------------------------------------------------------------

*** tstop() called on moses-razer at Sat Jan  6 22:44:56 2024
Module time:
	user time   =      31.26 seconds =       0.52 minutes
	system time =       1.40 seconds =       0.02 minutes
	total time  =          5 seconds =       0.08 minutes
Total time:
	user time   =     100.63 seconds =       1.68 minutes
	system time =       4.74 seconds =       0.08 minutes
	total time  =         20 seconds =       0.33 minutes

*** tstart() called on moses-razer
*** at Sat Jan  6 22:44:56 2024


  //>>>>>>>>>>>>>>>>>>>>>>>>>>>>>>>>>>>//
  //               DFMP2               //
  //<<<<<<<<<<<<<<<<<<<<<<<<<<<<<<<<<<<//

   => Loading Basis Set <=

    Name: (AUG-CC-PVTZ AUX)
    Role: RIFIT
    Keyword: DF_BASIS_MP2
    atoms 1                     entry CL         line   742 file /home/kchung25/anaconda3/envs/p415env/share/psi4/basis/aug-cc-pvtz-ri.gbs 
    atoms 2, 5, 8, 11           entry O          line   264 file /home/kchung25/anaconda3/envs/p415env/share/psi4/basis/aug-cc-pvtz-ri.gbs 
    atoms 3-4, 6-7, 9-10, 12-13 entry H          line    30 file /home/kchung25/anaconda3/envs/p415env/share/psi4/basis/aug-cc-pvtz-ri.gbs 

	 --------------------------------------------------------
	                          DF-MP2                         
	      2nd-Order Density-Fitted Moller-Plesset Theory     
	              RMP2 Wavefunction,   6 Threads             
	                                                         
	        Rob Parrish, Justin Turney, Andy Simmonett,      
	           Ed Hohenstein, and C. David Sherrill          
	 --------------------------------------------------------

   => Auxiliary Basis Set <=

  Basis Set: (AUG-CC-PVTZ AUX)
    Blend: AUG-CC-PVTZ-RI
    Number of shells: 261
    Number of basis functions: 939
    Number of Cartesian functions: 1175
    Spherical Harmonics?: true
    Max angular momentum: 4

	 --------------------------------------------------------
	                 NBF =   418, NAUX =   939
	 --------------------------------------------------------
	   CLASS    FOCC     OCC    AOCC    AVIR     VIR    FVIR
	   PAIRS       0      29      29     389     389       0
	 --------------------------------------------------------

	-----------------------------------------------------------
	 ==================> DF-MP2 Energies <==================== 
	-----------------------------------------------------------
	 Reference Energy          =    -763.8572715827876891 [Eh]
	 Singles Energy            =      -0.0000000000000000 [Eh]
	 Same-Spin Energy          =      -0.3469673496796432 [Eh]
	 Opposite-Spin Energy      =      -1.0555680812339061 [Eh]
	 Correlation Energy        =      -1.4025354309135494 [Eh]
	 Total Energy              =    -765.2598070137012201 [Eh]
	-----------------------------------------------------------
	 ================> DF-SCS-MP2 Energies <================== 
	-----------------------------------------------------------
	 SCS Same-Spin Scale       =       0.3333333333333333 [-]
	 SCS Opposite-Spin Scale   =       1.2000000000000000 [-]
	 SCS Same-Spin Energy      =      -0.1156557832265477 [Eh]
	 SCS Opposite-Spin Energy  =      -1.2666816974806874 [Eh]
	 SCS Correlation Energy    =      -1.3823374807072351 [Eh]
	 SCS Total Energy          =    -765.2396090634948678 [Eh]
	-----------------------------------------------------------


*** tstop() called on moses-razer at Sat Jan  6 22:44:59 2024
Module time:
	user time   =      12.90 seconds =       0.22 minutes
	system time =       0.73 seconds =       0.01 minutes
	total time  =          3 seconds =       0.05 minutes
Total time:
	user time   =     113.53 seconds =       1.89 minutes
	system time =       5.47 seconds =       0.09 minutes
	total time  =         23 seconds =       0.38 minutes

    Psi4 stopped on: Saturday, 06 January 2024 10:44PM
    Psi4 wall time for execution: 0:00:08.79


  //>>>>>>>>>>>>>>>>>>>>>>>>>>>>>>>>>>>//
  //          ManyBody Results         //
  //<<<<<<<<<<<<<<<<<<<<<<<<<<<<<<<<<<<//


   ==> N-Body: Counterpoise Corrected (CP) energies <==

        n-Body     Total Energy            Interaction Energy                          N-body Contribution to Interaction Energy
                   [Eh]                    [Eh]                  [kcal/mol]            [Eh]                  [kcal/mol]
             1  N/A                         0.000000000000        0.000000000000        0.000000000000        0.000000000000
  FULL/RTN   2  N/A                        -0.074335469917      -46.646211610375       -0.074335469917      -46.646211610375


    Psi4 stopped on: Saturday, 06 January 2024 10:45PM
    Psi4 wall time for execution: 0:00:24.69

*** Psi4 exiting successfully. Buy a developer a beer!
