
    -----------------------------------------------------------------------
          Psi4: An Open-Source Ab Initio Electronic Structure Package
                               Psi4 1.8.2 release

                         Git: Rev {} zzzzzzz 


    D. G. A. Smith, L. A. Burns, A. C. Simmonett, R. M. Parrish,
    M. C. Schieber, R. Galvelis, P. Kraus, H. Kruse, R. Di Remigio,
    A. Alenaizan, A. M. James, S. Lehtola, J. P. Misiewicz, M. Scheurer,
    R. A. Shaw, J. B. Schriber, Y. Xie, Z. L. Glick, D. A. Sirianni,
    J. S. O'Brien, J. M. Waldrop, A. Kumar, E. G. Hohenstein,
    B. P. Pritchard, B. R. Brooks, H. F. Schaefer III, A. Yu. Sokolov,
    K. Patkowski, A. E. DePrince III, U. Bozkaya, R. A. King,
    F. A. Evangelista, J. M. Turney, T. D. Crawford, C. D. Sherrill,
    J. Chem. Phys. 152(18) 184108 (2020). https://doi.org/10.1063/5.0006002

                            Additional Code Authors
    E. T. Seidl, C. L. Janssen, E. F. Valeev, M. L. Leininger,
    J. F. Gonthier, R. M. Richard, H. R. McAlexander, M. Saitow, X. Wang,
    P. Verma, M. H. Lechner, A. Jiang, S. Behnle, A. G. Heide,
    M. F. Herbst, and D. L. Poole

             Previous Authors, Complete List of Code Contributors,
                       and Citations for Specific Modules
    https://github.com/psi4/psi4/blob/master/codemeta.json
    https://github.com/psi4/psi4/graphs/contributors
    http://psicode.org/psi4manual/master/introduction.html#citing-psifour

    -----------------------------------------------------------------------


    Psi4 started on: Monday, 22 January 2024 08:31PM

    Process ID: 103985
    Host:       ddmfs1
    PSIDATADIR: /ddmfs1b/softs/psi4conda/share/psi4
    Memory:     500.0 MiB
    Threads:    20
    
  ==> Input File <==

--------------------------------------------------------------------------
MEMORY 60 GB

molecule dimer {
0 1
Gh(Cl)     0.000000     0.000000     0.000000
Gh(O)      1.204895    -0.292806     3.103745
Gh(H)      0.858812    -0.438415     2.264549
Gh(H)      0.985701    -1.004115     3.659773
Gh(O)      0.789525    -2.891032     1.505917
Gh(H)     -0.080665    -2.757418     1.853570
Gh(H)      0.819466    -2.343279     0.748618
Gh(O)     -0.872242     2.463895     1.602122
Gh(H)     -1.313491     2.263765     2.460438
Gh(H)     -0.729683     1.568483     1.276229
O          1.378925     2.839395    -1.431688
H          2.181119     3.120693    -1.891219
H          1.599881     2.296982    -0.701732
Gh(O)     -0.356147    -2.668445    -1.634404
Gh(H)      0.502565    -3.070606    -1.479224
Gh(H)     -0.391807    -1.750591    -1.299217
Gh(O)     -0.586778     0.539437    -3.392799
Gh(H)     -0.357652     0.715562    -2.504387
Gh(H)     -1.194776    -0.217509    -3.459535
Gh(O)     -2.873076    -0.935610     0.706102
Gh(H)     -2.054198    -0.673415     0.344225
Gh(H)     -3.477967    -0.300884     1.099128

units ang
no_reorient
no_com
symmetry c1
}

set {
basis        aug-cc-pVTZ
scf_type     df
}

energy("mp2")
--------------------------------------------------------------------------

  Memory set to  55.879 GiB by Python driver.

Scratch directory: /ddmfs1a/scratch/
   => Libint2 <=

    Primary   basis highest AM E, G, H:  5, 4, 3
    Auxiliary basis highest AM E, G, H:  6, 5, 4
    Onebody   basis highest AM E, G, H:  6, 5, 4
    Solid Harmonics ordering:            gaussian

*** tstart() called on ddmfs1
*** at Mon Jan 22 20:31:58 2024

   => Loading Basis Set <=

    Name: AUG-CC-PVTZ
    Role: ORBITAL
    Keyword: BASIS
    atoms 1                                          entry CL         line   988 file /ddmfs1b/softs/psi4conda/share/psi4/basis/aug-cc-pvtz.gbs 
    atoms 2, 5, 8, 11, 14, 17, 20                    entry O          line   331 file /ddmfs1b/softs/psi4conda/share/psi4/basis/aug-cc-pvtz.gbs 
    atoms 3-4, 6-7, 9-10, 12-13, 15-16, 18-19, 21-22 entry H          line    40 file /ddmfs1b/softs/psi4conda/share/psi4/basis/aug-cc-pvtz.gbs 


         ---------------------------------------------------------
                                   SCF
               by Justin Turney, Rob Parrish, Andy Simmonett
                          and Daniel G. A. Smith
                              RHF Reference
                       20 Threads,  57220 MiB Core
         ---------------------------------------------------------

  ==> Geometry <==

    Molecular point group: c1
    Full point group: C1

    Geometry (in Angstrom), charge = 0, multiplicity = 1:

       Center              X                  Y                   Z               Mass       
    ------------   -----------------  -----------------  -----------------  -----------------
      Gh(CL)          0.000000000000     0.000000000000     0.000000000000    34.968852682000
      Gh(O)           1.204895000000    -0.292806000000     3.103745000000    15.994914619570
      Gh(H)           0.858812000000    -0.438415000000     2.264549000000     1.007825032230
      Gh(H)           0.985701000000    -1.004115000000     3.659773000000     1.007825032230
      Gh(O)           0.789525000000    -2.891032000000     1.505917000000    15.994914619570
      Gh(H)          -0.080665000000    -2.757418000000     1.853570000000     1.007825032230
      Gh(H)           0.819466000000    -2.343279000000     0.748618000000     1.007825032230
      Gh(O)          -0.872242000000     2.463895000000     1.602122000000    15.994914619570
      Gh(H)          -1.313491000000     2.263765000000     2.460438000000     1.007825032230
      Gh(H)          -0.729683000000     1.568483000000     1.276229000000     1.007825032230
         O            1.378925000000     2.839395000000    -1.431688000000    15.994914619570
         H            2.181119000000     3.120693000000    -1.891219000000     1.007825032230
         H            1.599881000000     2.296982000000    -0.701732000000     1.007825032230
      Gh(O)          -0.356147000000    -2.668445000000    -1.634404000000    15.994914619570
      Gh(H)           0.502565000000    -3.070606000000    -1.479224000000     1.007825032230
      Gh(H)          -0.391807000000    -1.750591000000    -1.299217000000     1.007825032230
      Gh(O)          -0.586778000000     0.539437000000    -3.392799000000    15.994914619570
      Gh(H)          -0.357652000000     0.715562000000    -2.504387000000     1.007825032230
      Gh(H)          -1.194776000000    -0.217509000000    -3.459535000000     1.007825032230
      Gh(O)          -2.873076000000    -0.935610000000     0.706102000000    15.994914619570
      Gh(H)          -2.054198000000    -0.673415000000     0.344225000000     1.007825032230
      Gh(H)          -3.477967000000    -0.300884000000     1.099128000000     1.007825032230

  Running in c1 symmetry.

  Rotational constants: A =      0.02297  B =      0.01987  C =      0.01515 [cm^-1]
  Rotational constants: A =    688.73871  B =    595.74876  C =    454.06530 [MHz]
  Nuclear repulsion =    9.243729285566063

  Charge       = 0
  Multiplicity = 1
  Electrons    = 10
  Nalpha       = 5
  Nbeta        = 5

  ==> Algorithm <==

  SCF Algorithm Type is DF.
  DIIS enabled.
  MOM disabled.
  Fractional occupation disabled.
  Guess Type is SAD.
  Energy threshold   = 1.00e-08
  Density threshold  = 1.00e-08
  Integral threshold = 1.00e-12

  ==> Primary Basis <==

  Basis Set: AUG-CC-PVTZ
    Blend: AUG-CC-PVTZ
    Number of shells: 240
    Number of basis functions: 694
    Number of Cartesian functions: 794
    Spherical Harmonics?: true
    Max angular momentum: 3

   => Loading Basis Set <=

    Name: (AUG-CC-PVTZ AUX)
    Role: JKFIT
    Keyword: DF_BASIS_SCF
    atoms 1                                          entry CL         line   816 file /ddmfs1b/softs/psi4conda/share/psi4/basis/aug-cc-pvtz-jkfit.gbs 
    atoms 2, 5, 8, 11, 14, 17, 20                    entry O          line   286 file /ddmfs1b/softs/psi4conda/share/psi4/basis/aug-cc-pvtz-jkfit.gbs 
    atoms 3-4, 6-7, 9-10, 12-13, 15-16, 18-19, 21-22 entry H          line    70 file /ddmfs1b/softs/psi4conda/share/psi4/basis/aug-cc-pvtz-jkfit.gbs 

  ==> Integral Setup <==

  DFHelper Memory: AOs need 4.741 GiB; user supplied 41.910 GiB. 
  Using in-core AOs.

  ==> MemDFJK: Density-Fitted J/K Matrices <==

    J tasked:                   Yes
    K tasked:                   Yes
    wK tasked:                   No
    OpenMP threads:              20
    Memory [MiB]:             42915
    Algorithm:                 Core
    Schwarz Cutoff:           1E-12
    Mask sparsity (%):      16.3721
    Fitting Condition:        1E-10

   => Auxiliary Basis Set <=

  Basis Set: (AUG-CC-PVTZ AUX)
    Blend: AUG-CC-PVTZ-JKFIT
    Number of shells: 448
    Number of basis functions: 1518
    Number of Cartesian functions: 1867
    Spherical Harmonics?: true
    Max angular momentum: 4

  Minimum eigenvalue in the overlap matrix is 8.4640681300E-05.
  Reciprocal condition number of the overlap matrix is 5.7637541969E-06.
    Using symmetric orthogonalization.

  ==> Pre-Iterations <==

  SCF Guess: Superposition of Atomic Densities via on-the-fly atomic UHF (no occupation information).

   -------------------------
    Irrep   Nso     Nmo    
   -------------------------
     A        694     694 
   -------------------------
    Total     694     694
   -------------------------

  ==> Iterations <==

                           Total Energy        Delta E     RMS |[F,P]|

   @DF-RHF iter SAD:   -75.47935533452225   -7.54794e+01   0.00000e+00 
   @DF-RHF iter   1:   -75.97651377848818   -4.97158e-01   6.76815e-04 ADIIS/DIIS
   @DF-RHF iter   2:   -76.02915681546131   -5.26430e-02   4.54935e-04 ADIIS/DIIS
   @DF-RHF iter   3:   -76.05970105547134   -3.05442e-02   3.08694e-05 DIIS
   @DF-RHF iter   4:   -76.06008578218038   -3.84727e-04   7.29263e-06 DIIS
   @DF-RHF iter   5:   -76.06010883367779   -2.30515e-05   1.63909e-06 DIIS
   @DF-RHF iter   6:   -76.06011072252095   -1.88884e-06   3.68314e-07 DIIS
   @DF-RHF iter   7:   -76.06011082920649   -1.06686e-07   7.08963e-08 DIIS
   @DF-RHF iter   8:   -76.06011083272823   -3.52173e-09   1.15816e-08 DIIS
   @DF-RHF iter   9:   -76.06011083280208   -7.38538e-11   2.85920e-09 DIIS
  Energy and wave function converged.


  ==> Post-Iterations <==

    Orbital Energies [Eh]
    ---------------------

    Doubly Occupied:                                                      

       1A    -20.563467     2A     -1.353009     3A     -0.731813  
       4A     -0.575119     5A     -0.509236  

    Virtual:                                                              

       6A      0.016381     7A      0.030965     8A      0.032786  
       9A      0.036544    10A      0.048785    11A      0.051823  
      12A      0.055055    13A      0.062141    14A      0.065210  
      15A      0.073432    16A      0.079384    17A      0.080049  
      18A      0.085278    19A      0.096895    20A      0.107153  
      21A      0.121457    22A      0.124494    23A      0.128487  
      24A      0.137157    25A      0.142101    26A      0.144352  
      27A      0.149270    28A      0.151113    29A      0.158368  
      30A      0.165663    31A      0.167621    32A      0.172858  
      33A      0.178412    34A      0.181119    35A      0.186849  
      36A      0.188543    37A      0.192422    38A      0.193855  
      39A      0.199302    40A      0.205103    41A      0.208119  
      42A      0.214533    43A      0.222037    44A      0.228603  
      45A      0.231939    46A      0.235064    47A      0.239791  
      48A      0.245127    49A      0.254198    50A      0.267357  
      51A      0.269157    52A      0.275182    53A      0.290409  
      54A      0.293775    55A      0.300271    56A      0.302813  
      57A      0.311373    58A      0.316978    59A      0.325408  
      60A      0.325641    61A      0.330004    62A      0.339695  
      63A      0.341036    64A      0.344180    65A      0.351575  
      66A      0.355855    67A      0.361660    68A      0.365318  
      69A      0.370576    70A      0.375375    71A      0.381438  
      72A      0.381855    73A      0.387400    74A      0.394902  
      75A      0.396235    76A      0.400832    77A      0.408145  
      78A      0.411295    79A      0.416721    80A      0.419919  
      81A      0.424387    82A      0.430000    83A      0.436386  
      84A      0.439158    85A      0.443386    86A      0.446378  
      87A      0.459114    88A      0.460850    89A      0.467031  
      90A      0.472950    91A      0.478802    92A      0.483237  
      93A      0.486104    94A      0.499884    95A      0.505405  
      96A      0.507418    97A      0.511643    98A      0.523573  
      99A      0.530376   100A      0.543718   101A      0.545547  
     102A      0.560051   103A      0.568181   104A      0.572468  
     105A      0.593599   106A      0.602139   107A      0.614194  
     108A      0.622369   109A      0.639396   110A      0.655261  
     111A      0.666004   112A      0.676512   113A      0.684194  
     114A      0.695472   115A      0.702061   116A      0.705435  
     117A      0.711748   118A      0.717252   119A      0.719358  
     120A      0.729665   121A      0.735922   122A      0.742550  
     123A      0.750656   124A      0.756647   125A      0.759129  
     126A      0.774691   127A      0.776534   128A      0.779990  
     129A      0.786033   130A      0.792726   131A      0.796887  
     132A      0.798662   133A      0.804122   134A      0.809984  
     135A      0.818421   136A      0.819369   137A      0.823756  
     138A      0.834457   139A      0.838780   140A      0.846586  
     141A      0.849983   142A      0.853882   143A      0.856511  
     144A      0.858205   145A      0.865770   146A      0.866624  
     147A      0.873824   148A      0.878634   149A      0.883186  
     150A      0.891992   151A      0.893906   152A      0.900960  
     153A      0.902309   154A      0.906555   155A      0.913177  
     156A      0.913673   157A      0.917273   158A      0.926156  
     159A      0.929728   160A      0.933685   161A      0.935949  
     162A      0.943844   163A      0.950772   164A      0.956975  
     165A      0.960006   166A      0.966119   167A      0.968905  
     168A      0.973177   169A      0.978765   170A      0.980773  
     171A      0.990937   172A      0.996962   173A      1.001949  
     174A      1.009966   175A      1.012398   176A      1.019926  
     177A      1.022979   178A      1.035232   179A      1.039880  
     180A      1.049628   181A      1.053546   182A      1.054439  
     183A      1.061603   184A      1.065629   185A      1.070415  
     186A      1.076770   187A      1.077745   188A      1.084896  
     189A      1.090510   190A      1.096685   191A      1.100471  
     192A      1.113053   193A      1.113730   194A      1.120752  
     195A      1.127490   196A      1.132574   197A      1.135252  
     198A      1.141018   199A      1.149838   200A      1.152209  
     201A      1.157942   202A      1.169854   203A      1.176059  
     204A      1.184618   205A      1.186670   206A      1.197186  
     207A      1.203634   208A      1.214329   209A      1.221897  
     210A      1.233802   211A      1.238041   212A      1.240979  
     213A      1.253507   214A      1.257601   215A      1.261415  
     216A      1.263023   217A      1.268173   218A      1.291619  
     219A      1.298141   220A      1.307989   221A      1.313078  
     222A      1.317393   223A      1.335676   224A      1.348397  
     225A      1.355342   226A      1.358621   227A      1.361852  
     228A      1.364243   229A      1.377501   230A      1.391823  
     231A      1.400314   232A      1.412677   233A      1.413653  
     234A      1.429364   235A      1.442015   236A      1.452931  
     237A      1.456440   238A      1.467724   239A      1.470274  
     240A      1.476912   241A      1.482095   242A      1.503047  
     243A      1.507214   244A      1.521088   245A      1.525935  
     246A      1.532861   247A      1.544269   248A      1.548965  
     249A      1.566399   250A      1.587058   251A      1.596483  
     252A      1.606024   253A      1.616269   254A      1.625835  
     255A      1.635373   256A      1.644876   257A      1.645944  
     258A      1.649264   259A      1.662309   260A      1.667578  
     261A      1.677254   262A      1.694350   263A      1.701746  
     264A      1.723108   265A      1.727804   266A      1.734134  
     267A      1.752910   268A      1.758947   269A      1.762006  
     270A      1.783870   271A      1.792223   272A      1.797228  
     273A      1.802272   274A      1.809645   275A      1.816203  
     276A      1.825026   277A      1.834731   278A      1.841949  
     279A      1.853124   280A      1.854627   281A      1.864297  
     282A      1.866345   283A      1.876947   284A      1.887775  
     285A      1.894793   286A      1.909103   287A      1.911394  
     288A      1.917828   289A      1.920471   290A      1.935785  
     291A      1.947377   292A      1.952265   293A      1.963852  
     294A      1.975680   295A      1.983107   296A      2.003987  
     297A      2.012624   298A      2.015259   299A      2.028587  
     300A      2.032929   301A      2.044471   302A      2.059237  
     303A      2.071499   304A      2.080785   305A      2.088572  
     306A      2.111224   307A      2.118514   308A      2.140056  
     309A      2.154064   310A      2.168247   311A      2.182560  
     312A      2.190688   313A      2.207214   314A      2.223368  
     315A      2.247466   316A      2.271900   317A      2.284406  
     318A      2.295070   319A      2.331252   320A      2.362164  
     321A      2.390869   322A      2.394822   323A      2.421645  
     324A      2.473237   325A      2.475546   326A      2.479739  
     327A      2.492436   328A      2.498534   329A      2.512508  
     330A      2.517166   331A      2.520435   332A      2.527034  
     333A      2.531789   334A      2.535415   335A      2.548302  
     336A      2.549413   337A      2.571020   338A      2.574850  
     339A      2.588565   340A      2.596046   341A      2.608550  
     342A      2.611818   343A      2.618457   344A      2.630491  
     345A      2.638445   346A      2.647174   347A      2.657401  
     348A      2.666256   349A      2.683037   350A      2.694980  
     351A      2.699840   352A      2.707932   353A      2.720395  
     354A      2.732088   355A      2.735712   356A      2.745915  
     357A      2.751056   358A      2.765853   359A      2.772344  
     360A      2.780248   361A      2.802319   362A      2.810253  
     363A      2.815769   364A      2.830588   365A      2.835834  
     366A      2.852011   367A      2.854035   368A      2.864340  
     369A      2.874231   370A      2.879018   371A      2.888388  
     372A      2.909450   373A      2.933708   374A      2.944704  
     375A      2.947704   376A      2.964613   377A      2.978128  
     378A      2.994059   379A      3.000094   380A      3.016343  
     381A      3.019063   382A      3.046481   383A      3.082176  
     384A      3.098702   385A      3.119163   386A      3.130783  
     387A      3.153473   388A      3.211182   389A      3.226429  
     390A      3.228818   391A      3.234899   392A      3.239270  
     393A      3.249864   394A      3.264778   395A      3.272806  
     396A      3.280385   397A      3.281928   398A      3.301721  
     399A      3.308377   400A      3.323606   401A      3.328390  
     402A      3.359279   403A      3.375803   404A      3.394093  
     405A      3.428410   406A      3.450560   407A      3.462032  
     408A      3.478663   409A      3.498208   410A      3.503456  
     411A      3.531097   412A      3.551622   413A      3.595636  
     414A      3.605716   415A      3.614781   416A      3.625471  
     417A      3.648729   418A      3.660627   419A      3.684204  
     420A      3.691390   421A      3.713540   422A      3.720107  
     423A      3.744310   424A      3.777387   425A      3.812829  
     426A      3.848255   427A      3.851187   428A      3.884550  
     429A      3.892183   430A      3.908473   431A      3.929625  
     432A      4.079050   433A      4.196060   434A      4.257616  
     435A      4.271466   436A      4.290136   437A      4.305817  
     438A      4.311483   439A      4.346326   440A      4.379098  
     441A      4.394189   442A      4.409369   443A      4.417931  
     444A      4.436571   445A      4.452636   446A      4.454836  
     447A      4.460966   448A      4.469185   449A      4.479644  
     450A      4.488607   451A      4.493697   452A      4.498282  
     453A      4.514590   454A      4.521986   455A      4.528728  
     456A      4.543974   457A      4.549909   458A      4.553023  
     459A      4.570711   460A      4.577476   461A      4.594207  
     462A      4.609726   463A      4.615887   464A      4.624583  
     465A      4.644357   466A      4.653110   467A      4.663798  
     468A      4.671086   469A      4.677808   470A      4.697192  
     471A      4.705353   472A      4.716836   473A      4.721508  
     474A      4.739243   475A      4.739516   476A      4.750779  
     477A      4.753545   478A      4.775444   479A      4.785606  
     480A      4.794522   481A      4.815057   482A      4.827326  
     483A      4.851636   484A      4.875533   485A      4.880495  
     486A      4.898931   487A      4.904069   488A      4.908564  
     489A      4.929090   490A      4.939894   491A      4.944449  
     492A      4.956532   493A      4.963741   494A      4.968055  
     495A      4.974790   496A      4.986055   497A      4.991459  
     498A      5.017488   499A      5.021577   500A      5.035197  
     501A      5.044796   502A      5.053024   503A      5.096633  
     504A      5.121208   505A      5.147147   506A      5.165348  
     507A      5.173589   508A      5.200147   509A      5.210248  
     510A      5.226994   511A      5.249663   512A      5.253907  
     513A      5.267908   514A      5.286889   515A      5.300116  
     516A      5.341394   517A      5.358003   518A      5.383583  
     519A      5.386928   520A      5.429789   521A      5.434034  
     522A      5.517011   523A      5.542150   524A      5.566402  
     525A      5.571216   526A      5.589953   527A      5.615913  
     528A      5.628207   529A      5.637231   530A      5.643676  
     531A      5.666406   532A      5.689435   533A      5.702117  
     534A      5.711988   535A      5.735034   536A      5.750299  
     537A      5.767525   538A      5.789388   539A      5.802554  
     540A      5.822012   541A      5.833248   542A      5.841033  
     543A      5.865874   544A      5.885584   545A      5.898699  
     546A      5.969962   547A      5.999983   548A      6.032199  
     549A      6.189631   550A      6.200756   551A      6.216036  
     552A      6.221736   553A      6.225718   554A      6.237045  
     555A      6.260987   556A      6.365067   557A      6.389269  
     558A      6.422720   559A      6.458506   560A      6.578010  
     561A      6.590490   562A      6.664233   563A      6.664535  
     564A      6.776093   565A      6.791503   566A      6.851210  
     567A      6.870611   568A      6.896970   569A      6.955188  
     570A      7.081577   571A      7.106824   572A      7.119518  
     573A      7.200010   574A      7.214585   575A      7.236803  
     576A      7.260198   577A      7.313617   578A      7.316749  
     579A      7.354070   580A      7.377588   581A      7.436333  
     582A      7.483433   583A      7.684714   584A      7.700022  
     585A      7.723650   586A      7.737883   587A      7.763523  
     588A      7.776855   589A      7.796574   590A      7.802613  
     591A      7.826340   592A      7.835927   593A      7.872241  
     594A      7.912268   595A      7.924865   596A      7.961662  
     597A      8.038005   598A      8.045638   599A      8.114061  
     600A      8.160875   601A      8.180392   602A      8.221874  
     603A      8.244102   604A      8.265120   605A      8.294980  
     606A      8.304836   607A      8.309957   608A      8.316974  
     609A      8.361504   610A      8.376973   611A      8.389806  
     612A      8.402784   613A      8.409413   614A      8.439252  
     615A      8.507034   616A      8.777864   617A      8.785610  
     618A      8.836928   619A      8.855054   620A      8.861211  
     621A      8.923572   622A      8.949990   623A      9.008276  
     624A      9.022746   625A      9.054146   626A      9.121874  
     627A      9.308852   628A      9.349965   629A      9.725465  
     630A      9.788619   631A      9.791610   632A      9.802695  
     633A      9.826189   634A      9.845058   635A      9.885214  
     636A      9.889515   637A      9.909967   638A      9.926841  
     639A      9.928407   640A      9.962338   641A     10.084088  
     642A     10.110944   643A     10.130839   644A     10.140247  
     645A     10.154725   646A     10.167220   647A     10.299119  
     648A     10.313877   649A     10.357385   650A     10.372670  
     651A     10.381791   652A     10.401532   653A     11.104597  
     654A     11.133859   655A     11.184292   656A     11.187250  
     657A     11.382049   658A     11.431036   659A     11.753237  
     660A     11.793549   661A     11.860249   662A     11.864494  
     663A     11.929838   664A     11.959106   665A     12.113583  
     666A     12.189356   667A     12.314894   668A     12.413459  
     669A     12.432028   670A     12.528835   671A     13.618991  
     672A     13.688684   673A     13.715385   674A     13.808899  
     675A     13.852015   676A     13.878693   677A     13.958684  
     678A     13.991707   679A     14.010154   680A     14.037053  
     681A     14.118168   682A     14.223153   683A     16.470290  
     684A     16.740535   685A     28.433533   686A     28.465880  
     687A     28.647445   688A     65.895651   689A     66.612616  
     690A     66.999077   691A     67.575727   692A     68.443135  
     693A     69.140560   694A    161.033939  

    Final Occupation by Irrep:
              A 
    DOCC [     5 ]
    NA   [     5 ]
    NB   [     5 ]

  @DF-RHF Final Energy:   -76.06011083280208

   => Energetics <=

    Nuclear Repulsion Energy =              9.2437292855660633
    One-Electron Energy =                -123.1423882725878940
    Two-Electron Energy =                  37.8385481542197368
    Total Energy =                        -76.0601108328020956

Computation Completed


Properties will be evaluated at   0.000000,   0.000000,   0.000000 [a0]

Properties computed using the SCF density matrix


 Multipole Moments:

 ------------------------------------------------------------------------------------
     Multipole            Electronic (a.u.)      Nuclear  (a.u.)        Total (a.u.)
 ------------------------------------------------------------------------------------

 L = 1.  Multiply by 2.5417464519 to convert [e a0] to [Debye]
 Dipole X            :        -27.2974199           27.9913793            0.6939594
 Dipole Y            :        -53.3429643           53.1633533           -0.1796110
 Dipole Z            :         26.7315396          -26.5439530            0.1875866
 Magnitude           :                                                    0.7409646

 ------------------------------------------------------------------------------------

*** tstop() called on ddmfs1 at Mon Jan 22 20:32:11 2024
Module time:
	user time   =     189.47 seconds =       3.16 minutes
	system time =       9.21 seconds =       0.15 minutes
	total time  =         13 seconds =       0.22 minutes
Total time:
	user time   =     189.47 seconds =       3.16 minutes
	system time =       9.21 seconds =       0.15 minutes
	total time  =         13 seconds =       0.22 minutes

*** tstart() called on ddmfs1
*** at Mon Jan 22 20:32:11 2024


  //>>>>>>>>>>>>>>>>>>>>>>>>>>>>>>>>>>>//
  //               DFMP2               //
  //<<<<<<<<<<<<<<<<<<<<<<<<<<<<<<<<<<<//

   => Loading Basis Set <=

    Name: (AUG-CC-PVTZ AUX)
    Role: RIFIT
    Keyword: DF_BASIS_MP2
    atoms 1                                          entry CL         line   742 file /ddmfs1b/softs/psi4conda/share/psi4/basis/aug-cc-pvtz-ri.gbs 
    atoms 2, 5, 8, 11, 14, 17, 20                    entry O          line   264 file /ddmfs1b/softs/psi4conda/share/psi4/basis/aug-cc-pvtz-ri.gbs 
    atoms 3-4, 6-7, 9-10, 12-13, 15-16, 18-19, 21-22 entry H          line    30 file /ddmfs1b/softs/psi4conda/share/psi4/basis/aug-cc-pvtz-ri.gbs 

	 --------------------------------------------------------
	                          DF-MP2                         
	      2nd-Order Density-Fitted Moller-Plesset Theory     
	              RMP2 Wavefunction,  20 Threads             
	                                                         
	        Rob Parrish, Justin Turney, Andy Simmonett,      
	           Ed Hohenstein, and C. David Sherrill          
	 --------------------------------------------------------

   => Auxiliary Basis Set <=

  Basis Set: (AUG-CC-PVTZ AUX)
    Blend: AUG-CC-PVTZ-RI
    Number of shells: 429
    Number of basis functions: 1533
    Number of Cartesian functions: 1913
    Spherical Harmonics?: true
    Max angular momentum: 4

	 --------------------------------------------------------
	                 NBF =   694, NAUX =  1533
	 --------------------------------------------------------
	   CLASS    FOCC     OCC    AOCC    AVIR     VIR    FVIR
	   PAIRS       0       5       5     689     689       0
	 --------------------------------------------------------

	-----------------------------------------------------------
	 ==================> DF-MP2 Energies <==================== 
	-----------------------------------------------------------
	 Reference Energy          =     -76.0601108328020814 [Eh]
	 Singles Energy            =      -0.0000000000000000 [Eh]
	 Same-Spin Energy          =      -0.0682007599226172 [Eh]
	 Opposite-Spin Energy      =      -0.2149886728757015 [Eh]
	 Correlation Energy        =      -0.2831894327983188 [Eh]
	 Total Energy              =     -76.3433002656004049 [Eh]
	-----------------------------------------------------------
	 ================> DF-SCS-MP2 Energies <================== 
	-----------------------------------------------------------
	 SCS Same-Spin Scale       =       0.3333333333333333 [-]
	 SCS Opposite-Spin Scale   =       1.2000000000000000 [-]
	 SCS Same-Spin Energy      =      -0.0227335866408724 [Eh]
	 SCS Opposite-Spin Energy  =      -0.2579864074508418 [Eh]
	 SCS Correlation Energy    =      -0.2807199940917142 [Eh]
	 SCS Total Energy          =     -76.3408308268937930 [Eh]
	-----------------------------------------------------------


*** tstop() called on ddmfs1 at Mon Jan 22 20:32:20 2024
Module time:
	user time   =      47.22 seconds =       0.79 minutes
	system time =       2.83 seconds =       0.05 minutes
	total time  =          9 seconds =       0.15 minutes
Total time:
	user time   =     236.71 seconds =       3.95 minutes
	system time =      12.04 seconds =       0.20 minutes
	total time  =         22 seconds =       0.37 minutes

    Psi4 stopped on: Monday, 22 January 2024 08:32PM
    Psi4 wall time for execution: 0:00:21.80

*** Psi4 exiting successfully. Buy a developer a beer!
