
    -----------------------------------------------------------------------
          Psi4: An Open-Source Ab Initio Electronic Structure Package
                               Psi4 1.8.2 release

                         Git: Rev {} zzzzzzz 


    D. G. A. Smith, L. A. Burns, A. C. Simmonett, R. M. Parrish,
    M. C. Schieber, R. Galvelis, P. Kraus, H. Kruse, R. Di Remigio,
    A. Alenaizan, A. M. James, S. Lehtola, J. P. Misiewicz, M. Scheurer,
    R. A. Shaw, J. B. Schriber, Y. Xie, Z. L. Glick, D. A. Sirianni,
    J. S. O'Brien, J. M. Waldrop, A. Kumar, E. G. Hohenstein,
    B. P. Pritchard, B. R. Brooks, H. F. Schaefer III, A. Yu. Sokolov,
    K. Patkowski, A. E. DePrince III, U. Bozkaya, R. A. King,
    F. A. Evangelista, J. M. Turney, T. D. Crawford, C. D. Sherrill,
    J. Chem. Phys. 152(18) 184108 (2020). https://doi.org/10.1063/5.0006002

                            Additional Code Authors
    E. T. Seidl, C. L. Janssen, E. F. Valeev, M. L. Leininger,
    J. F. Gonthier, R. M. Richard, H. R. McAlexander, M. Saitow, X. Wang,
    P. Verma, M. H. Lechner, A. Jiang, S. Behnle, A. G. Heide,
    M. F. Herbst, and D. L. Poole

             Previous Authors, Complete List of Code Contributors,
                       and Citations for Specific Modules
    https://github.com/psi4/psi4/blob/master/codemeta.json
    https://github.com/psi4/psi4/graphs/contributors
    http://psicode.org/psi4manual/master/introduction.html#citing-psifour

    -----------------------------------------------------------------------


    Psi4 started on: Monday, 22 January 2024 08:44PM

    Process ID: 105249
    Host:       ddmfs1
    PSIDATADIR: /ddmfs1b/softs/psi4conda/share/psi4
    Memory:     500.0 MiB
    Threads:    20
    
  ==> Input File <==

--------------------------------------------------------------------------
MEMORY 60 GB

molecule dimer {
0 1
Gh(Cl)     0.000000     0.000000     0.000000
Gh(O)     -3.345480    -0.015182     0.788190
Gh(H)     -3.632837    -0.005960    -0.124407
Gh(H)     -2.407724    -0.067282     0.760475
Gh(O)      0.909665    -3.050980    -1.330231
Gh(H)      0.510666    -2.302691    -0.878649
Gh(H)      1.796129    -2.796512    -1.580084
O          0.623160    -1.959905     2.371318
H          1.061949    -2.773718     2.071950
H          0.542996    -1.324600     1.640391

units ang
no_reorient
no_com
symmetry c1
}

set {
basis        aug-cc-pVTZ
scf_type     df
}

energy("mp2")
--------------------------------------------------------------------------

  Memory set to  55.879 GiB by Python driver.

Scratch directory: /ddmfs1a/scratch/
   => Libint2 <=

    Primary   basis highest AM E, G, H:  5, 4, 3
    Auxiliary basis highest AM E, G, H:  6, 5, 4
    Onebody   basis highest AM E, G, H:  6, 5, 4
    Solid Harmonics ordering:            gaussian

*** tstart() called on ddmfs1
*** at Mon Jan 22 20:44:50 2024

   => Loading Basis Set <=

    Name: AUG-CC-PVTZ
    Role: ORBITAL
    Keyword: BASIS
    atoms 1              entry CL         line   988 file /ddmfs1b/softs/psi4conda/share/psi4/basis/aug-cc-pvtz.gbs 
    atoms 2, 5, 8        entry O          line   331 file /ddmfs1b/softs/psi4conda/share/psi4/basis/aug-cc-pvtz.gbs 
    atoms 3-4, 6-7, 9-10 entry H          line    40 file /ddmfs1b/softs/psi4conda/share/psi4/basis/aug-cc-pvtz.gbs 


         ---------------------------------------------------------
                                   SCF
               by Justin Turney, Rob Parrish, Andy Simmonett
                          and Daniel G. A. Smith
                              RHF Reference
                       20 Threads,  57220 MiB Core
         ---------------------------------------------------------

  ==> Geometry <==

    Molecular point group: c1
    Full point group: C1

    Geometry (in Angstrom), charge = 0, multiplicity = 1:

       Center              X                  Y                   Z               Mass       
    ------------   -----------------  -----------------  -----------------  -----------------
      Gh(CL)          0.000000000000     0.000000000000     0.000000000000    34.968852682000
      Gh(O)          -3.345480000000    -0.015182000000     0.788190000000    15.994914619570
      Gh(H)          -3.632837000000    -0.005960000000    -0.124407000000     1.007825032230
      Gh(H)          -2.407724000000    -0.067282000000     0.760475000000     1.007825032230
      Gh(O)           0.909665000000    -3.050980000000    -1.330231000000    15.994914619570
      Gh(H)           0.510666000000    -2.302691000000    -0.878649000000     1.007825032230
      Gh(H)           1.796129000000    -2.796512000000    -1.580084000000     1.007825032230
         O            0.623160000000    -1.959905000000     2.371318000000    15.994914619570
         H            1.061949000000    -2.773718000000     2.071950000000     1.007825032230
         H            0.542996000000    -1.324600000000     1.640391000000     1.007825032230

  Running in c1 symmetry.

  Rotational constants: A =      0.05781  B =      0.04095  C =      0.03467 [cm^-1]
  Rotational constants: A =   1733.05676  B =   1227.74042  C =   1039.31087 [MHz]
  Nuclear repulsion =    9.043668431280066

  Charge       = 0
  Multiplicity = 1
  Electrons    = 10
  Nalpha       = 5
  Nbeta        = 5

  ==> Algorithm <==

  SCF Algorithm Type is DF.
  DIIS enabled.
  MOM disabled.
  Fractional occupation disabled.
  Guess Type is SAD.
  Energy threshold   = 1.00e-08
  Density threshold  = 1.00e-08
  Integral threshold = 1.00e-12

  ==> Primary Basis <==

  Basis Set: AUG-CC-PVTZ
    Blend: AUG-CC-PVTZ
    Number of shells: 112
    Number of basis functions: 326
    Number of Cartesian functions: 374
    Spherical Harmonics?: true
    Max angular momentum: 3

   => Loading Basis Set <=

    Name: (AUG-CC-PVTZ AUX)
    Role: JKFIT
    Keyword: DF_BASIS_SCF
    atoms 1              entry CL         line   816 file /ddmfs1b/softs/psi4conda/share/psi4/basis/aug-cc-pvtz-jkfit.gbs 
    atoms 2, 5, 8        entry O          line   286 file /ddmfs1b/softs/psi4conda/share/psi4/basis/aug-cc-pvtz-jkfit.gbs 
    atoms 3-4, 6-7, 9-10 entry H          line    70 file /ddmfs1b/softs/psi4conda/share/psi4/basis/aug-cc-pvtz-jkfit.gbs 

  ==> Integral Setup <==

  DFHelper Memory: AOs need 0.569 GiB; user supplied 41.910 GiB. 
  Using in-core AOs.

  ==> MemDFJK: Density-Fitted J/K Matrices <==

    J tasked:                   Yes
    K tasked:                   Yes
    wK tasked:                   No
    OpenMP threads:              20
    Memory [MiB]:             42915
    Algorithm:                 Core
    Schwarz Cutoff:           1E-12
    Mask sparsity (%):       9.1912
    Fitting Condition:        1E-10

   => Auxiliary Basis Set <=

  Basis Set: (AUG-CC-PVTZ AUX)
    Blend: AUG-CC-PVTZ-JKFIT
    Number of shells: 216
    Number of basis functions: 734
    Number of Cartesian functions: 903
    Spherical Harmonics?: true
    Max angular momentum: 4

  Minimum eigenvalue in the overlap matrix is 2.3468549269E-04.
  Reciprocal condition number of the overlap matrix is 2.4054280812E-05.
    Using symmetric orthogonalization.

  ==> Pre-Iterations <==

  SCF Guess: Superposition of Atomic Densities via on-the-fly atomic UHF (no occupation information).

   -------------------------
    Irrep   Nso     Nmo    
   -------------------------
     A        326     326 
   -------------------------
    Total     326     326
   -------------------------

  ==> Iterations <==

                           Total Energy        Delta E     RMS |[F,P]|

   @DF-RHF iter SAD:   -75.45536426159597   -7.54554e+01   0.00000e+00 
   @DF-RHF iter   1:   -75.97431857235659   -5.18954e-01   1.43393e-03 DIIS/ADIIS
   @DF-RHF iter   2:   -76.02617699095099   -5.18584e-02   9.85616e-04 DIIS/ADIIS
   @DF-RHF iter   3:   -76.05812888360164   -3.19519e-02   6.71502e-05 DIIS
   @DF-RHF iter   4:   -76.05854199477204   -4.13111e-04   1.65557e-05 DIIS
   @DF-RHF iter   5:   -76.05856936447111   -2.73697e-05   3.79675e-06 DIIS
   @DF-RHF iter   6:   -76.05857168406412   -2.31959e-06   8.57483e-07 DIIS
   @DF-RHF iter   7:   -76.05857181495628   -1.30892e-07   1.63184e-07 DIIS
   @DF-RHF iter   8:   -76.05857181911770   -4.16142e-09   2.72341e-08 DIIS
   @DF-RHF iter   9:   -76.05857181921166   -9.39622e-11   6.98153e-09 DIIS
  Energy and wave function converged.


  ==> Post-Iterations <==

    Orbital Energies [Eh]
    ---------------------

    Doubly Occupied:                                                      

       1A    -20.566806     2A     -1.341965     3A     -0.721003  
       4A     -0.570248     5A     -0.507250  

    Virtual:                                                              

       6A      0.017945     7A      0.033912     8A      0.046754  
       9A      0.048599    10A      0.058860    11A      0.069012  
      12A      0.087525    13A      0.104057    14A      0.112373  
      15A      0.116385    16A      0.129079    17A      0.145541  
      18A      0.151355    19A      0.160151    20A      0.169131  
      21A      0.170597    22A      0.177703    23A      0.179827  
      24A      0.190613    25A      0.200681    26A      0.225800  
      27A      0.228027    28A      0.246153    29A      0.260338  
      30A      0.270344    31A      0.286919    32A      0.291736  
      33A      0.300184    34A      0.304939    35A      0.309841  
      36A      0.316293    37A      0.322256    38A      0.333282  
      39A      0.355538    40A      0.360487    41A      0.364495  
      42A      0.370030    43A      0.399257    44A      0.404016  
      45A      0.415797    46A      0.426438    47A      0.445199  
      48A      0.456824    49A      0.473819    50A      0.476550  
      51A      0.498399    52A      0.515771    53A      0.528681  
      54A      0.539069    55A      0.576489    56A      0.582517  
      57A      0.586922    58A      0.619465    59A      0.623737  
      60A      0.660510    61A      0.678078    62A      0.693923  
      63A      0.705942    64A      0.722583    65A      0.748837  
      66A      0.751739    67A      0.761918    68A      0.765038  
      69A      0.776212    70A      0.792535    71A      0.796215  
      72A      0.801756    73A      0.809465    74A      0.815688  
      75A      0.830431    76A      0.840026    77A      0.847492  
      78A      0.855157    79A      0.862395    80A      0.875959  
      81A      0.888114    82A      0.892390    83A      0.900544  
      84A      0.913213    85A      0.932377    86A      0.945508  
      87A      0.951290    88A      0.958119    89A      0.971480  
      90A      0.979973    91A      0.991086    92A      1.003586  
      93A      1.008940    94A      1.019453    95A      1.023085  
      96A      1.031541    97A      1.040896    98A      1.051693  
      99A      1.059970   100A      1.074760   101A      1.106596  
     102A      1.114804   103A      1.115840   104A      1.152533  
     105A      1.154586   106A      1.174146   107A      1.188592  
     108A      1.193027   109A      1.224578   110A      1.250750  
     111A      1.259144   112A      1.260854   113A      1.276627  
     114A      1.289207   115A      1.310430   116A      1.360675  
     117A      1.362232   118A      1.394951   119A      1.436816  
     120A      1.443602   121A      1.447695   122A      1.464937  
     123A      1.466309   124A      1.506386   125A      1.521184  
     126A      1.565437   127A      1.578497   128A      1.584483  
     129A      1.599219   130A      1.614347   131A      1.645807  
     132A      1.656177   133A      1.679089   134A      1.689274  
     135A      1.708301   136A      1.725897   137A      1.732341  
     138A      1.746385   139A      1.755244   140A      1.760788  
     141A      1.774968   142A      1.796958   143A      1.834740  
     144A      1.847250   145A      1.860107   146A      1.864749  
     147A      1.879735   148A      1.953907   149A      1.963181  
     150A      1.968594   151A      1.988675   152A      2.028337  
     153A      2.048791   154A      2.107930   155A      2.128154  
     156A      2.182269   157A      2.315155   158A      2.392634  
     159A      2.435995   160A      2.449210   161A      2.451013  
     162A      2.457600   163A      2.459047   164A      2.482626  
     165A      2.504219   166A      2.540234   167A      2.549430  
     168A      2.556664   169A      2.587546   170A      2.603523  
     171A      2.604541   172A      2.632619   173A      2.635682  
     174A      2.649334   175A      2.657222   176A      2.660981  
     177A      2.674168   178A      2.694763   179A      2.750655  
     180A      2.760125   181A      2.776350   182A      2.823749  
     183A      2.898662   184A      2.959461   185A      2.980848  
     186A      2.989185   187A      3.046451   188A      3.178614  
     189A      3.180477   190A      3.199938   191A      3.202952  
     192A      3.246769   193A      3.253082   194A      3.358636  
     195A      3.385099   196A      3.420613   197A      3.434235  
     198A      3.591766   199A      3.604396   200A      3.698528  
     201A      3.768061   202A      3.787154   203A      3.873949  
     204A      3.983876   205A      4.030822   206A      4.052982  
     207A      4.076124   208A      4.110129   209A      4.120709  
     210A      4.154970   211A      4.185172   212A      4.234348  
     213A      4.259253   214A      4.273673   215A      4.310109  
     216A      4.341307   217A      4.375052   218A      4.379913  
     219A      4.387125   220A      4.400223   221A      4.412838  
     222A      4.435584   223A      4.465515   224A      4.479049  
     225A      4.514556   226A      4.522600   227A      4.546312  
     228A      4.589755   229A      4.624332   230A      4.626983  
     231A      4.636428   232A      4.664265   233A      4.673295  
     234A      4.690763   235A      4.726924   236A      4.735530  
     237A      4.753086   238A      4.783643   239A      4.849246  
     240A      4.878954   241A      4.880869   242A      4.899167  
     243A      4.902843   244A      4.921519   245A      4.938133  
     246A      5.009320   247A      5.022151   248A      5.089918  
     249A      5.157743   250A      5.187135   251A      5.206267  
     252A      5.216407   253A      5.367043   254A      5.386368  
     255A      5.492242   256A      5.517903   257A      5.585510  
     258A      5.622463   259A      5.640428   260A      5.669006  
     261A      5.720665   262A      5.813805   263A      5.843056  
     264A      5.889303   265A      6.127973   266A      6.151064  
     267A      6.156951   268A      6.411834   269A      6.473563  
     270A      6.584081   271A      6.717975   272A      6.723321  
     273A      6.778736   274A      6.864830   275A      7.115236  
     276A      7.172380   277A      7.183162   278A      7.272683  
     279A      7.297042   280A      7.320144   281A      7.447221  
     282A      7.484702   283A      7.676485   284A      7.696602  
     285A      7.705685   286A      7.808613   287A      7.845208  
     288A      7.886123   289A      8.034122   290A      8.072456  
     291A      8.078007   292A      8.264497   293A      8.267088  
     294A      8.281262   295A      8.316721   296A      8.733996  
     297A      8.805730   298A      8.858701   299A      8.987748  
     300A      9.066334   301A      9.713570   302A      9.719462  
     303A      9.843698   304A      9.845439   305A     10.048261  
     306A     10.054571   307A     10.272019   308A     10.291152  
     309A     11.211779   310A     11.297760   311A     11.703572  
     312A     11.713042   313A     12.170991   314A     12.280784  
     315A     13.604411   316A     13.668231   317A     13.909256  
     318A     13.922080   319A     15.100435   320A     16.287361  
     321A     27.975094   322A     28.112294   323A     28.254229  
     324A     66.464852   325A     67.003690   326A    160.881789  

    Final Occupation by Irrep:
              A 
    DOCC [     5 ]
    NA   [     5 ]
    NB   [     5 ]

  @DF-RHF Final Energy:   -76.05857181921166

   => Energetics <=

    Nuclear Repulsion Energy =              9.0436684312800661
    One-Electron Energy =                -122.7899336219748960
    Two-Electron Energy =                  37.6876933714831637
    Total Energy =                        -76.0585718192116644

Computation Completed


Properties will be evaluated at   0.000000,   0.000000,   0.000000 [a0]

Properties computed using the SCF density matrix


 Multipole Moments:

 ------------------------------------------------------------------------------------
     Multipole            Electronic (a.u.)      Nuclear  (a.u.)        Total (a.u.)
 ------------------------------------------------------------------------------------

 L = 1.  Multiply by 2.5417464519 to convert [e a0] to [Debye]
 Dipole X            :        -12.2125627           12.4537204            0.2411577
 Dipole Y            :         37.2544838          -37.3741681           -0.1196842
 Dipole Z            :        -43.5571340           42.8644404           -0.6926936
 Magnitude           :                                                    0.7431728

 ------------------------------------------------------------------------------------

*** tstop() called on ddmfs1 at Mon Jan 22 20:44:53 2024
Module time:
	user time   =      38.22 seconds =       0.64 minutes
	system time =       2.46 seconds =       0.04 minutes
	total time  =          3 seconds =       0.05 minutes
Total time:
	user time   =      38.22 seconds =       0.64 minutes
	system time =       2.46 seconds =       0.04 minutes
	total time  =          3 seconds =       0.05 minutes

*** tstart() called on ddmfs1
*** at Mon Jan 22 20:44:53 2024


  //>>>>>>>>>>>>>>>>>>>>>>>>>>>>>>>>>>>//
  //               DFMP2               //
  //<<<<<<<<<<<<<<<<<<<<<<<<<<<<<<<<<<<//

   => Loading Basis Set <=

    Name: (AUG-CC-PVTZ AUX)
    Role: RIFIT
    Keyword: DF_BASIS_MP2
    atoms 1              entry CL         line   742 file /ddmfs1b/softs/psi4conda/share/psi4/basis/aug-cc-pvtz-ri.gbs 
    atoms 2, 5, 8        entry O          line   264 file /ddmfs1b/softs/psi4conda/share/psi4/basis/aug-cc-pvtz-ri.gbs 
    atoms 3-4, 6-7, 9-10 entry H          line    30 file /ddmfs1b/softs/psi4conda/share/psi4/basis/aug-cc-pvtz-ri.gbs 

	 --------------------------------------------------------
	                          DF-MP2                         
	      2nd-Order Density-Fitted Moller-Plesset Theory     
	              RMP2 Wavefunction,  20 Threads             
	                                                         
	        Rob Parrish, Justin Turney, Andy Simmonett,      
	           Ed Hohenstein, and C. David Sherrill          
	 --------------------------------------------------------

   => Auxiliary Basis Set <=

  Basis Set: (AUG-CC-PVTZ AUX)
    Blend: AUG-CC-PVTZ-RI
    Number of shells: 205
    Number of basis functions: 741
    Number of Cartesian functions: 929
    Spherical Harmonics?: true
    Max angular momentum: 4

	 --------------------------------------------------------
	                 NBF =   326, NAUX =   741
	 --------------------------------------------------------
	   CLASS    FOCC     OCC    AOCC    AVIR     VIR    FVIR
	   PAIRS       0       5       5     321     321       0
	 --------------------------------------------------------

	-----------------------------------------------------------
	 ==================> DF-MP2 Energies <==================== 
	-----------------------------------------------------------
	 Reference Energy          =     -76.0585718192116644 [Eh]
	 Singles Energy            =      -0.0000000000000000 [Eh]
	 Same-Spin Energy          =      -0.0685594509820768 [Eh]
	 Opposite-Spin Energy      =      -0.2162696034305466 [Eh]
	 Correlation Energy        =      -0.2848290544126234 [Eh]
	 Total Energy              =     -76.3434008736242902 [Eh]
	-----------------------------------------------------------
	 ================> DF-SCS-MP2 Energies <================== 
	-----------------------------------------------------------
	 SCS Same-Spin Scale       =       0.3333333333333333 [-]
	 SCS Opposite-Spin Scale   =       1.2000000000000000 [-]
	 SCS Same-Spin Energy      =      -0.0228531503273589 [Eh]
	 SCS Opposite-Spin Energy  =      -0.2595235241166560 [Eh]
	 SCS Correlation Energy    =      -0.2823766744440149 [Eh]
	 SCS Total Energy          =     -76.3409484936556737 [Eh]
	-----------------------------------------------------------


*** tstop() called on ddmfs1 at Mon Jan 22 20:44:55 2024
Module time:
	user time   =      13.25 seconds =       0.22 minutes
	system time =       0.85 seconds =       0.01 minutes
	total time  =          2 seconds =       0.03 minutes
Total time:
	user time   =      51.49 seconds =       0.86 minutes
	system time =       3.31 seconds =       0.06 minutes
	total time  =          5 seconds =       0.08 minutes

    Psi4 stopped on: Monday, 22 January 2024 08:44PM
    Psi4 wall time for execution: 0:00:05.02

*** Psi4 exiting successfully. Buy a developer a beer!
