
    -----------------------------------------------------------------------
          Psi4: An Open-Source Ab Initio Electronic Structure Package
                               Psi4 1.8.2 release

                         Git: Rev {} zzzzzzz 


    D. G. A. Smith, L. A. Burns, A. C. Simmonett, R. M. Parrish,
    M. C. Schieber, R. Galvelis, P. Kraus, H. Kruse, R. Di Remigio,
    A. Alenaizan, A. M. James, S. Lehtola, J. P. Misiewicz, M. Scheurer,
    R. A. Shaw, J. B. Schriber, Y. Xie, Z. L. Glick, D. A. Sirianni,
    J. S. O'Brien, J. M. Waldrop, A. Kumar, E. G. Hohenstein,
    B. P. Pritchard, B. R. Brooks, H. F. Schaefer III, A. Yu. Sokolov,
    K. Patkowski, A. E. DePrince III, U. Bozkaya, R. A. King,
    F. A. Evangelista, J. M. Turney, T. D. Crawford, C. D. Sherrill,
    J. Chem. Phys. 152(18) 184108 (2020). https://doi.org/10.1063/5.0006002

                            Additional Code Authors
    E. T. Seidl, C. L. Janssen, E. F. Valeev, M. L. Leininger,
    J. F. Gonthier, R. M. Richard, H. R. McAlexander, M. Saitow, X. Wang,
    P. Verma, M. H. Lechner, A. Jiang, S. Behnle, A. G. Heide,
    M. F. Herbst, and D. L. Poole

             Previous Authors, Complete List of Code Contributors,
                       and Citations for Specific Modules
    https://github.com/psi4/psi4/blob/master/codemeta.json
    https://github.com/psi4/psi4/graphs/contributors
    http://psicode.org/psi4manual/master/introduction.html#citing-psifour

    -----------------------------------------------------------------------


    Psi4 started on: Monday, 22 January 2024 09:10PM

    Process ID: 107643
    Host:       ddmfs1
    PSIDATADIR: /ddmfs1b/softs/psi4conda/share/psi4
    Memory:     500.0 MiB
    Threads:    20
    
  ==> Input File <==

--------------------------------------------------------------------------
MEMORY 60 GB

molecule dimer {
0 1
Gh(Cl)     0.000000     0.000000     0.000000
Gh(O)      0.024502     3.145214    -1.100846
Gh(H)     -0.079884     2.231023    -0.803905
Gh(H)     -0.839084     3.515903    -1.288931
Gh(O)     -3.198150     0.573138    -0.927404
Gh(H)     -2.286936     0.664904    -0.721780
Gh(H)     -3.628705     0.671446    -0.059234
Gh(O)     -0.392662    -2.420613    -2.381684
Gh(H)     -0.078206    -1.721059    -1.745198
Gh(H)      0.148491    -2.349436    -3.168547
O         -0.516218     0.741767    -3.194309
H          0.316690     0.901052    -3.635347
H         -0.443624     0.828168    -2.261763
Gh(O)     -1.018909     1.789826     2.097121
Gh(H)     -0.949530     2.709738     1.735634
Gh(H)     -0.639964     1.169711     1.486154
Gh(O)      2.936787     0.437537     1.380431
Gh(H)      2.845975    -0.128141     2.146149
Gh(H)      2.378137     0.108698     0.647245

units ang
no_reorient
no_com
symmetry c1
}

set {
basis        aug-cc-pVTZ
scf_type     df
}

energy("mp2")
--------------------------------------------------------------------------

  Memory set to  55.879 GiB by Python driver.

Scratch directory: /ddmfs1a/scratch/
   => Libint2 <=

    Primary   basis highest AM E, G, H:  5, 4, 3
    Auxiliary basis highest AM E, G, H:  6, 5, 4
    Onebody   basis highest AM E, G, H:  6, 5, 4
    Solid Harmonics ordering:            gaussian

*** tstart() called on ddmfs1
*** at Mon Jan 22 21:10:01 2024

   => Loading Basis Set <=

    Name: AUG-CC-PVTZ
    Role: ORBITAL
    Keyword: BASIS
    atoms 1                                   entry CL         line   988 file /ddmfs1b/softs/psi4conda/share/psi4/basis/aug-cc-pvtz.gbs 
    atoms 2, 5, 8, 11, 14, 17                 entry O          line   331 file /ddmfs1b/softs/psi4conda/share/psi4/basis/aug-cc-pvtz.gbs 
    atoms 3-4, 6-7, 9-10, 12-13, 15-16, 18-19 entry H          line    40 file /ddmfs1b/softs/psi4conda/share/psi4/basis/aug-cc-pvtz.gbs 


         ---------------------------------------------------------
                                   SCF
               by Justin Turney, Rob Parrish, Andy Simmonett
                          and Daniel G. A. Smith
                              RHF Reference
                       20 Threads,  57220 MiB Core
         ---------------------------------------------------------

  ==> Geometry <==

    Molecular point group: c1
    Full point group: C1

    Geometry (in Angstrom), charge = 0, multiplicity = 1:

       Center              X                  Y                   Z               Mass       
    ------------   -----------------  -----------------  -----------------  -----------------
      Gh(CL)          0.000000000000     0.000000000000     0.000000000000    34.968852682000
      Gh(O)           0.024502000000     3.145214000000    -1.100846000000    15.994914619570
      Gh(H)          -0.079884000000     2.231023000000    -0.803905000000     1.007825032230
      Gh(H)          -0.839084000000     3.515903000000    -1.288931000000     1.007825032230
      Gh(O)          -3.198150000000     0.573138000000    -0.927404000000    15.994914619570
      Gh(H)          -2.286936000000     0.664904000000    -0.721780000000     1.007825032230
      Gh(H)          -3.628705000000     0.671446000000    -0.059234000000     1.007825032230
      Gh(O)          -0.392662000000    -2.420613000000    -2.381684000000    15.994914619570
      Gh(H)          -0.078206000000    -1.721059000000    -1.745198000000     1.007825032230
      Gh(H)           0.148491000000    -2.349436000000    -3.168547000000     1.007825032230
         O           -0.516218000000     0.741767000000    -3.194309000000    15.994914619570
         H            0.316690000000     0.901052000000    -3.635347000000     1.007825032230
         H           -0.443624000000     0.828168000000    -2.261763000000     1.007825032230
      Gh(O)          -1.018909000000     1.789826000000     2.097121000000    15.994914619570
      Gh(H)          -0.949530000000     2.709738000000     1.735634000000     1.007825032230
      Gh(H)          -0.639964000000     1.169711000000     1.486154000000     1.007825032230
      Gh(O)           2.936787000000     0.437537000000     1.380431000000    15.994914619570
      Gh(H)           2.845975000000    -0.128141000000     2.146149000000     1.007825032230
      Gh(H)           2.378137000000     0.108698000000     0.647245000000     1.007825032230

  Running in c1 symmetry.

  Rotational constants: A =      0.02733  B =      0.02219  C =      0.01825 [cm^-1]
  Rotational constants: A =    819.46482  B =    665.23699  C =    547.25216 [MHz]
  Nuclear repulsion =    9.272476890287685

  Charge       = 0
  Multiplicity = 1
  Electrons    = 10
  Nalpha       = 5
  Nbeta        = 5

  ==> Algorithm <==

  SCF Algorithm Type is DF.
  DIIS enabled.
  MOM disabled.
  Fractional occupation disabled.
  Guess Type is SAD.
  Energy threshold   = 1.00e-08
  Density threshold  = 1.00e-08
  Integral threshold = 1.00e-12

  ==> Primary Basis <==

  Basis Set: AUG-CC-PVTZ
    Blend: AUG-CC-PVTZ
    Number of shells: 208
    Number of basis functions: 602
    Number of Cartesian functions: 689
    Spherical Harmonics?: true
    Max angular momentum: 3

   => Loading Basis Set <=

    Name: (AUG-CC-PVTZ AUX)
    Role: JKFIT
    Keyword: DF_BASIS_SCF
    atoms 1                                   entry CL         line   816 file /ddmfs1b/softs/psi4conda/share/psi4/basis/aug-cc-pvtz-jkfit.gbs 
    atoms 2, 5, 8, 11, 14, 17                 entry O          line   286 file /ddmfs1b/softs/psi4conda/share/psi4/basis/aug-cc-pvtz-jkfit.gbs 
    atoms 3-4, 6-7, 9-10, 12-13, 15-16, 18-19 entry H          line    70 file /ddmfs1b/softs/psi4conda/share/psi4/basis/aug-cc-pvtz-jkfit.gbs 

  ==> Integral Setup <==

  DFHelper Memory: AOs need 3.225 GiB; user supplied 41.910 GiB. 
  Using in-core AOs.

  ==> MemDFJK: Density-Fitted J/K Matrices <==

    J tasked:                   Yes
    K tasked:                   Yes
    wK tasked:                   No
    OpenMP threads:              20
    Memory [MiB]:             42915
    Algorithm:                 Core
    Schwarz Cutoff:           1E-12
    Mask sparsity (%):      13.5848
    Fitting Condition:        1E-10

   => Auxiliary Basis Set <=

  Basis Set: (AUG-CC-PVTZ AUX)
    Blend: AUG-CC-PVTZ-JKFIT
    Number of shells: 390
    Number of basis functions: 1322
    Number of Cartesian functions: 1626
    Spherical Harmonics?: true
    Max angular momentum: 4

  Minimum eigenvalue in the overlap matrix is 9.8882527134E-05.
  Reciprocal condition number of the overlap matrix is 6.8535441550E-06.
    Using symmetric orthogonalization.

  ==> Pre-Iterations <==

  SCF Guess: Superposition of Atomic Densities via on-the-fly atomic UHF (no occupation information).

   -------------------------
    Irrep   Nso     Nmo    
   -------------------------
     A        602     602 
   -------------------------
    Total     602     602
   -------------------------

  ==> Iterations <==

                           Total Energy        Delta E     RMS |[F,P]|

   @DF-RHF iter SAD:   -75.48178481883475   -7.54818e+01   0.00000e+00 
   @DF-RHF iter   1:   -75.97696888791714   -4.95184e-01   7.80732e-04 ADIIS/DIIS
   @DF-RHF iter   2:   -76.02960360326931   -5.26347e-02   5.21890e-04 ADIIS/DIIS
   @DF-RHF iter   3:   -76.05977265864149   -3.01691e-02   3.53389e-05 DIIS
   @DF-RHF iter   4:   -76.06015276923300   -3.80111e-04   8.30094e-06 DIIS
   @DF-RHF iter   5:   -76.06017519527958   -2.24260e-05   1.85609e-06 DIIS
   @DF-RHF iter   6:   -76.06017702696944   -1.83169e-06   4.19051e-07 DIIS
   @DF-RHF iter   7:   -76.06017713188913   -1.04920e-07   8.21759e-08 DIIS
   @DF-RHF iter   8:   -76.06017713550179   -3.61266e-09   1.32314e-08 DIIS
   @DF-RHF iter   9:   -76.06017713557469   -7.29017e-11   3.21505e-09 DIIS
  Energy and wave function converged.


  ==> Post-Iterations <==

    Orbital Energies [Eh]
    ---------------------

    Doubly Occupied:                                                      

       1A    -20.561910     2A     -1.353275     3A     -0.737278  
       4A     -0.572023     5A     -0.508922  

    Virtual:                                                              

       6A      0.015236     7A      0.031210     8A      0.033981  
       9A      0.037638    10A      0.052847    11A      0.056070  
      12A      0.056179    13A      0.058713    14A      0.070221  
      15A      0.075204    16A      0.077490    17A      0.096658  
      18A      0.102185    19A      0.112968    20A      0.122922  
      21A      0.128110    22A      0.136267    23A      0.144712  
      24A      0.147432    25A      0.148049    26A      0.153327  
      27A      0.157532    28A      0.166886    29A      0.167115  
      30A      0.171820    31A      0.181085    32A      0.186329  
      33A      0.189483    34A      0.194116    35A      0.197397  
      36A      0.201981    37A      0.204224    38A      0.212698  
      39A      0.217296    40A      0.227848    41A      0.231960  
      42A      0.239560    43A      0.241913    44A      0.248052  
      45A      0.260587    46A      0.270038    47A      0.275489  
      48A      0.282018    49A      0.292509    50A      0.307716  
      51A      0.312124    52A      0.316614    53A      0.322502  
      54A      0.323587    55A      0.325430    56A      0.333568  
      57A      0.335745    58A      0.343470    59A      0.351359  
      60A      0.357886    61A      0.360430    62A      0.364909  
      63A      0.369981    64A      0.377625    65A      0.383659  
      66A      0.390391    67A      0.394170    68A      0.397683  
      69A      0.402441    70A      0.411230    71A      0.412589  
      72A      0.419097    73A      0.430279    74A      0.433767  
      75A      0.437228    76A      0.438304    77A      0.447156  
      78A      0.450327    79A      0.457367    80A      0.463905  
      81A      0.472245    82A      0.473695    83A      0.488191  
      84A      0.497064    85A      0.505331    86A      0.514498  
      87A      0.524521    88A      0.531019    89A      0.553989  
      90A      0.560687    91A      0.574408    92A      0.585856  
      93A      0.609523    94A      0.621498    95A      0.623954  
      96A      0.636778    97A      0.651894    98A      0.661938  
      99A      0.675008   100A      0.683291   101A      0.691538  
     102A      0.697838   103A      0.708481   104A      0.719273  
     105A      0.722206   106A      0.732452   107A      0.739479  
     108A      0.740085   109A      0.745508   110A      0.756470  
     111A      0.760127   112A      0.765573   113A      0.779454  
     114A      0.788786   115A      0.795928   116A      0.799757  
     117A      0.801767   118A      0.808037   119A      0.816119  
     120A      0.823401   121A      0.827332   122A      0.832399  
     123A      0.836008   124A      0.839124   125A      0.843009  
     126A      0.843880   127A      0.849125   128A      0.859470  
     129A      0.866457   130A      0.870610   131A      0.875027  
     132A      0.879902   133A      0.889138   134A      0.891397  
     135A      0.902911   136A      0.904341   137A      0.908618  
     138A      0.921145   139A      0.922982   140A      0.925329  
     141A      0.930165   142A      0.935172   143A      0.936808  
     144A      0.950318   145A      0.955577   146A      0.957443  
     147A      0.964751   148A      0.968385   149A      0.983843  
     150A      0.985913   151A      0.992732   152A      0.999370  
     153A      1.005580   154A      1.010416   155A      1.025929  
     156A      1.027984   157A      1.030860   158A      1.034324  
     159A      1.036995   160A      1.047940   161A      1.053160  
     162A      1.059224   163A      1.062500   164A      1.071829  
     165A      1.076283   166A      1.092921   167A      1.097304  
     168A      1.102066   169A      1.107416   170A      1.111066  
     171A      1.112722   172A      1.132253   173A      1.142024  
     174A      1.157077   175A      1.166440   176A      1.170715  
     177A      1.173779   178A      1.178452   179A      1.183354  
     180A      1.189338   181A      1.200748   182A      1.209633  
     183A      1.220116   184A      1.223917   185A      1.233080  
     186A      1.242934   187A      1.245535   188A      1.251398  
     189A      1.262097   190A      1.278613   191A      1.280569  
     192A      1.289186   193A      1.304057   194A      1.317578  
     195A      1.320965   196A      1.332066   197A      1.343604  
     198A      1.353616   199A      1.357973   200A      1.376929  
     201A      1.379832   202A      1.388427   203A      1.392744  
     204A      1.403697   205A      1.421246   206A      1.422844  
     207A      1.431463   208A      1.447701   209A      1.461447  
     210A      1.468766   211A      1.493041   212A      1.502383  
     213A      1.508457   214A      1.520685   215A      1.523639  
     216A      1.539391   217A      1.554523   218A      1.563518  
     219A      1.572126   220A      1.572476   221A      1.581137  
     222A      1.608397   223A      1.608432   224A      1.633636  
     225A      1.644110   226A      1.648149   227A      1.670521  
     228A      1.692334   229A      1.701650   230A      1.723033  
     231A      1.725468   232A      1.727160   233A      1.737845  
     234A      1.755977   235A      1.762472   236A      1.776254  
     237A      1.783285   238A      1.786690   239A      1.799383  
     240A      1.802573   241A      1.807826   242A      1.811328  
     243A      1.822171   244A      1.824144   245A      1.832477  
     246A      1.843696   247A      1.849721   248A      1.869296  
     249A      1.877869   250A      1.885811   251A      1.898062  
     252A      1.906634   253A      1.922678   254A      1.938436  
     255A      1.945657   256A      1.949014   257A      1.974814  
     258A      1.981378   259A      2.008652   260A      2.015697  
     261A      2.027766   262A      2.040587   263A      2.055185  
     264A      2.056776   265A      2.066497   266A      2.088559  
     267A      2.102412   268A      2.125048   269A      2.133401  
     270A      2.138354   271A      2.157468   272A      2.167621  
     273A      2.198845   274A      2.216527   275A      2.240928  
     276A      2.269838   277A      2.279243   278A      2.357902  
     279A      2.370658   280A      2.402084   281A      2.435259  
     282A      2.468915   283A      2.476701   284A      2.490795  
     285A      2.496922   286A      2.500493   287A      2.515369  
     288A      2.524551   289A      2.530283   290A      2.536946  
     291A      2.541999   292A      2.551403   293A      2.565585  
     294A      2.578330   295A      2.581808   296A      2.585660  
     297A      2.589409   298A      2.601812   299A      2.608830  
     300A      2.617548   301A      2.622507   302A      2.637053  
     303A      2.651914   304A      2.661864   305A      2.672053  
     306A      2.691574   307A      2.694226   308A      2.704304  
     309A      2.710607   310A      2.733639   311A      2.742961  
     312A      2.748161   313A      2.763070   314A      2.766065  
     315A      2.786585   316A      2.804475   317A      2.808282  
     318A      2.809591   319A      2.825878   320A      2.840766  
     321A      2.863291   322A      2.867768   323A      2.887551  
     324A      2.906360   325A      2.926550   326A      2.934604  
     327A      2.950155   328A      2.959246   329A      2.975194  
     330A      3.000927   331A      3.014530   332A      3.019608  
     333A      3.048835   334A      3.073843   335A      3.109519  
     336A      3.125813   337A      3.173943   338A      3.193876  
     339A      3.205360   340A      3.217106   341A      3.221428  
     342A      3.229561   343A      3.233193   344A      3.236629  
     345A      3.249428   346A      3.261696   347A      3.265884  
     348A      3.298841   349A      3.313184   350A      3.344473  
     351A      3.357874   352A      3.401228   353A      3.413218  
     354A      3.417486   355A      3.439946   356A      3.465071  
     357A      3.488555   358A      3.511568   359A      3.541346  
     360A      3.571285   361A      3.598107   362A      3.608478  
     363A      3.617968   364A      3.630298   365A      3.679076  
     366A      3.699319   367A      3.703888   368A      3.747471  
     369A      3.813919   370A      3.857253   371A      3.864330  
     372A      3.892942   373A      3.946579   374A      4.067139  
     375A      4.132381   376A      4.184058   377A      4.242051  
     378A      4.271187   379A      4.287498   380A      4.325107  
     381A      4.353202   382A      4.360956   383A      4.370271  
     384A      4.392416   385A      4.402555   386A      4.415633  
     387A      4.424792   388A      4.435775   389A      4.446688  
     390A      4.450376   391A      4.465251   392A      4.473410  
     393A      4.481569   394A      4.493904   395A      4.505537  
     396A      4.510546   397A      4.520843   398A      4.530055  
     399A      4.540776   400A      4.561819   401A      4.571564  
     402A      4.579746   403A      4.601923   404A      4.609738  
     405A      4.621997   406A      4.624492   407A      4.648117  
     408A      4.659081   409A      4.659947   410A      4.666876  
     411A      4.674016   412A      4.680370   413A      4.689484  
     414A      4.700879   415A      4.714824   416A      4.736072  
     417A      4.753818   418A      4.765471   419A      4.780975  
     420A      4.807206   421A      4.835607   422A      4.852419  
     423A      4.865106   424A      4.885787   425A      4.904885  
     426A      4.909789   427A      4.930916   428A      4.938890  
     429A      4.943161   430A      4.960189   431A      4.977029  
     432A      4.991704   433A      4.998037   434A      5.019459  
     435A      5.053955   436A      5.061516   437A      5.068846  
     438A      5.103352   439A      5.112374   440A      5.137086  
     441A      5.152089   442A      5.155077   443A      5.174861  
     444A      5.210311   445A      5.218164   446A      5.225413  
     447A      5.253496   448A      5.271801   449A      5.291342  
     450A      5.313302   451A      5.330805   452A      5.381240  
     453A      5.466421   454A      5.473826   455A      5.476329  
     456A      5.507209   457A      5.518262   458A      5.535047  
     459A      5.536691   460A      5.578611   461A      5.590692  
     462A      5.611063   463A      5.613457   464A      5.626250  
     465A      5.645104   466A      5.674540   467A      5.681293  
     468A      5.696507   469A      5.729568   470A      5.745597  
     471A      5.754150   472A      5.780885   473A      5.827787  
     474A      5.850587   475A      5.900748   476A      5.953199  
     477A      6.018042   478A      6.150053   479A      6.160050  
     480A      6.190604   481A      6.204243   482A      6.259587  
     483A      6.264814   484A      6.328690   485A      6.422813  
     486A      6.439194   487A      6.492565   488A      6.557841  
     489A      6.660731   490A      6.680153   491A      6.724791  
     492A      6.755467   493A      6.777370   494A      6.821643  
     495A      6.864598   496A      6.990835   497A      7.050031  
     498A      7.065994   499A      7.119217   500A      7.158573  
     501A      7.186287   502A      7.232236   503A      7.349062  
     504A      7.400151   505A      7.419479   506A      7.572023  
     507A      7.620345   508A      7.694918   509A      7.707479  
     510A      7.730661   511A      7.746427   512A      7.773858  
     513A      7.775770   514A      7.810092   515A      7.821617  
     516A      7.853671   517A      7.882353   518A      7.955489  
     519A      7.986461   520A      8.066444   521A      8.094552  
     522A      8.106316   523A      8.112998   524A      8.142390  
     525A      8.180952   526A      8.216250   527A      8.238901  
     528A      8.264178   529A      8.275432   530A      8.288537  
     531A      8.307824   532A      8.317204   533A      8.328714  
     534A      8.337292   535A      8.396075   536A      8.759087  
     537A      8.762429   538A      8.770764   539A      8.810804  
     540A      8.840531   541A      8.853245   542A      8.872383  
     543A      8.901111   544A      9.087832   545A      9.100049  
     546A      9.123628   547A      9.686107   548A      9.704495  
     549A      9.757126   550A      9.806126   551A      9.866613  
     552A      9.881002   553A      9.892220   554A      9.902849  
     555A      9.914378   556A      9.927221   557A     10.070222  
     558A     10.091105   559A     10.109740   560A     10.127848  
     561A     10.141569   562A     10.210213   563A     10.278869  
     564A     10.329617   565A     10.344406   566A     10.385860  
     567A     11.090420   568A     11.097004   569A     11.114484  
     570A     11.180345   571A     11.262509   572A     11.727375  
     573A     11.760210   574A     11.816604   575A     11.862661  
     576A     11.876660   577A     12.045214   578A     12.100366  
     579A     12.233204   580A     12.277497   581A     12.293470  
     582A     13.509495   583A     13.539522   584A     13.632398  
     585A     13.694015   586A     13.727293   587A     13.899285  
     588A     13.979065   589A     14.001965   590A     14.055159  
     591A     14.062992   592A     16.495499   593A     17.445738  
     594A     28.226370   595A     28.449511   596A     28.628570  
     597A     64.873941   598A     65.238435   599A     66.888644  
     600A     67.107968   601A     67.529182   602A    161.015401  

    Final Occupation by Irrep:
              A 
    DOCC [     5 ]
    NA   [     5 ]
    NB   [     5 ]

  @DF-RHF Final Energy:   -76.06017713557469

   => Energetics <=

    Nuclear Repulsion Energy =              9.2724768902876846
    One-Electron Energy =                -123.1984902086655325
    Two-Electron Energy =                  37.8658361828031431
    Total Energy =                        -76.0601771355746905

Computation Completed


Properties will be evaluated at   0.000000,   0.000000,   0.000000 [a0]

Properties computed using the SCF density matrix


 Multipole Moments:

 ------------------------------------------------------------------------------------
     Multipole            Electronic (a.u.)      Nuclear  (a.u.)        Total (a.u.)
 ------------------------------------------------------------------------------------

 L = 1.  Multiply by 2.5417464519 to convert [e a0] to [Debye]
 Dipole X            :          8.6633162           -8.0439556            0.6193606
 Dipole Y            :        -14.3132627           14.4816440            0.1683813
 Dipole Z            :         59.7740223          -59.4348762            0.3391461
 Magnitude           :                                                    0.7259338

 ------------------------------------------------------------------------------------

*** tstop() called on ddmfs1 at Mon Jan 22 21:10:10 2024
Module time:
	user time   =     130.38 seconds =       2.17 minutes
	system time =       6.49 seconds =       0.11 minutes
	total time  =          9 seconds =       0.15 minutes
Total time:
	user time   =     130.38 seconds =       2.17 minutes
	system time =       6.49 seconds =       0.11 minutes
	total time  =          9 seconds =       0.15 minutes

*** tstart() called on ddmfs1
*** at Mon Jan 22 21:10:10 2024


  //>>>>>>>>>>>>>>>>>>>>>>>>>>>>>>>>>>>//
  //               DFMP2               //
  //<<<<<<<<<<<<<<<<<<<<<<<<<<<<<<<<<<<//

   => Loading Basis Set <=

    Name: (AUG-CC-PVTZ AUX)
    Role: RIFIT
    Keyword: DF_BASIS_MP2
    atoms 1                                   entry CL         line   742 file /ddmfs1b/softs/psi4conda/share/psi4/basis/aug-cc-pvtz-ri.gbs 
    atoms 2, 5, 8, 11, 14, 17                 entry O          line   264 file /ddmfs1b/softs/psi4conda/share/psi4/basis/aug-cc-pvtz-ri.gbs 
    atoms 3-4, 6-7, 9-10, 12-13, 15-16, 18-19 entry H          line    30 file /ddmfs1b/softs/psi4conda/share/psi4/basis/aug-cc-pvtz-ri.gbs 

	 --------------------------------------------------------
	                          DF-MP2                         
	      2nd-Order Density-Fitted Moller-Plesset Theory     
	              RMP2 Wavefunction,  20 Threads             
	                                                         
	        Rob Parrish, Justin Turney, Andy Simmonett,      
	           Ed Hohenstein, and C. David Sherrill          
	 --------------------------------------------------------

   => Auxiliary Basis Set <=

  Basis Set: (AUG-CC-PVTZ AUX)
    Blend: AUG-CC-PVTZ-RI
    Number of shells: 373
    Number of basis functions: 1335
    Number of Cartesian functions: 1667
    Spherical Harmonics?: true
    Max angular momentum: 4

	 --------------------------------------------------------
	                 NBF =   602, NAUX =  1335
	 --------------------------------------------------------
	   CLASS    FOCC     OCC    AOCC    AVIR     VIR    FVIR
	   PAIRS       0       5       5     597     597       0
	 --------------------------------------------------------

	-----------------------------------------------------------
	 ==================> DF-MP2 Energies <==================== 
	-----------------------------------------------------------
	 Reference Energy          =     -76.0601771355746905 [Eh]
	 Singles Energy            =      -0.0000000000000000 [Eh]
	 Same-Spin Energy          =      -0.0681817846335212 [Eh]
	 Opposite-Spin Energy      =      -0.2153554961010829 [Eh]
	 Correlation Energy        =      -0.2835372807346042 [Eh]
	 Total Energy              =     -76.3437144163092967 [Eh]
	-----------------------------------------------------------
	 ================> DF-SCS-MP2 Energies <================== 
	-----------------------------------------------------------
	 SCS Same-Spin Scale       =       0.3333333333333333 [-]
	 SCS Opposite-Spin Scale   =       1.2000000000000000 [-]
	 SCS Same-Spin Energy      =      -0.0227272615445071 [Eh]
	 SCS Opposite-Spin Energy  =      -0.2584265953212995 [Eh]
	 SCS Correlation Energy    =      -0.2811538568658065 [Eh]
	 SCS Total Energy          =     -76.3413309924405041 [Eh]
	-----------------------------------------------------------


*** tstop() called on ddmfs1 at Mon Jan 22 21:10:17 2024
Module time:
	user time   =      34.97 seconds =       0.58 minutes
	system time =       2.23 seconds =       0.04 minutes
	total time  =          7 seconds =       0.12 minutes
Total time:
	user time   =     165.37 seconds =       2.76 minutes
	system time =       8.72 seconds =       0.15 minutes
	total time  =         16 seconds =       0.27 minutes

    Psi4 stopped on: Monday, 22 January 2024 09:10PM
    Psi4 wall time for execution: 0:00:15.44

*** Psi4 exiting successfully. Buy a developer a beer!
