
    -----------------------------------------------------------------------
          Psi4: An Open-Source Ab Initio Electronic Structure Package
                               Psi4 1.8.2 release

                         Git: Rev {} zzzzzzz 


    D. G. A. Smith, L. A. Burns, A. C. Simmonett, R. M. Parrish,
    M. C. Schieber, R. Galvelis, P. Kraus, H. Kruse, R. Di Remigio,
    A. Alenaizan, A. M. James, S. Lehtola, J. P. Misiewicz, M. Scheurer,
    R. A. Shaw, J. B. Schriber, Y. Xie, Z. L. Glick, D. A. Sirianni,
    J. S. O'Brien, J. M. Waldrop, A. Kumar, E. G. Hohenstein,
    B. P. Pritchard, B. R. Brooks, H. F. Schaefer III, A. Yu. Sokolov,
    K. Patkowski, A. E. DePrince III, U. Bozkaya, R. A. King,
    F. A. Evangelista, J. M. Turney, T. D. Crawford, C. D. Sherrill,
    J. Chem. Phys. 152(18) 184108 (2020). https://doi.org/10.1063/5.0006002

                            Additional Code Authors
    E. T. Seidl, C. L. Janssen, E. F. Valeev, M. L. Leininger,
    J. F. Gonthier, R. M. Richard, H. R. McAlexander, M. Saitow, X. Wang,
    P. Verma, M. H. Lechner, A. Jiang, S. Behnle, A. G. Heide,
    M. F. Herbst, and D. L. Poole

             Previous Authors, Complete List of Code Contributors,
                       and Citations for Specific Modules
    https://github.com/psi4/psi4/blob/master/codemeta.json
    https://github.com/psi4/psi4/graphs/contributors
    http://psicode.org/psi4manual/master/introduction.html#citing-psifour

    -----------------------------------------------------------------------


    Psi4 started on: Monday, 22 January 2024 08:44PM

    Process ID: 105227
    Host:       ddmfs1
    PSIDATADIR: /ddmfs1b/softs/psi4conda/share/psi4
    Memory:     500.0 MiB
    Threads:    20
    
  ==> Input File <==

--------------------------------------------------------------------------
MEMORY 60 GB

molecule dimer {
0 1
Gh(Cl)     0.000000     0.000000     0.000000
Gh(O)     -3.345480    -0.015182     0.788190
Gh(H)     -3.632837    -0.005960    -0.124407
Gh(H)     -2.407724    -0.067282     0.760475
O          0.909665    -3.050980    -1.330231
H          0.510666    -2.302691    -0.878649
H          1.796129    -2.796512    -1.580084
Gh(O)      0.623160    -1.959905     2.371318
Gh(H)      1.061949    -2.773718     2.071950
Gh(H)      0.542996    -1.324600     1.640391

units ang
no_reorient
no_com
symmetry c1
}

set {
basis        aug-cc-pVTZ
scf_type     df
}

energy("mp2")
--------------------------------------------------------------------------

  Memory set to  55.879 GiB by Python driver.

Scratch directory: /ddmfs1a/scratch/
   => Libint2 <=

    Primary   basis highest AM E, G, H:  5, 4, 3
    Auxiliary basis highest AM E, G, H:  6, 5, 4
    Onebody   basis highest AM E, G, H:  6, 5, 4
    Solid Harmonics ordering:            gaussian

*** tstart() called on ddmfs1
*** at Mon Jan 22 20:44:45 2024

   => Loading Basis Set <=

    Name: AUG-CC-PVTZ
    Role: ORBITAL
    Keyword: BASIS
    atoms 1              entry CL         line   988 file /ddmfs1b/softs/psi4conda/share/psi4/basis/aug-cc-pvtz.gbs 
    atoms 2, 5, 8        entry O          line   331 file /ddmfs1b/softs/psi4conda/share/psi4/basis/aug-cc-pvtz.gbs 
    atoms 3-4, 6-7, 9-10 entry H          line    40 file /ddmfs1b/softs/psi4conda/share/psi4/basis/aug-cc-pvtz.gbs 


         ---------------------------------------------------------
                                   SCF
               by Justin Turney, Rob Parrish, Andy Simmonett
                          and Daniel G. A. Smith
                              RHF Reference
                       20 Threads,  57220 MiB Core
         ---------------------------------------------------------

  ==> Geometry <==

    Molecular point group: c1
    Full point group: C1

    Geometry (in Angstrom), charge = 0, multiplicity = 1:

       Center              X                  Y                   Z               Mass       
    ------------   -----------------  -----------------  -----------------  -----------------
      Gh(CL)          0.000000000000     0.000000000000     0.000000000000    34.968852682000
      Gh(O)          -3.345480000000    -0.015182000000     0.788190000000    15.994914619570
      Gh(H)          -3.632837000000    -0.005960000000    -0.124407000000     1.007825032230
      Gh(H)          -2.407724000000    -0.067282000000     0.760475000000     1.007825032230
         O            0.909665000000    -3.050980000000    -1.330231000000    15.994914619570
         H            0.510666000000    -2.302691000000    -0.878649000000     1.007825032230
         H            1.796129000000    -2.796512000000    -1.580084000000     1.007825032230
      Gh(O)           0.623160000000    -1.959905000000     2.371318000000    15.994914619570
      Gh(H)           1.061949000000    -2.773718000000     2.071950000000     1.007825032230
      Gh(H)           0.542996000000    -1.324600000000     1.640391000000     1.007825032230

  Running in c1 symmetry.

  Rotational constants: A =      0.05781  B =      0.04095  C =      0.03467 [cm^-1]
  Rotational constants: A =   1733.05676  B =   1227.74042  C =   1039.31087 [MHz]
  Nuclear repulsion =    9.179266508766995

  Charge       = 0
  Multiplicity = 1
  Electrons    = 10
  Nalpha       = 5
  Nbeta        = 5

  ==> Algorithm <==

  SCF Algorithm Type is DF.
  DIIS enabled.
  MOM disabled.
  Fractional occupation disabled.
  Guess Type is SAD.
  Energy threshold   = 1.00e-08
  Density threshold  = 1.00e-08
  Integral threshold = 1.00e-12

  ==> Primary Basis <==

  Basis Set: AUG-CC-PVTZ
    Blend: AUG-CC-PVTZ
    Number of shells: 112
    Number of basis functions: 326
    Number of Cartesian functions: 374
    Spherical Harmonics?: true
    Max angular momentum: 3

   => Loading Basis Set <=

    Name: (AUG-CC-PVTZ AUX)
    Role: JKFIT
    Keyword: DF_BASIS_SCF
    atoms 1              entry CL         line   816 file /ddmfs1b/softs/psi4conda/share/psi4/basis/aug-cc-pvtz-jkfit.gbs 
    atoms 2, 5, 8        entry O          line   286 file /ddmfs1b/softs/psi4conda/share/psi4/basis/aug-cc-pvtz-jkfit.gbs 
    atoms 3-4, 6-7, 9-10 entry H          line    70 file /ddmfs1b/softs/psi4conda/share/psi4/basis/aug-cc-pvtz-jkfit.gbs 

  ==> Integral Setup <==

  DFHelper Memory: AOs need 0.569 GiB; user supplied 41.910 GiB. 
  Using in-core AOs.

  ==> MemDFJK: Density-Fitted J/K Matrices <==

    J tasked:                   Yes
    K tasked:                   Yes
    wK tasked:                   No
    OpenMP threads:              20
    Memory [MiB]:             42915
    Algorithm:                 Core
    Schwarz Cutoff:           1E-12
    Mask sparsity (%):       9.1912
    Fitting Condition:        1E-10

   => Auxiliary Basis Set <=

  Basis Set: (AUG-CC-PVTZ AUX)
    Blend: AUG-CC-PVTZ-JKFIT
    Number of shells: 216
    Number of basis functions: 734
    Number of Cartesian functions: 903
    Spherical Harmonics?: true
    Max angular momentum: 4

  Minimum eigenvalue in the overlap matrix is 2.3468549269E-04.
  Reciprocal condition number of the overlap matrix is 2.4054280812E-05.
    Using symmetric orthogonalization.

  ==> Pre-Iterations <==

  SCF Guess: Superposition of Atomic Densities via on-the-fly atomic UHF (no occupation information).

   -------------------------
    Irrep   Nso     Nmo    
   -------------------------
     A        326     326 
   -------------------------
    Total     326     326
   -------------------------

  ==> Iterations <==

                           Total Energy        Delta E     RMS |[F,P]|

   @DF-RHF iter SAD:   -75.47405347468663   -7.54741e+01   0.00000e+00 
   @DF-RHF iter   1:   -75.97654323772676   -5.02490e-01   1.43751e-03 DIIS/ADIIS
   @DF-RHF iter   2:   -76.02898361927733   -5.24404e-02   9.75682e-04 DIIS/ADIIS
   @DF-RHF iter   3:   -76.06011248676141   -3.11289e-02   6.63971e-05 DIIS
   @DF-RHF iter   4:   -76.06050356659911   -3.91080e-04   1.58146e-05 DIIS
   @DF-RHF iter   5:   -76.06052763182500   -2.40652e-05   3.57248e-06 DIIS
   @DF-RHF iter   6:   -76.06052959992883   -1.96810e-06   7.92907e-07 DIIS
   @DF-RHF iter   7:   -76.06052970763193   -1.07703e-07   1.48541e-07 DIIS
   @DF-RHF iter   8:   -76.06052971097550   -3.34357e-09   2.46262e-08 DIIS
   @DF-RHF iter   9:   -76.06052971104826   -7.27596e-11   6.13785e-09 DIIS
  Energy and wave function converged.


  ==> Post-Iterations <==

    Orbital Energies [Eh]
    ---------------------

    Doubly Occupied:                                                      

       1A    -20.565989     2A     -1.350987     3A     -0.723008  
       4A     -0.578905     5A     -0.509382  

    Virtual:                                                              

       6A      0.018756     7A      0.035719     8A      0.042815  
       9A      0.050448    10A      0.062059    11A      0.067076  
      12A      0.084653    13A      0.106889    14A      0.112971  
      15A      0.117883    16A      0.134223    17A      0.136923  
      18A      0.156565    19A      0.161620    20A      0.163087  
      21A      0.173630    22A      0.177020    23A      0.180171  
      24A      0.190991    25A      0.205147    26A      0.218458  
      27A      0.225844    28A      0.254993    29A      0.263027  
      30A      0.266127    31A      0.285796    32A      0.292504  
      33A      0.300074    34A      0.303417    35A      0.313908  
      36A      0.321448    37A      0.330321    38A      0.339445  
      39A      0.350946    40A      0.356390    41A      0.362402  
      42A      0.380728    43A      0.396176    44A      0.407550  
      45A      0.413246    46A      0.436080    47A      0.443915  
      48A      0.448651    49A      0.470017    50A      0.473992  
      51A      0.498213    52A      0.510493    53A      0.524735  
      54A      0.563736    55A      0.566458    56A      0.581001  
      57A      0.604095    58A      0.611093    59A      0.639099  
      60A      0.661571    61A      0.676992    62A      0.691133  
      63A      0.708000    64A      0.725681    65A      0.737854  
      66A      0.748382    67A      0.752377    68A      0.755744  
      69A      0.771093    70A      0.786662    71A      0.800288  
      72A      0.804456    73A      0.816137    74A      0.824941  
      75A      0.831514    76A      0.838621    77A      0.854945  
      78A      0.865421    79A      0.869546    80A      0.875818  
      81A      0.887704    82A      0.898448    83A      0.902703  
      84A      0.905377    85A      0.930970    86A      0.938217  
      87A      0.953880    88A      0.963130    89A      0.975373  
      90A      0.986954    91A      0.990557    92A      1.001571  
      93A      1.006760    94A      1.014394    95A      1.026870  
      96A      1.038708    97A      1.042101    98A      1.045741  
      99A      1.069798   100A      1.085459   101A      1.094844  
     102A      1.107007   103A      1.118201   104A      1.139692  
     105A      1.154739   106A      1.186704   107A      1.200160  
     108A      1.216220   109A      1.237543   110A      1.249632  
     111A      1.253586   112A      1.255339   113A      1.294471  
     114A      1.302255   115A      1.321524   116A      1.334070  
     117A      1.349729   118A      1.378918   119A      1.424605  
     120A      1.442283   121A      1.452509   122A      1.461670  
     123A      1.482373   124A      1.495341   125A      1.542625  
     126A      1.552870   127A      1.571569   128A      1.587364  
     129A      1.607313   130A      1.616167   131A      1.637599  
     132A      1.653813   133A      1.671950   134A      1.692323  
     135A      1.715561   136A      1.719696   137A      1.728080  
     138A      1.750749   139A      1.753879   140A      1.771380  
     141A      1.792881   142A      1.802653   143A      1.817510  
     144A      1.862707   145A      1.872450   146A      1.876412  
     147A      1.902207   148A      1.927262   149A      1.971168  
     150A      1.987078   151A      2.002344   152A      2.063257  
     153A      2.077196   154A      2.100491   155A      2.125900  
     156A      2.188111   157A      2.289948   158A      2.364351  
     159A      2.399102   160A      2.438272   161A      2.447634  
     162A      2.454026   163A      2.463620   164A      2.485004  
     165A      2.501786   166A      2.508002   167A      2.534101  
     168A      2.535173   169A      2.571262   170A      2.601925  
     171A      2.624039   172A      2.635719   173A      2.645777  
     174A      2.651369   175A      2.657633   176A      2.665095  
     177A      2.695457   178A      2.733478   179A      2.742402  
     180A      2.759947   181A      2.799393   182A      2.856972  
     183A      2.892646   184A      2.965991   185A      2.971068  
     186A      2.993053   187A      3.023063   188A      3.171345  
     189A      3.187955   190A      3.197943   191A      3.216467  
     192A      3.245207   193A      3.291730   194A      3.360636  
     195A      3.385305   196A      3.410682   197A      3.473940  
     198A      3.591364   199A      3.602201   200A      3.726310  
     201A      3.771124   202A      3.784816   203A      3.849071  
     204A      3.983433   205A      4.039771   206A      4.049108  
     207A      4.085062   208A      4.106685   209A      4.124836  
     210A      4.157688   211A      4.203673   212A      4.216100  
     213A      4.242493   214A      4.267293   215A      4.276963  
     216A      4.303604   217A      4.340908   218A      4.372077  
     219A      4.387252   220A      4.392772   221A      4.404771  
     222A      4.446619   223A      4.464796   224A      4.472552  
     225A      4.482467   226A      4.520880   227A      4.560197  
     228A      4.568327   229A      4.628211   230A      4.639965  
     231A      4.643179   232A      4.680379   233A      4.699766  
     234A      4.703126   235A      4.744926   236A      4.763689  
     237A      4.775745   238A      4.788949   239A      4.876636  
     240A      4.881919   241A      4.895680   242A      4.909604  
     243A      4.931129   244A      4.943805   245A      4.973287  
     246A      5.035114   247A      5.049543   248A      5.145637  
     249A      5.179407   250A      5.211344   251A      5.223451  
     252A      5.255795   253A      5.360873   254A      5.392222  
     255A      5.472768   256A      5.528583   257A      5.553710  
     258A      5.583650   259A      5.638715   260A      5.658216  
     261A      5.717926   262A      5.758536   263A      5.783264  
     264A      5.886939   265A      6.152251   266A      6.162828  
     267A      6.189092   268A      6.348798   269A      6.471734  
     270A      6.568159   271A      6.714963   272A      6.742891  
     273A      6.772810   274A      6.907859   275A      7.059319  
     276A      7.154943   277A      7.173344   278A      7.300054  
     279A      7.329424   280A      7.344631   281A      7.411430  
     282A      7.453870   283A      7.684914   284A      7.704562  
     285A      7.739192   286A      7.776720   287A      7.842668  
     288A      7.950579   289A      8.003237   290A      8.075324  
     291A      8.107188   292A      8.241985   293A      8.261771  
     294A      8.288473   295A      8.313699   296A      8.740540  
     297A      8.820897   298A      8.855500   299A      8.956858  
     300A      9.063538   301A      9.690691   302A      9.716379  
     303A      9.840062   304A      9.843315   305A     10.043781  
     306A     10.084141   307A     10.264104   308A     10.287147  
     309A     11.102761   310A     11.294890   311A     11.703665  
     312A     11.727158   313A     12.083752   314A     12.277702  
     315A     13.517175   316A     13.664627   317A     13.916745  
     318A     13.955607   319A     15.045200   320A     16.710039  
     321A     27.978901   322A     28.113622   323A     28.250662  
     324A     65.776293   325A     67.000979   326A    160.885552  

    Final Occupation by Irrep:
              A 
    DOCC [     5 ]
    NA   [     5 ]
    NB   [     5 ]

  @DF-RHF Final Energy:   -76.06052971104826

   => Energetics <=

    Nuclear Repulsion Energy =              9.1792665087669949
    One-Electron Energy =                -123.0230468672569515
    Two-Electron Energy =                  37.7832506474416974
    Total Energy =                        -76.0605297110482468

Computation Completed


Properties will be evaluated at   0.000000,   0.000000,   0.000000 [a0]

Properties computed using the SCF density matrix


 Multipole Moments:

 ------------------------------------------------------------------------------------
     Multipole            Electronic (a.u.)      Nuclear  (a.u.)        Total (a.u.)
 ------------------------------------------------------------------------------------

 L = 1.  Multiply by 2.5417464519 to convert [e a0] to [Debye]
 Dipole X            :        -17.7838384           18.1113525            0.3275141
 Dipole Y            :         56.4331892          -55.7602300            0.6729591
 Dipole Z            :         24.8914578          -24.7565102            0.1349476
 Magnitude           :                                                    0.7604935

 ------------------------------------------------------------------------------------

*** tstop() called on ddmfs1 at Mon Jan 22 20:44:47 2024
Module time:
	user time   =      37.64 seconds =       0.63 minutes
	system time =       2.35 seconds =       0.04 minutes
	total time  =          2 seconds =       0.03 minutes
Total time:
	user time   =      37.64 seconds =       0.63 minutes
	system time =       2.35 seconds =       0.04 minutes
	total time  =          2 seconds =       0.03 minutes

*** tstart() called on ddmfs1
*** at Mon Jan 22 20:44:47 2024


  //>>>>>>>>>>>>>>>>>>>>>>>>>>>>>>>>>>>//
  //               DFMP2               //
  //<<<<<<<<<<<<<<<<<<<<<<<<<<<<<<<<<<<//

   => Loading Basis Set <=

    Name: (AUG-CC-PVTZ AUX)
    Role: RIFIT
    Keyword: DF_BASIS_MP2
    atoms 1              entry CL         line   742 file /ddmfs1b/softs/psi4conda/share/psi4/basis/aug-cc-pvtz-ri.gbs 
    atoms 2, 5, 8        entry O          line   264 file /ddmfs1b/softs/psi4conda/share/psi4/basis/aug-cc-pvtz-ri.gbs 
    atoms 3-4, 6-7, 9-10 entry H          line    30 file /ddmfs1b/softs/psi4conda/share/psi4/basis/aug-cc-pvtz-ri.gbs 

	 --------------------------------------------------------
	                          DF-MP2                         
	      2nd-Order Density-Fitted Moller-Plesset Theory     
	              RMP2 Wavefunction,  20 Threads             
	                                                         
	        Rob Parrish, Justin Turney, Andy Simmonett,      
	           Ed Hohenstein, and C. David Sherrill          
	 --------------------------------------------------------

   => Auxiliary Basis Set <=

  Basis Set: (AUG-CC-PVTZ AUX)
    Blend: AUG-CC-PVTZ-RI
    Number of shells: 205
    Number of basis functions: 741
    Number of Cartesian functions: 929
    Spherical Harmonics?: true
    Max angular momentum: 4

	 --------------------------------------------------------
	                 NBF =   326, NAUX =   741
	 --------------------------------------------------------
	   CLASS    FOCC     OCC    AOCC    AVIR     VIR    FVIR
	   PAIRS       0       5       5     321     321       0
	 --------------------------------------------------------

	-----------------------------------------------------------
	 ==================> DF-MP2 Energies <==================== 
	-----------------------------------------------------------
	 Reference Energy          =     -76.0605297110482610 [Eh]
	 Singles Energy            =      -0.0000000000000000 [Eh]
	 Same-Spin Energy          =      -0.0683437365456848 [Eh]
	 Opposite-Spin Energy      =      -0.2156189203387960 [Eh]
	 Correlation Energy        =      -0.2839626568844808 [Eh]
	 Total Energy              =     -76.3444923679327445 [Eh]
	-----------------------------------------------------------
	 ================> DF-SCS-MP2 Energies <================== 
	-----------------------------------------------------------
	 SCS Same-Spin Scale       =       0.3333333333333333 [-]
	 SCS Opposite-Spin Scale   =       1.2000000000000000 [-]
	 SCS Same-Spin Energy      =      -0.0227812455152283 [Eh]
	 SCS Opposite-Spin Energy  =      -0.2587427044065551 [Eh]
	 SCS Correlation Energy    =      -0.2815239499217834 [Eh]
	 SCS Total Energy          =     -76.3420536609700378 [Eh]
	-----------------------------------------------------------


*** tstop() called on ddmfs1 at Mon Jan 22 20:44:50 2024
Module time:
	user time   =      13.30 seconds =       0.22 minutes
	system time =       0.83 seconds =       0.01 minutes
	total time  =          3 seconds =       0.05 minutes
Total time:
	user time   =      50.96 seconds =       0.85 minutes
	system time =       3.18 seconds =       0.05 minutes
	total time  =          5 seconds =       0.08 minutes

    Psi4 stopped on: Monday, 22 January 2024 08:44PM
    Psi4 wall time for execution: 0:00:05.01

*** Psi4 exiting successfully. Buy a developer a beer!
