
    -----------------------------------------------------------------------
          Psi4: An Open-Source Ab Initio Electronic Structure Package
                               Psi4 1.8.2 release

                         Git: Rev {} zzzzzzz 


    D. G. A. Smith, L. A. Burns, A. C. Simmonett, R. M. Parrish,
    M. C. Schieber, R. Galvelis, P. Kraus, H. Kruse, R. Di Remigio,
    A. Alenaizan, A. M. James, S. Lehtola, J. P. Misiewicz, M. Scheurer,
    R. A. Shaw, J. B. Schriber, Y. Xie, Z. L. Glick, D. A. Sirianni,
    J. S. O'Brien, J. M. Waldrop, A. Kumar, E. G. Hohenstein,
    B. P. Pritchard, B. R. Brooks, H. F. Schaefer III, A. Yu. Sokolov,
    K. Patkowski, A. E. DePrince III, U. Bozkaya, R. A. King,
    F. A. Evangelista, J. M. Turney, T. D. Crawford, C. D. Sherrill,
    J. Chem. Phys. 152(18) 184108 (2020). https://doi.org/10.1063/5.0006002

                            Additional Code Authors
    E. T. Seidl, C. L. Janssen, E. F. Valeev, M. L. Leininger,
    J. F. Gonthier, R. M. Richard, H. R. McAlexander, M. Saitow, X. Wang,
    P. Verma, M. H. Lechner, A. Jiang, S. Behnle, A. G. Heide,
    M. F. Herbst, and D. L. Poole

             Previous Authors, Complete List of Code Contributors,
                       and Citations for Specific Modules
    https://github.com/psi4/psi4/blob/master/codemeta.json
    https://github.com/psi4/psi4/graphs/contributors
    http://psicode.org/psi4manual/master/introduction.html#citing-psifour

    -----------------------------------------------------------------------


    Psi4 started on: Monday, 22 January 2024 07:57PM

    Process ID: 100391
    Host:       ddmfs1
    PSIDATADIR: /ddmfs1b/softs/psi4conda/share/psi4
    Memory:     500.0 MiB
    Threads:    20
    
  ==> Input File <==

--------------------------------------------------------------------------
MEMORY 60 GB

molecule dimer {
-1 1
Cl         0.000000     0.000000     0.000000
Gh(O)      1.697875     2.812156    -0.064854
Gh(H)      1.661557     3.150216     0.885145
Gh(H)      1.369173     1.911949    -0.005570
Gh(O)      2.612789    -0.037192     1.821798
Gh(H)      1.866734    -0.055376     1.210788
Gh(H)      3.305740     0.353047     1.299827
Gh(O)     -0.939614    -2.784060    -1.739328
Gh(H)     -1.213754    -3.715577    -1.660327
Gh(H)     -0.254384    -2.702145    -1.078967
Gh(O)     -0.798589     1.117862     3.058410
Gh(H)     -0.409022     0.795271     3.907486
Gh(H)     -0.301269     0.718251     2.313142
Gh(O)     -3.076715     0.941408     0.114922
Gh(H)     -2.926424     0.271835    -0.596134
Gh(H)     -2.124851     1.261653     0.395401

units ang
no_reorient
no_com
symmetry c1
}

set {
basis        aug-cc-pVTZ
scf_type     df
}

energy("mp2")
--------------------------------------------------------------------------

  Memory set to  55.879 GiB by Python driver.

Scratch directory: /ddmfs1a/scratch/
   => Libint2 <=

    Primary   basis highest AM E, G, H:  5, 4, 3
    Auxiliary basis highest AM E, G, H:  6, 5, 4
    Onebody   basis highest AM E, G, H:  6, 5, 4
    Solid Harmonics ordering:            gaussian

*** tstart() called on ddmfs1
*** at Mon Jan 22 19:57:47 2024

   => Loading Basis Set <=

    Name: AUG-CC-PVTZ
    Role: ORBITAL
    Keyword: BASIS
    atoms 1                            entry CL         line   988 file /ddmfs1b/softs/psi4conda/share/psi4/basis/aug-cc-pvtz.gbs 
    atoms 2, 5, 8, 11, 14              entry O          line   331 file /ddmfs1b/softs/psi4conda/share/psi4/basis/aug-cc-pvtz.gbs 
    atoms 3-4, 6-7, 9-10, 12-13, 15-16 entry H          line    40 file /ddmfs1b/softs/psi4conda/share/psi4/basis/aug-cc-pvtz.gbs 


         ---------------------------------------------------------
                                   SCF
               by Justin Turney, Rob Parrish, Andy Simmonett
                          and Daniel G. A. Smith
                              RHF Reference
                       20 Threads,  57220 MiB Core
         ---------------------------------------------------------

  ==> Geometry <==

    Molecular point group: c1
    Full point group: C1

    Geometry (in Angstrom), charge = -1, multiplicity = 1:

       Center              X                  Y                   Z               Mass       
    ------------   -----------------  -----------------  -----------------  -----------------
         CL           0.000000000000     0.000000000000     0.000000000000    34.968852682000
      Gh(O)           1.697875000000     2.812156000000    -0.064854000000    15.994914619570
      Gh(H)           1.661557000000     3.150216000000     0.885145000000     1.007825032230
      Gh(H)           1.369173000000     1.911949000000    -0.005570000000     1.007825032230
      Gh(O)           2.612789000000    -0.037192000000     1.821798000000    15.994914619570
      Gh(H)           1.866734000000    -0.055376000000     1.210788000000     1.007825032230
      Gh(H)           3.305740000000     0.353047000000     1.299827000000     1.007825032230
      Gh(O)          -0.939614000000    -2.784060000000    -1.739328000000    15.994914619570
      Gh(H)          -1.213754000000    -3.715577000000    -1.660327000000     1.007825032230
      Gh(H)          -0.254384000000    -2.702145000000    -1.078967000000     1.007825032230
      Gh(O)          -0.798589000000     1.117862000000     3.058410000000    15.994914619570
      Gh(H)          -0.409022000000     0.795271000000     3.907486000000     1.007825032230
      Gh(H)          -0.301269000000     0.718251000000     2.313142000000     1.007825032230
      Gh(O)          -3.076715000000     0.941408000000     0.114922000000    15.994914619570
      Gh(H)          -2.926424000000     0.271835000000    -0.596134000000     1.007825032230
      Gh(H)          -2.124851000000     1.261653000000     0.395401000000     1.007825032230

  Running in c1 symmetry.

  Rotational constants: A =      0.03675  B =      0.02546  C =      0.02066 [cm^-1]
  Rotational constants: A =   1101.73223  B =    763.14337  C =    619.47243 [MHz]
  Nuclear repulsion =    0.000000000000000

  Charge       = -1
  Multiplicity = 1
  Electrons    = 18
  Nalpha       = 9
  Nbeta        = 9

  ==> Algorithm <==

  SCF Algorithm Type is DF.
  DIIS enabled.
  MOM disabled.
  Fractional occupation disabled.
  Guess Type is SAD.
  Energy threshold   = 1.00e-08
  Density threshold  = 1.00e-08
  Integral threshold = 1.00e-12

  ==> Primary Basis <==

  Basis Set: AUG-CC-PVTZ
    Blend: AUG-CC-PVTZ
    Number of shells: 176
    Number of basis functions: 510
    Number of Cartesian functions: 584
    Spherical Harmonics?: true
    Max angular momentum: 3

   => Loading Basis Set <=

    Name: (AUG-CC-PVTZ AUX)
    Role: JKFIT
    Keyword: DF_BASIS_SCF
    atoms 1                            entry CL         line   816 file /ddmfs1b/softs/psi4conda/share/psi4/basis/aug-cc-pvtz-jkfit.gbs 
    atoms 2, 5, 8, 11, 14              entry O          line   286 file /ddmfs1b/softs/psi4conda/share/psi4/basis/aug-cc-pvtz-jkfit.gbs 
    atoms 3-4, 6-7, 9-10, 12-13, 15-16 entry H          line    70 file /ddmfs1b/softs/psi4conda/share/psi4/basis/aug-cc-pvtz-jkfit.gbs 

  ==> Integral Setup <==

  DFHelper Memory: AOs need 1.955 GiB; user supplied 41.910 GiB. 
  Using in-core AOs.

  ==> MemDFJK: Density-Fitted J/K Matrices <==

    J tasked:                   Yes
    K tasked:                   Yes
    wK tasked:                   No
    OpenMP threads:              20
    Memory [MiB]:             42915
    Algorithm:                 Core
    Schwarz Cutoff:           1E-12
    Mask sparsity (%):      15.0219
    Fitting Condition:        1E-10

   => Auxiliary Basis Set <=

  Basis Set: (AUG-CC-PVTZ AUX)
    Blend: AUG-CC-PVTZ-JKFIT
    Number of shells: 332
    Number of basis functions: 1126
    Number of Cartesian functions: 1385
    Spherical Harmonics?: true
    Max angular momentum: 4

  Minimum eigenvalue in the overlap matrix is 1.5856800010E-04.
  Reciprocal condition number of the overlap matrix is 1.3008200202E-05.
    Using symmetric orthogonalization.

  ==> Pre-Iterations <==

  SCF Guess: Superposition of Atomic Densities via on-the-fly atomic UHF (no occupation information).

   -------------------------
    Irrep   Nso     Nmo    
   -------------------------
     A        510     510 
   -------------------------
    Total     510     510
   -------------------------

  ==> Iterations <==

                           Total Energy        Delta E     RMS |[F,P]|

   @DF-RHF iter SAD:  -459.11248998671022   -4.59112e+02   0.00000e+00 
   @DF-RHF iter   1:  -459.51389447897338   -4.01404e-01   5.85773e-04 ADIIS/DIIS
   @DF-RHF iter   2:  -459.56480763351408   -5.09132e-02   3.00232e-04 ADIIS/DIIS
   @DF-RHF iter   3:  -459.57350699834473   -8.69936e-03   2.09718e-05 DIIS
   @DF-RHF iter   4:  -459.57356476741006   -5.77691e-05   4.10663e-06 DIIS
   @DF-RHF iter   5:  -459.57356839078955   -3.62338e-06   4.21841e-07 DIIS
   @DF-RHF iter   6:  -459.57356847386785   -8.30783e-08   3.82627e-08 DIIS
   @DF-RHF iter   7:  -459.57356847489831   -1.03046e-09   4.46341e-09 DIIS
  Energy and wave function converged.


  ==> Post-Iterations <==

    Orbital Energies [Eh]
    ---------------------

    Doubly Occupied:                                                      

       1A   -104.507142     2A    -10.230030     3A     -7.696101  
       4A     -7.696087     5A     -7.696068     6A     -0.733469  
       7A     -0.150314     8A     -0.150308     9A     -0.150301  

    Virtual:                                                              

      10A      0.117140    11A      0.121035    12A      0.129991  
      13A      0.137772    14A      0.144724    15A      0.162366  
      16A      0.164834    17A      0.172749    18A      0.186200  
      19A      0.194053    20A      0.222149    21A      0.242833  
      22A      0.247908    23A      0.254034    24A      0.255674  
      25A      0.260316    26A      0.263608    27A      0.270290  
      28A      0.272339    29A      0.279071    30A      0.286063  
      31A      0.287758    32A      0.298413    33A      0.310788  
      34A      0.312543    35A      0.317676    36A      0.331097  
      37A      0.341404    38A      0.345112    39A      0.350637  
      40A      0.351148    41A      0.359740    42A      0.376709  
      43A      0.397309    44A      0.409427    45A      0.418211  
      46A      0.425298    47A      0.437538    48A      0.440394  
      49A      0.442115    50A      0.451816    51A      0.455542  
      52A      0.464322    53A      0.468436    54A      0.475255  
      55A      0.479541    56A      0.483946    57A      0.493842  
      58A      0.500161    59A      0.501886    60A      0.510716  
      61A      0.512341    62A      0.518222    63A      0.523364  
      64A      0.536618    65A      0.543154    66A      0.545775  
      67A      0.548288    68A      0.554927    69A      0.563395  
      70A      0.570527    71A      0.576973    72A      0.585293  
      73A      0.601863    74A      0.616589    75A      0.625375  
      76A      0.634982    77A      0.648509    78A      0.661007  
      79A      0.685132    80A      0.691870    81A      0.704532  
      82A      0.711918    83A      0.727096    84A      0.761250  
      85A      0.772540    86A      0.779756    87A      0.788250  
      88A      0.794086    89A      0.812696    90A      0.822025  
      91A      0.834508    92A      0.843937    93A      0.857055  
      94A      0.860656    95A      0.867686    96A      0.890036  
      97A      0.904847    98A      0.915794    99A      0.926480  
     100A      0.928270   101A      0.930247   102A      0.943785  
     103A      0.946092   104A      0.947439   105A      0.955210  
     106A      0.956018   107A      0.959548   108A      0.968322  
     109A      0.973044   110A      0.978422   111A      0.986711  
     112A      0.995867   113A      1.000312   114A      1.001242  
     115A      1.007824   116A      1.012368   117A      1.019298  
     118A      1.025870   119A      1.035126   120A      1.036501  
     121A      1.045211   122A      1.051950   123A      1.058863  
     124A      1.063998   125A      1.071352   126A      1.072801  
     127A      1.081011   128A      1.085726   129A      1.095249  
     130A      1.098729   131A      1.107870   132A      1.110323  
     133A      1.118998   134A      1.127065   135A      1.134200  
     136A      1.137818   137A      1.148539   138A      1.152584  
     139A      1.157015   140A      1.168089   141A      1.169067  
     142A      1.178328   143A      1.181728   144A      1.185552  
     145A      1.196833   146A      1.200266   147A      1.208356  
     148A      1.217283   149A      1.229292   150A      1.233379  
     151A      1.243326   152A      1.244813   153A      1.258630  
     154A      1.275430   155A      1.280374   156A      1.286133  
     157A      1.288999   158A      1.297055   159A      1.310545  
     160A      1.320659   161A      1.339623   162A      1.342215  
     163A      1.349232   164A      1.367478   165A      1.376388  
     166A      1.382394   167A      1.401461   168A      1.412466  
     169A      1.413826   170A      1.426164   171A      1.439066  
     172A      1.446274   173A      1.456020   174A      1.464465  
     175A      1.465848   176A      1.485562   177A      1.499422  
     178A      1.518457   179A      1.528563   180A      1.543495  
     181A      1.564255   182A      1.574673   183A      1.585533  
     184A      1.590996   185A      1.604197   186A      1.623153  
     187A      1.633886   188A      1.645362   189A      1.653175  
     190A      1.654600   191A      1.680596   192A      1.693956  
     193A      1.714694   194A      1.729861   195A      1.741279  
     196A      1.780674   197A      1.789587   198A      1.809671  
     199A      1.816653   200A      1.844640   201A      1.855956  
     202A      1.865293   203A      1.871786   204A      1.893802  
     205A      1.897893   206A      1.911560   207A      1.921055  
     208A      1.927734   209A      1.932248   210A      1.939550  
     211A      1.955904   212A      1.959365   213A      1.967525  
     214A      1.977536   215A      1.984876   216A      1.993002  
     217A      2.002138   218A      2.020845   219A      2.026789  
     220A      2.035429   221A      2.051380   222A      2.069253  
     223A      2.078213   224A      2.088249   225A      2.089273  
     226A      2.105058   227A      2.122100   228A      2.140280  
     229A      2.162129   230A      2.196411   231A      2.203200  
     232A      2.222616   233A      2.232544   234A      2.275909  
     235A      2.292999   236A      2.321767   237A      2.342574  
     238A      2.389523   239A      2.415586   240A      2.551734  
     241A      2.573737   242A      2.600343   243A      2.616301  
     244A      2.632512   245A      2.646310   246A      2.664664  
     247A      2.666754   248A      2.674302   249A      2.677718  
     250A      2.685771   251A      2.689022   252A      2.698789  
     253A      2.711523   254A      2.722891   255A      2.739475  
     256A      2.749517   257A      2.759963   258A      2.767163  
     259A      2.779924   260A      2.787528   261A      2.790151  
     262A      2.799008   263A      2.811717   264A      2.820036  
     265A      2.826299   266A      2.841239   267A      2.845380  
     268A      2.849943   269A      2.864742   270A      2.869859  
     271A      2.873922   272A      2.898109   273A      2.912401  
     274A      2.935459   275A      2.938301   276A      2.962482  
     277A      3.007471   278A      3.028048   279A      3.041495  
     280A      3.061562   281A      3.071600   282A      3.092717  
     283A      3.125970   284A      3.137517   285A      3.147764  
     286A      3.160177   287A      3.185352   288A      3.218990  
     289A      3.295647   290A      3.307917   291A      3.321775  
     292A      3.325539   293A      3.330281   294A      3.333145  
     295A      3.352740   296A      3.360912   297A      3.367903  
     298A      3.379917   299A      3.393997   300A      3.412795  
     301A      3.422649   302A      3.428066   303A      3.432768  
     304A      3.461166   305A      3.471316   306A      3.490920  
     307A      3.502778   308A      3.529594   309A      3.539790  
     310A      3.555471   311A      3.592245   312A      3.604254  
     313A      3.615167   314A      3.657947   315A      3.673437  
     316A      3.678181   317A      3.690205   318A      3.704155  
     319A      3.738368   320A      3.748924   321A      3.759887  
     322A      3.774699   323A      3.784884   324A      3.800832  
     325A      3.844214   326A      3.851547   327A      3.875208  
     328A      3.911093   329A      3.919231   330A      3.929837  
     331A      3.973547   332A      4.026390   333A      4.078982  
     334A      4.103819   335A      4.541406   336A      4.544665  
     337A      4.563030   338A      4.572131   339A      4.582659  
     340A      4.593789   341A      4.620525   342A      4.636389  
     343A      4.644175   344A      4.650369   345A      4.660046  
     346A      4.699644   347A      4.742231   348A      4.758709  
     349A      4.759793   350A      4.768309   351A      4.787183  
     352A      4.811365   353A      4.814484   354A      4.832393  
     355A      4.837179   356A      4.852233   357A      4.863253  
     358A      4.871694   359A      4.876962   360A      4.917727  
     361A      4.949871   362A      5.018966   363A      5.036779  
     364A      5.041287   365A      5.054095   366A      5.056999  
     367A      5.065011   368A      5.076576   369A      5.084282  
     370A      5.098214   371A      5.106513   372A      5.130534  
     373A      5.170541   374A      5.178515   375A      5.201470  
     376A      5.206796   377A      5.259054   378A      5.302769  
     379A      5.318864   380A      5.387308   381A      5.414218  
     382A      5.417757   383A      5.455622   384A      5.492152  
     385A      5.529478   386A      5.606044   387A      5.621384  
     388A      5.635376   389A      5.659701   390A      5.703407  
     391A      5.706410   392A      5.727169   393A      5.728565  
     394A      5.795271   395A      5.799030   396A      5.825230  
     397A      5.842707   398A      5.873947   399A      5.901205  
     400A      5.907597   401A      5.966068   402A      5.986612  
     403A      6.011580   404A      6.131692   405A      6.272204  
     406A      6.303647   407A      6.325461   408A      6.344669  
     409A      6.368139   410A      6.414831   411A      6.517081  
     412A      6.533482   413A      6.568295   414A      6.630799  
     415A      6.659147   416A      6.720557   417A      6.761576  
     418A      6.873514   419A      6.898797   420A      7.025625  
     421A      7.174796   422A      7.207414   423A      7.231057  
     424A      7.307717   425A      7.479252   426A      7.858219  
     427A      7.882439   428A      7.888793   429A      7.899624  
     430A      7.940472   431A      7.950879   432A      7.963335  
     433A      7.985189   434A      8.009932   435A      8.060555  
     436A      8.178612   437A      8.196059   438A      8.199776  
     439A      8.224860   440A      8.297218   441A      8.297675  
     442A      8.319423   443A      8.338061   444A      8.353134  
     445A      8.377730   446A      8.388979   447A      8.401510  
     448A      8.441333   449A      8.445881   450A      8.508329  
     451A      8.697401   452A      8.777708   453A      8.853654  
     454A      8.858027   455A      8.890611   456A      8.978096  
     457A      9.011808   458A      9.036211   459A      9.128617  
     460A      9.222247   461A      9.778733   462A      9.815796  
     463A      9.847388   464A      9.875192   465A      9.945808  
     466A     10.012517   467A     10.025220   468A     10.032465  
     469A     10.056854   470A     10.098114   471A     10.159763  
     472A     10.208347   473A     10.234730   474A     10.252800  
     475A     10.267154   476A     10.399274   477A     10.411413  
     478A     10.469195   479A     10.494182   480A     10.506356  
     481A     11.016432   482A     11.194664   483A     11.215087  
     484A     11.360534   485A     11.456439   486A     11.752892  
     487A     11.773815   488A     11.782625   489A     11.853418  
     490A     11.936825   491A     11.979707   492A     12.081968  
     493A     12.206554   494A     12.235705   495A     12.426339  
     496A     13.444837   497A     13.631202   498A     13.657295  
     499A     13.681069   500A     13.905876   501A     13.968171  
     502A     14.071000   503A     14.148791   504A     14.169668  
     505A     14.191552   506A     62.580347   507A     64.690207  
     508A     64.718816   509A     65.875956   510A     67.082969  

    Final Occupation by Irrep:
              A 
    DOCC [     9 ]
    NA   [     9 ]
    NB   [     9 ]

  @DF-RHF Final Energy:  -459.57356847489831

   => Energetics <=

    Nuclear Repulsion Energy =              0.0000000000000000
    One-Electron Energy =                -641.1275094454405235
    Two-Electron Energy =                 181.5539409705422429
    Total Energy =                       -459.5735684748982521

Computation Completed


Properties will be evaluated at   0.000000,   0.000000,   0.000000 [a0]

Properties computed using the SCF density matrix


 Multipole Moments:

 ------------------------------------------------------------------------------------
     Multipole            Electronic (a.u.)      Nuclear  (a.u.)        Total (a.u.)
 ------------------------------------------------------------------------------------

 L = 1.  Multiply by 2.5417464519 to convert [e a0] to [Debye]
 Dipole X            :          0.0000983            0.0000000            0.0000983
 Dipole Y            :          0.0000941            0.0000000            0.0000941
 Dipole Z            :          0.0001928            0.0000000            0.0001928
 Magnitude           :                                                    0.0002360

 ------------------------------------------------------------------------------------

*** tstop() called on ddmfs1 at Mon Jan 22 19:57:53 2024
Module time:
	user time   =      91.38 seconds =       1.52 minutes
	system time =       5.74 seconds =       0.10 minutes
	total time  =          6 seconds =       0.10 minutes
Total time:
	user time   =      91.38 seconds =       1.52 minutes
	system time =       5.74 seconds =       0.10 minutes
	total time  =          6 seconds =       0.10 minutes

*** tstart() called on ddmfs1
*** at Mon Jan 22 19:57:53 2024


  //>>>>>>>>>>>>>>>>>>>>>>>>>>>>>>>>>>>//
  //               DFMP2               //
  //<<<<<<<<<<<<<<<<<<<<<<<<<<<<<<<<<<<//

   => Loading Basis Set <=

    Name: (AUG-CC-PVTZ AUX)
    Role: RIFIT
    Keyword: DF_BASIS_MP2
    atoms 1                            entry CL         line   742 file /ddmfs1b/softs/psi4conda/share/psi4/basis/aug-cc-pvtz-ri.gbs 
    atoms 2, 5, 8, 11, 14              entry O          line   264 file /ddmfs1b/softs/psi4conda/share/psi4/basis/aug-cc-pvtz-ri.gbs 
    atoms 3-4, 6-7, 9-10, 12-13, 15-16 entry H          line    30 file /ddmfs1b/softs/psi4conda/share/psi4/basis/aug-cc-pvtz-ri.gbs 

	 --------------------------------------------------------
	                          DF-MP2                         
	      2nd-Order Density-Fitted Moller-Plesset Theory     
	              RMP2 Wavefunction,  20 Threads             
	                                                         
	        Rob Parrish, Justin Turney, Andy Simmonett,      
	           Ed Hohenstein, and C. David Sherrill          
	 --------------------------------------------------------

   => Auxiliary Basis Set <=

  Basis Set: (AUG-CC-PVTZ AUX)
    Blend: AUG-CC-PVTZ-RI
    Number of shells: 317
    Number of basis functions: 1137
    Number of Cartesian functions: 1421
    Spherical Harmonics?: true
    Max angular momentum: 4

	 --------------------------------------------------------
	                 NBF =   510, NAUX =  1137
	 --------------------------------------------------------
	   CLASS    FOCC     OCC    AOCC    AVIR     VIR    FVIR
	   PAIRS       0       9       9     501     501       0
	 --------------------------------------------------------

	-----------------------------------------------------------
	 ==================> DF-MP2 Energies <==================== 
	-----------------------------------------------------------
	 Reference Energy          =    -459.5735684748983090 [Eh]
	 Singles Energy            =      -0.0000000000000000 [Eh]
	 Same-Spin Energy          =      -0.0634171748209301 [Eh]
	 Opposite-Spin Energy      =      -0.1832539206571128 [Eh]
	 Correlation Energy        =      -0.2466710954780428 [Eh]
	 Total Energy              =    -459.8202395703763727 [Eh]
	-----------------------------------------------------------
	 ================> DF-SCS-MP2 Energies <================== 
	-----------------------------------------------------------
	 SCS Same-Spin Scale       =       0.3333333333333333 [-]
	 SCS Opposite-Spin Scale   =       1.2000000000000000 [-]
	 SCS Same-Spin Energy      =      -0.0211390582736434 [Eh]
	 SCS Opposite-Spin Energy  =      -0.2199047047885353 [Eh]
	 SCS Correlation Energy    =      -0.2410437630621787 [Eh]
	 SCS Total Energy          =    -459.8146122379604890 [Eh]
	-----------------------------------------------------------


*** tstop() called on ddmfs1 at Mon Jan 22 19:57:58 2024
Module time:
	user time   =      28.19 seconds =       0.47 minutes
	system time =       1.81 seconds =       0.03 minutes
	total time  =          5 seconds =       0.08 minutes
Total time:
	user time   =     119.59 seconds =       1.99 minutes
	system time =       7.55 seconds =       0.13 minutes
	total time  =         11 seconds =       0.18 minutes

    Psi4 stopped on: Monday, 22 January 2024 07:57PM
    Psi4 wall time for execution: 0:00:11.13

*** Psi4 exiting successfully. Buy a developer a beer!
