
    -----------------------------------------------------------------------
          Psi4: An Open-Source Ab Initio Electronic Structure Package
                               Psi4 1.9 release

                         Git: Rev {} zzzzzzz 


    D. G. A. Smith, L. A. Burns, A. C. Simmonett, R. M. Parrish,
    M. C. Schieber, R. Galvelis, P. Kraus, H. Kruse, R. Di Remigio,
    A. Alenaizan, A. M. James, S. Lehtola, J. P. Misiewicz, M. Scheurer,
    R. A. Shaw, J. B. Schriber, Y. Xie, Z. L. Glick, D. A. Sirianni,
    J. S. O'Brien, J. M. Waldrop, A. Kumar, E. G. Hohenstein,
    B. P. Pritchard, B. R. Brooks, H. F. Schaefer III, A. Yu. Sokolov,
    K. Patkowski, A. E. DePrince III, U. Bozkaya, R. A. King,
    F. A. Evangelista, J. M. Turney, T. D. Crawford, C. D. Sherrill,
    J. Chem. Phys. 152(18) 184108 (2020). https://doi.org/10.1063/5.0006002

                            Additional Code Authors
    E. T. Seidl, C. L. Janssen, E. F. Valeev, M. L. Leininger,
    J. F. Gonthier, R. M. Richard, H. R. McAlexander, M. Saitow, X. Wang,
    P. Verma, M. H. Lechner, A. Jiang, S. Behnle, A. G. Heide,
    M. F. Herbst, and D. L. Poole

             Previous Authors, Complete List of Code Contributors,
                       and Citations for Specific Modules
    https://github.com/psi4/psi4/blob/master/codemeta.json
    https://github.com/psi4/psi4/graphs/contributors
    http://psicode.org/psi4manual/master/introduction.html#citing-psifour

    -----------------------------------------------------------------------


    Psi4 started on: Saturday, 06 January 2024 11:46PM

    Process ID: 560926
    Host:       moses-razer
    PSIDATADIR: /home/kchung25/anaconda3/envs/psi4_19/share/psi4
    Memory:     500.0 MiB
    Threads:    6
    
  ==> Input File <==

--------------------------------------------------------------------------
MEMORY 60 GB

molecule dimer {
-1 1
Cl     0.000000     0.000000     0.000000
--
0 1
O      1.771129     2.489187     0.169336
H      1.379107     1.608893     0.191284
H      1.074826     3.009005    -0.305359
O     -0.595761    -2.485321     1.681379
H     -0.839779    -2.280443     2.596276
H     -0.383113    -1.560361     1.328127
O     -3.305344     0.023545    -0.246950
H     -3.552244    -0.023220    -1.134455
H     -2.322919     0.116370    -0.213788

units ang
no_reorient
no_com
symmetry c1
}

set {
basis        aug-cc-pVTZ
scf_type     df
}

energy("mp2", bsse_type="cp")
--------------------------------------------------------------------------

  Memory set to  55.879 GiB by Python driver.

Scratch directory: /scratch/

  //>>>>>>>>>>>>>>>>>>>>>>>>>>>>>>>>>>>>>//
  // ManyBody Setup: N-Body Levels [1, 2]//
  //<<<<<<<<<<<<<<<<<<<<<<<<<<<<<<<<<<<<<//

        Number of 1-body computations:     2
        Number of 2-body computations:     1

    -----------------------------------------------------------------------
          Psi4: An Open-Source Ab Initio Electronic Structure Package
                               Psi4 1.9 release

                         Git: Rev {} zzzzzzz 


    D. G. A. Smith, L. A. Burns, A. C. Simmonett, R. M. Parrish,
    M. C. Schieber, R. Galvelis, P. Kraus, H. Kruse, R. Di Remigio,
    A. Alenaizan, A. M. James, S. Lehtola, J. P. Misiewicz, M. Scheurer,
    R. A. Shaw, J. B. Schriber, Y. Xie, Z. L. Glick, D. A. Sirianni,
    J. S. O'Brien, J. M. Waldrop, A. Kumar, E. G. Hohenstein,
    B. P. Pritchard, B. R. Brooks, H. F. Schaefer III, A. Yu. Sokolov,
    K. Patkowski, A. E. DePrince III, U. Bozkaya, R. A. King,
    F. A. Evangelista, J. M. Turney, T. D. Crawford, C. D. Sherrill,
    J. Chem. Phys. 152(18) 184108 (2020). https://doi.org/10.1063/5.0006002

                            Additional Code Authors
    E. T. Seidl, C. L. Janssen, E. F. Valeev, M. L. Leininger,
    J. F. Gonthier, R. M. Richard, H. R. McAlexander, M. Saitow, X. Wang,
    P. Verma, M. H. Lechner, A. Jiang, S. Behnle, A. G. Heide,
    M. F. Herbst, and D. L. Poole

             Previous Authors, Complete List of Code Contributors,
                       and Citations for Specific Modules
    https://github.com/psi4/psi4/blob/master/codemeta.json
    https://github.com/psi4/psi4/graphs/contributors
    http://psicode.org/psi4manual/master/introduction.html#citing-psifour

    -----------------------------------------------------------------------


    Psi4 started on: Saturday, 06 January 2024 11:46PM

    Process ID: 560926
    Host:       moses-razer
    PSIDATADIR: /home/kchung25/anaconda3/envs/psi4_19/share/psi4
    Memory:     55.9 GiB
    Threads:    6
    
  ==> Input QCSchema <==

--------------------------------------------------------------------------
{'driver': 'energy',
 'extras': {'psiapi': True, 'wfn_qcvars_only': True},
 'id': None,
 'keywords': {'SCF_TYPE': 'DF', 'function_kwargs': {}},
 'model': {'basis': 'aug-cc-pvtz', 'method': 'mp2'},
 'molecule': {'atom_labels': ['', '', '', '', '', '', '', '', '', ''],
              'atomic_numbers': [17, 8, 1, 1, 8, 1, 1, 8, 1, 1],
              'extras': {},
              'fix_com': True,
              'fix_orientation': True,
              'fix_symmetry': 'c1',
              'fragment_charges': [0.0, 0.0],
              'fragment_multiplicities': [1, 1],
              'fragments': [[0], [1, 2, 3, 4, 5, 6, 7, 8, 9]],
              'geometry': [0.0, 0.0, 0.0, 3.346948742855997, 4.703881705049994, 0.3199986631805268, 2.6061345277017693,
                           3.040367135166221, 0.36147437218207523, 2.0311267725213358, 5.686195360133232,
                           -0.5770448799436769, -1.1258251262288812, -4.696576023848975, 3.1773458230961578,
                           -1.5869523159108496, -4.309412714717426, 4.906250586099147, -0.7239786451025249,
                           -2.9486549468455023, 2.509796289825929, -6.246194910425279, 0.044493601623904554,
                           -0.46666786668181065, -6.712768290800816, -0.04387944063313077, -2.1438092516562604,
                           -4.389680721622373, 0.21990742921952747, -0.4040007689093782],
              'mass_numbers': [35, 16, 1, 1, 16, 1, 1, 16, 1, 1],
              'masses': [34.968852682, 15.99491461957, 1.00782503223, 1.00782503223, 15.99491461957, 1.00782503223,
                         1.00782503223, 15.99491461957, 1.00782503223, 1.00782503223],
              'molecular_charge': 0.0,
              'molecular_multiplicity': 1,
              'name': 'dimer',
              'provenance': {'creator': 'QCElemental',
                             'routine': 'qcelemental.molparse.from_string',
                             'version': '0.27.1'},
              'real': [False, True, True, True, True, True, True, True, True, True],
              'schema_name': 'qcschema_molecule',
              'schema_version': 2,
              'symbols': ['Cl', 'O', 'H', 'H', 'O', 'H', 'H', 'O', 'H', 'H'],
              'validated': True},
 'protocols': {'stdout': True},
 'provenance': {'creator': 'QCElemental', 'routine': 'qcelemental.models.results', 'version': '0.27.1'},
 'schema_name': 'qcschema_input',
 'schema_version': 1}
--------------------------------------------------------------------------

Scratch directory: /scratch/
   => Libint2 <=

    Primary   basis highest AM E, G, H:  5, 4, 3
    Auxiliary basis highest AM E, G, H:  6, 5, 4
    Onebody   basis highest AM E, G, H:  6, 5, 4
    Solid Harmonics ordering:            gaussian

*** tstart() called on moses-razer
*** at Sat Jan  6 23:46:26 2024

   => Loading Basis Set <=

    Name: AUG-CC-PVTZ
    Role: ORBITAL
    Keyword: BASIS
    atoms 1              entry CL         line   988 file /home/kchung25/anaconda3/envs/p415env/share/psi4/basis/aug-cc-pvtz.gbs 
    atoms 2, 5, 8        entry O          line   331 file /home/kchung25/anaconda3/envs/p415env/share/psi4/basis/aug-cc-pvtz.gbs 
    atoms 3-4, 6-7, 9-10 entry H          line    40 file /home/kchung25/anaconda3/envs/p415env/share/psi4/basis/aug-cc-pvtz.gbs 


         ---------------------------------------------------------
                                   SCF
               by Justin Turney, Rob Parrish, Andy Simmonett
                          and Daniel G. A. Smith
                              RHF Reference
                        6 Threads,  57220 MiB Core
         ---------------------------------------------------------

  ==> Geometry <==

    Molecular point group: c1
    Full point group: C1

    Geometry (in Bohr), charge = 0, multiplicity = 1:

       Center              X                  Y                   Z               Mass       
    ------------   -----------------  -----------------  -----------------  -----------------
      Gh(CL)          0.000000000000     0.000000000000     0.000000000000    34.968852682000
         O            3.346948742856     4.703881705050     0.319998663181    15.994914619570
         H            2.606134527702     3.040367135166     0.361474372182     1.007825032230
         H            2.031126772521     5.686195360133    -0.577044879944     1.007825032230
         O           -1.125825126229    -4.696576023849     3.177345823096    15.994914619570
         H           -1.586952315911    -4.309412714717     4.906250586099     1.007825032230
         H           -0.723978645103    -2.948654946846     2.509796289826     1.007825032230
         O           -6.246194910425     0.044493601624    -0.466667866682    15.994914619570
         H           -6.712768290801    -0.043879440633    -2.143809251656     1.007825032230
         H           -4.389680721622     0.219907429220    -0.404000768909     1.007825032230

  Running in c1 symmetry.

  Rotational constants: A =      0.09208  B =      0.04592  C =      0.03349 [cm^-1]
  Rotational constants: A =   2760.59226  B =   1376.53945  C =   1004.15156 [MHz]
  Nuclear repulsion =   59.177204341253834

  Charge       = 0
  Multiplicity = 1
  Electrons    = 30
  Nalpha       = 15
  Nbeta        = 15

  ==> Algorithm <==

  SCF Algorithm Type is DF.
  DIIS enabled.
  MOM disabled.
  Fractional occupation disabled.
  Guess Type is SAD.
  Energy threshold   = 1.00e-08
  Density threshold  = 1.00e-08
  Integral threshold = 1.00e-12

  ==> Primary Basis <==

  Basis Set: AUG-CC-PVTZ
    Blend: AUG-CC-PVTZ
    Number of shells: 112
    Number of basis functions: 326
    Number of Cartesian functions: 374
    Spherical Harmonics?: true
    Max angular momentum: 3

   => Loading Basis Set <=

    Name: (AUG-CC-PVTZ AUX)
    Role: JKFIT
    Keyword: DF_BASIS_SCF
    atoms 1              entry CL         line   816 file /home/kchung25/anaconda3/envs/p415env/share/psi4/basis/aug-cc-pvtz-jkfit.gbs 
    atoms 2, 5, 8        entry O          line   286 file /home/kchung25/anaconda3/envs/p415env/share/psi4/basis/aug-cc-pvtz-jkfit.gbs 
    atoms 3-4, 6-7, 9-10 entry H          line    70 file /home/kchung25/anaconda3/envs/p415env/share/psi4/basis/aug-cc-pvtz-jkfit.gbs 

  ==> Integral Setup <==

  DFHelper Memory: AOs need 0.545 GiB; user supplied 41.910 GiB. 
  Using in-core AOs.

  ==> MemDFJK: Density-Fitted J/K Matrices <==

    J tasked:                   Yes
    K tasked:                   Yes
    wK tasked:                   No
    OpenMP threads:               6
    Memory [MiB]:             42915
    Algorithm:                 Core
    Schwarz Cutoff:           1E-12
    Mask sparsity (%):      11.3892
    Fitting Condition:        1E-10

   => Auxiliary Basis Set <=

  Basis Set: (AUG-CC-PVTZ AUX)
    Blend: AUG-CC-PVTZ-JKFIT
    Number of shells: 216
    Number of basis functions: 734
    Number of Cartesian functions: 903
    Spherical Harmonics?: true
    Max angular momentum: 4

  Minimum eigenvalue in the overlap matrix is 2.3351753728E-04.
  Reciprocal condition number of the overlap matrix is 2.5673393930E-05.
    Using symmetric orthogonalization.

  ==> Pre-Iterations <==

  SCF Guess: Superposition of Atomic Densities via on-the-fly atomic UHF (no occupation information).

   -------------------------
    Irrep   Nso     Nmo    
   -------------------------
     A        326     326 
   -------------------------
    Total     326     326
   -------------------------

  ==> Iterations <==

                           Total Energy        Delta E     RMS |[F,P]|

   @DF-RHF iter SAD:  -226.38466044538055   -2.26385e+02   0.00000e+00 
   @DF-RHF iter   1:  -227.91008248035195   -1.52542e+00   2.49305e-03 ADIIS/DIIS
   @DF-RHF iter   2:  -228.06768424508542   -1.57602e-01   1.73676e-03 ADIIS/DIIS
   @DF-RHF iter   3:  -228.16759721247101   -9.99130e-02   1.19873e-04 ADIIS/DIIS
   @DF-RHF iter   4:  -228.16887764268481   -1.28043e-03   3.20854e-05 DIIS
   @DF-RHF iter   5:  -228.16896888637632   -9.12437e-05   1.07864e-05 DIIS
   @DF-RHF iter   6:  -228.16897836153663   -9.47516e-06   4.38013e-06 DIIS
   @DF-RHF iter   7:  -228.16897989101733   -1.52948e-06   8.62555e-07 DIIS
   @DF-RHF iter   8:  -228.16898000789058   -1.16873e-07   1.52762e-07 DIIS
   @DF-RHF iter   9:  -228.16898001081705   -2.92647e-09   5.58844e-08 DIIS
   @DF-RHF iter  10:  -228.16898001098633   -1.69280e-10   1.53894e-08 DIIS
   @DF-RHF iter  11:  -228.16898001100915   -2.28226e-11   4.02232e-09 DIIS
  Energy and wave function converged.


  ==> Post-Iterations <==

    Orbital Energies [Eh]
    ---------------------

    Doubly Occupied:                                                      

       1A    -20.582509     2A    -20.580599     3A    -20.574741  
       4A     -1.363028     5A     -1.356224     6A     -1.345709  
       7A     -0.735282     8A     -0.712516     9A     -0.699527  
      10A     -0.596526    11A     -0.590944    12A     -0.588076  
      13A     -0.519941    14A     -0.519457    15A     -0.514061  

    Virtual:                                                              

      16A      0.011569    17A      0.033661    18A      0.038771  
      19A      0.047110    20A      0.062330    21A      0.076111  
      22A      0.083839    23A      0.099897    24A      0.122017  
      25A      0.125699    26A      0.145515    27A      0.152844  
      28A      0.167063    29A      0.169031    30A      0.171774  
      31A      0.181083    32A      0.191925    33A      0.195342  
      34A      0.208505    35A      0.219698    36A      0.220508  
      37A      0.227606    38A      0.236769    39A      0.244956  
      40A      0.265047    41A      0.272679    42A      0.277954  
      43A      0.289082    44A      0.296045    45A      0.299608  
      46A      0.303396    47A      0.319718    48A      0.323147  
      49A      0.328025    50A      0.347382    51A      0.353267  
      52A      0.372187    53A      0.378484    54A      0.409663  
      55A      0.425436    56A      0.434062    57A      0.448746  
      58A      0.455250    59A      0.481596    60A      0.499081  
      61A      0.511733    62A      0.524505    63A      0.531275  
      64A      0.571297    65A      0.575518    66A      0.599612  
      67A      0.601183    68A      0.629516    69A      0.639686  
      70A      0.662154    71A      0.676545    72A      0.686953  
      73A      0.692933    74A      0.708583    75A      0.713042  
      76A      0.718682    77A      0.728810    78A      0.733066  
      79A      0.744660    80A      0.748016    81A      0.757779  
      82A      0.764690    83A      0.768581    84A      0.785375  
      85A      0.799994    86A      0.849620    87A      0.860989  
      88A      0.879004    89A      0.895984    90A      0.903161  
      91A      0.912140    92A      0.917731    93A      0.922708  
      94A      0.931338    95A      0.936587    96A      0.941028  
      97A      0.945697    98A      0.956212    99A      0.966644  
     100A      0.972183   101A      0.976016   102A      0.986914  
     103A      0.987951   104A      0.990603   105A      1.001459  
     106A      1.013493   107A      1.020295   108A      1.026790  
     109A      1.052906   110A      1.058656   111A      1.073704  
     112A      1.104706   113A      1.139631   114A      1.147772  
     115A      1.162141   116A      1.166805   117A      1.173311  
     118A      1.201422   119A      1.218292   120A      1.230850  
     121A      1.244086   122A      1.261085   123A      1.266124  
     124A      1.290451   125A      1.293949   126A      1.310528  
     127A      1.334217   128A      1.344681   129A      1.385715  
     130A      1.404145   131A      1.418130   132A      1.449301  
     133A      1.484220   134A      1.501682   135A      1.517963  
     136A      1.527326   137A      1.540871   138A      1.546545  
     139A      1.559620   140A      1.571859   141A      1.590590  
     142A      1.604384   143A      1.617151   144A      1.647135  
     145A      1.657606   146A      1.673469   147A      1.696775  
     148A      1.711501   149A      1.729084   150A      1.760753  
     151A      1.786059   152A      1.808796   153A      1.852254  
     154A      1.871679   155A      1.898231   156A      1.912020  
     157A      1.945221   158A      1.986355   159A      1.999633  
     160A      2.006347   161A      2.042555   162A      2.099709  
     163A      2.146958   164A      2.224195   165A      2.277451  
     166A      2.294745   167A      2.295900   168A      2.345742  
     169A      2.378844   170A      2.392401   171A      2.406620  
     172A      2.412051   173A      2.431687   174A      2.442646  
     175A      2.447805   176A      2.451546   177A      2.470661  
     178A      2.474605   179A      2.493548   180A      2.499825  
     181A      2.541445   182A      2.546264   183A      2.563989  
     184A      2.568677   185A      2.581331   186A      2.616616  
     187A      2.672865   188A      2.725824   189A      2.729835  
     190A      2.732976   191A      2.748908   192A      2.765710  
     193A      2.776623   194A      2.797582   195A      2.832873  
     196A      2.850682   197A      2.865772   198A      2.900736  
     199A      2.924833   200A      2.926245   201A      2.966162  
     202A      2.979666   203A      3.013253   204A      3.659083  
     205A      3.696996   206A      3.734343   207A      3.839165  
     208A      3.843829   209A      3.885302   210A      3.959789  
     211A      3.984696   212A      4.023503   213A      4.031415  
     214A      4.052437   215A      4.067491   216A      4.088302  
     217A      4.104716   218A      4.123863   219A      4.146259  
     220A      4.163880   221A      4.174256   222A      4.192505  
     223A      4.200072   224A      4.202399   225A      4.216158  
     226A      4.243674   227A      4.249311   228A      4.278385  
     229A      4.285833   230A      4.309493   231A      4.322745  
     232A      4.348255   233A      4.362541   234A      4.377592  
     235A      4.379910   236A      4.389157   237A      4.399611  
     238A      4.420502   239A      4.439622   240A      4.445757  
     241A      4.458799   242A      4.475601   243A      4.505276  
     244A      4.561996   245A      4.586246   246A      4.621889  
     247A      4.708961   248A      4.735704   249A      4.756698  
     250A      4.775700   251A      4.783302   252A      4.802277  
     253A      4.819412   254A      4.856743   255A      4.952043  
     256A      4.963316   257A      5.025282   258A      5.077359  
     259A      5.104697   260A      5.143295   261A      5.163722  
     262A      5.183477   263A      5.209704   264A      5.242451  
     265A      5.278084   266A      5.297550   267A      5.321950  
     268A      5.352917   269A      5.444916   270A      5.451945  
     271A      5.492921   272A      5.503007   273A      5.549222  
     274A      5.624457   275A      5.709943   276A      5.780285  
     277A      6.181767   278A      6.220332   279A      6.243577  
     280A      6.528767   281A      6.535376   282A      6.562905  
     283A      6.737487   284A      6.746120   285A      6.759554  
     286A      6.885505   287A      6.924644   288A      6.940509  
     289A      7.093246   290A      7.102162   291A      7.133780  
     292A      7.213289   293A      7.255332   294A      7.260290  
     295A      7.268416   296A      7.275856   297A      7.284860  
     298A      7.304532   299A      7.329667   300A      7.372660  
     301A      7.378730   302A      7.386954   303A      7.408357  
     304A      7.432009   305A      7.458079   306A      7.476220  
     307A      7.584269   308A      7.634226   309A      7.732920  
     310A      7.885263   311A      7.919176   312A      7.930706  
     313A      7.950614   314A      7.951673   315A      8.043910  
     316A      8.704884   317A      8.761239   318A      8.823734  
     319A     15.345629   320A     15.547417   321A     16.142830  
     322A     16.717258   323A     27.847334   324A     28.177624  
     325A     28.431388   326A    160.876384  

    Final Occupation by Irrep:
              A 
    DOCC [    15 ]
    NA   [    15 ]
    NB   [    15 ]

  @DF-RHF Final Energy:  -228.16898001100915

   => Energetics <=

    Nuclear Repulsion Energy =             59.1772043412538338
    One-Electron Energy =                -432.1340897133512158
    Two-Electron Energy =                 144.7879053610882067
    Total Energy =                       -228.1689800110091539

Computation Completed


Properties will be evaluated at   0.000000,   0.000000,   0.000000 [a0]

Properties computed using the SCF density matrix


 Multipole Moments:

 ------------------------------------------------------------------------------------
     Multipole            Electronic (a.u.)      Nuclear  (a.u.)        Total (a.u.)
 ------------------------------------------------------------------------------------

 L = 1.  Multiply by 2.5417464519 to convert [e a0] to [Debye]
 Dipole X            :         40.7060848          -40.9766890           -0.2706042
 Dipole Y            :         -1.5642042            2.0589171            0.4947128
 Dipole Z            :        -29.3925099           28.8980793           -0.4944306
 Magnitude           :                                                    0.7499527

 ------------------------------------------------------------------------------------

*** tstop() called on moses-razer at Sat Jan  6 23:46:29 2024
Module time:
	user time   =      14.58 seconds =       0.24 minutes
	system time =       0.59 seconds =       0.01 minutes
	total time  =          3 seconds =       0.05 minutes
Total time:
	user time   =      14.58 seconds =       0.24 minutes
	system time =       0.59 seconds =       0.01 minutes
	total time  =          3 seconds =       0.05 minutes

*** tstart() called on moses-razer
*** at Sat Jan  6 23:46:29 2024


  //>>>>>>>>>>>>>>>>>>>>>>>>>>>>>>>>>>>//
  //               DFMP2               //
  //<<<<<<<<<<<<<<<<<<<<<<<<<<<<<<<<<<<//

   => Loading Basis Set <=

    Name: (AUG-CC-PVTZ AUX)
    Role: RIFIT
    Keyword: DF_BASIS_MP2
    atoms 1              entry CL         line   742 file /home/kchung25/anaconda3/envs/p415env/share/psi4/basis/aug-cc-pvtz-ri.gbs 
    atoms 2, 5, 8        entry O          line   264 file /home/kchung25/anaconda3/envs/p415env/share/psi4/basis/aug-cc-pvtz-ri.gbs 
    atoms 3-4, 6-7, 9-10 entry H          line    30 file /home/kchung25/anaconda3/envs/p415env/share/psi4/basis/aug-cc-pvtz-ri.gbs 

	 --------------------------------------------------------
	                          DF-MP2                         
	      2nd-Order Density-Fitted Moller-Plesset Theory     
	              RMP2 Wavefunction,   6 Threads             
	                                                         
	        Rob Parrish, Justin Turney, Andy Simmonett,      
	           Ed Hohenstein, and C. David Sherrill          
	 --------------------------------------------------------

   => Auxiliary Basis Set <=

  Basis Set: (AUG-CC-PVTZ AUX)
    Blend: AUG-CC-PVTZ-RI
    Number of shells: 205
    Number of basis functions: 741
    Number of Cartesian functions: 929
    Spherical Harmonics?: true
    Max angular momentum: 4

	 --------------------------------------------------------
	                 NBF =   326, NAUX =   741
	 --------------------------------------------------------
	   CLASS    FOCC     OCC    AOCC    AVIR     VIR    FVIR
	   PAIRS       0      15      15     311     311       0
	 --------------------------------------------------------

	-----------------------------------------------------------
	 ==================> DF-MP2 Energies <==================== 
	-----------------------------------------------------------
	 Reference Energy          =    -228.1689800110091539 [Eh]
	 Singles Energy            =      -0.0000000000000000 [Eh]
	 Same-Spin Energy          =      -0.2062720671606987 [Eh]
	 Opposite-Spin Energy      =      -0.6504230899804277 [Eh]
	 Correlation Energy        =      -0.8566951571411265 [Eh]
	 Total Energy              =    -229.0256751681502863 [Eh]
	-----------------------------------------------------------
	 ================> DF-SCS-MP2 Energies <================== 
	-----------------------------------------------------------
	 SCS Same-Spin Scale       =       0.3333333333333333 [-]
	 SCS Opposite-Spin Scale   =       1.2000000000000000 [-]
	 SCS Same-Spin Energy      =      -0.0687573557202329 [Eh]
	 SCS Opposite-Spin Energy  =      -0.7805077079765133 [Eh]
	 SCS Correlation Energy    =      -0.8492650636967461 [Eh]
	 SCS Total Energy          =    -229.0182450747059022 [Eh]
	-----------------------------------------------------------


*** tstop() called on moses-razer at Sat Jan  6 23:46:30 2024
Module time:
	user time   =       5.09 seconds =       0.08 minutes
	system time =       0.32 seconds =       0.01 minutes
	total time  =          1 seconds =       0.02 minutes
Total time:
	user time   =      19.67 seconds =       0.33 minutes
	system time =       0.91 seconds =       0.02 minutes
	total time  =          4 seconds =       0.07 minutes

    Psi4 stopped on: Saturday, 06 January 2024 11:46PM
    Psi4 wall time for execution: 0:00:04.05


    -----------------------------------------------------------------------
          Psi4: An Open-Source Ab Initio Electronic Structure Package
                               Psi4 1.9 release

                         Git: Rev {} zzzzzzz 


    D. G. A. Smith, L. A. Burns, A. C. Simmonett, R. M. Parrish,
    M. C. Schieber, R. Galvelis, P. Kraus, H. Kruse, R. Di Remigio,
    A. Alenaizan, A. M. James, S. Lehtola, J. P. Misiewicz, M. Scheurer,
    R. A. Shaw, J. B. Schriber, Y. Xie, Z. L. Glick, D. A. Sirianni,
    J. S. O'Brien, J. M. Waldrop, A. Kumar, E. G. Hohenstein,
    B. P. Pritchard, B. R. Brooks, H. F. Schaefer III, A. Yu. Sokolov,
    K. Patkowski, A. E. DePrince III, U. Bozkaya, R. A. King,
    F. A. Evangelista, J. M. Turney, T. D. Crawford, C. D. Sherrill,
    J. Chem. Phys. 152(18) 184108 (2020). https://doi.org/10.1063/5.0006002

                            Additional Code Authors
    E. T. Seidl, C. L. Janssen, E. F. Valeev, M. L. Leininger,
    J. F. Gonthier, R. M. Richard, H. R. McAlexander, M. Saitow, X. Wang,
    P. Verma, M. H. Lechner, A. Jiang, S. Behnle, A. G. Heide,
    M. F. Herbst, and D. L. Poole

             Previous Authors, Complete List of Code Contributors,
                       and Citations for Specific Modules
    https://github.com/psi4/psi4/blob/master/codemeta.json
    https://github.com/psi4/psi4/graphs/contributors
    http://psicode.org/psi4manual/master/introduction.html#citing-psifour

    -----------------------------------------------------------------------


    Psi4 started on: Saturday, 06 January 2024 11:46PM

    Process ID: 560926
    Host:       moses-razer
    PSIDATADIR: /home/kchung25/anaconda3/envs/psi4_19/share/psi4
    Memory:     55.9 GiB
    Threads:    6
    
  ==> Input QCSchema <==

--------------------------------------------------------------------------
{'driver': 'energy',
 'extras': {'psiapi': True, 'wfn_qcvars_only': True},
 'id': None,
 'keywords': {'SCF_TYPE': 'DF', 'function_kwargs': {}},
 'model': {'basis': 'aug-cc-pvtz', 'method': 'mp2'},
 'molecule': {'atom_labels': ['', '', '', '', '', '', '', '', '', ''],
              'atomic_numbers': [17, 8, 1, 1, 8, 1, 1, 8, 1, 1],
              'extras': {},
              'fix_com': True,
              'fix_orientation': True,
              'fix_symmetry': 'c1',
              'fragment_charges': [-1.0, 0.0],
              'fragment_multiplicities': [1, 1],
              'fragments': [[0], [1, 2, 3, 4, 5, 6, 7, 8, 9]],
              'geometry': [0.0, 0.0, 0.0, 3.346948742855997, 4.703881705049994, 0.3199986631805268, 2.6061345277017693,
                           3.040367135166221, 0.36147437218207523, 2.0311267725213358, 5.686195360133232,
                           -0.5770448799436769, -1.1258251262288812, -4.696576023848975, 3.1773458230961578,
                           -1.5869523159108496, -4.309412714717426, 4.906250586099147, -0.7239786451025249,
                           -2.9486549468455023, 2.509796289825929, -6.246194910425279, 0.044493601623904554,
                           -0.46666786668181065, -6.712768290800816, -0.04387944063313077, -2.1438092516562604,
                           -4.389680721622373, 0.21990742921952747, -0.4040007689093782],
              'mass_numbers': [35, 16, 1, 1, 16, 1, 1, 16, 1, 1],
              'masses': [34.968852682, 15.99491461957, 1.00782503223, 1.00782503223, 15.99491461957, 1.00782503223,
                         1.00782503223, 15.99491461957, 1.00782503223, 1.00782503223],
              'molecular_charge': -1.0,
              'molecular_multiplicity': 1,
              'name': 'dimer',
              'provenance': {'creator': 'QCElemental',
                             'routine': 'qcelemental.molparse.from_string',
                             'version': '0.27.1'},
              'real': [True, False, False, False, False, False, False, False, False, False],
              'schema_name': 'qcschema_molecule',
              'schema_version': 2,
              'symbols': ['Cl', 'O', 'H', 'H', 'O', 'H', 'H', 'O', 'H', 'H'],
              'validated': True},
 'protocols': {'stdout': True},
 'provenance': {'creator': 'QCElemental', 'routine': 'qcelemental.models.results', 'version': '0.27.1'},
 'schema_name': 'qcschema_input',
 'schema_version': 1}
--------------------------------------------------------------------------

Scratch directory: /scratch/
   => Libint2 <=

    Primary   basis highest AM E, G, H:  5, 4, 3
    Auxiliary basis highest AM E, G, H:  6, 5, 4
    Onebody   basis highest AM E, G, H:  6, 5, 4
    Solid Harmonics ordering:            gaussian

*** tstart() called on moses-razer
*** at Sat Jan  6 23:46:30 2024

   => Loading Basis Set <=

    Name: AUG-CC-PVTZ
    Role: ORBITAL
    Keyword: BASIS
    atoms 1              entry CL         line   988 file /home/kchung25/anaconda3/envs/p415env/share/psi4/basis/aug-cc-pvtz.gbs 
    atoms 2, 5, 8        entry O          line   331 file /home/kchung25/anaconda3/envs/p415env/share/psi4/basis/aug-cc-pvtz.gbs 
    atoms 3-4, 6-7, 9-10 entry H          line    40 file /home/kchung25/anaconda3/envs/p415env/share/psi4/basis/aug-cc-pvtz.gbs 


         ---------------------------------------------------------
                                   SCF
               by Justin Turney, Rob Parrish, Andy Simmonett
                          and Daniel G. A. Smith
                              RHF Reference
                        6 Threads,  57220 MiB Core
         ---------------------------------------------------------

  ==> Geometry <==

    Molecular point group: c1
    Full point group: C1

    Geometry (in Bohr), charge = -1, multiplicity = 1:

       Center              X                  Y                   Z               Mass       
    ------------   -----------------  -----------------  -----------------  -----------------
         CL           0.000000000000     0.000000000000     0.000000000000    34.968852682000
      Gh(O)           3.346948742856     4.703881705050     0.319998663181    15.994914619570
      Gh(H)           2.606134527702     3.040367135166     0.361474372182     1.007825032230
      Gh(H)           2.031126772521     5.686195360133    -0.577044879944     1.007825032230
      Gh(O)          -1.125825126229    -4.696576023849     3.177345823096    15.994914619570
      Gh(H)          -1.586952315911    -4.309412714717     4.906250586099     1.007825032230
      Gh(H)          -0.723978645103    -2.948654946846     2.509796289826     1.007825032230
      Gh(O)          -6.246194910425     0.044493601624    -0.466667866682    15.994914619570
      Gh(H)          -6.712768290801    -0.043879440633    -2.143809251656     1.007825032230
      Gh(H)          -4.389680721622     0.219907429220    -0.404000768909     1.007825032230

  Running in c1 symmetry.

  Rotational constants: A =      0.09208  B =      0.04592  C =      0.03349 [cm^-1]
  Rotational constants: A =   2760.59226  B =   1376.53945  C =   1004.15156 [MHz]
  Nuclear repulsion =    0.000000000000000

  Charge       = -1
  Multiplicity = 1
  Electrons    = 18
  Nalpha       = 9
  Nbeta        = 9

  ==> Algorithm <==

  SCF Algorithm Type is DF.
  DIIS enabled.
  MOM disabled.
  Fractional occupation disabled.
  Guess Type is SAD.
  Energy threshold   = 1.00e-08
  Density threshold  = 1.00e-08
  Integral threshold = 1.00e-12

  ==> Primary Basis <==

  Basis Set: AUG-CC-PVTZ
    Blend: AUG-CC-PVTZ
    Number of shells: 112
    Number of basis functions: 326
    Number of Cartesian functions: 374
    Spherical Harmonics?: true
    Max angular momentum: 3

   => Loading Basis Set <=

    Name: (AUG-CC-PVTZ AUX)
    Role: JKFIT
    Keyword: DF_BASIS_SCF
    atoms 1              entry CL         line   816 file /home/kchung25/anaconda3/envs/p415env/share/psi4/basis/aug-cc-pvtz-jkfit.gbs 
    atoms 2, 5, 8        entry O          line   286 file /home/kchung25/anaconda3/envs/p415env/share/psi4/basis/aug-cc-pvtz-jkfit.gbs 
    atoms 3-4, 6-7, 9-10 entry H          line    70 file /home/kchung25/anaconda3/envs/p415env/share/psi4/basis/aug-cc-pvtz-jkfit.gbs 

  ==> Integral Setup <==

  DFHelper Memory: AOs need 0.545 GiB; user supplied 41.910 GiB. 
  Using in-core AOs.

  ==> MemDFJK: Density-Fitted J/K Matrices <==

    J tasked:                   Yes
    K tasked:                   Yes
    wK tasked:                   No
    OpenMP threads:               6
    Memory [MiB]:             42915
    Algorithm:                 Core
    Schwarz Cutoff:           1E-12
    Mask sparsity (%):      11.3892
    Fitting Condition:        1E-10

   => Auxiliary Basis Set <=

  Basis Set: (AUG-CC-PVTZ AUX)
    Blend: AUG-CC-PVTZ-JKFIT
    Number of shells: 216
    Number of basis functions: 734
    Number of Cartesian functions: 903
    Spherical Harmonics?: true
    Max angular momentum: 4

  Minimum eigenvalue in the overlap matrix is 2.3351753728E-04.
  Reciprocal condition number of the overlap matrix is 2.5673393930E-05.
    Using symmetric orthogonalization.

  ==> Pre-Iterations <==

  SCF Guess: Superposition of Atomic Densities via on-the-fly atomic UHF (no occupation information).

   -------------------------
    Irrep   Nso     Nmo    
   -------------------------
     A        326     326 
   -------------------------
    Total     326     326
   -------------------------

  ==> Iterations <==

                           Total Energy        Delta E     RMS |[F,P]|

   @DF-RHF iter SAD:  -459.11248997974059   -4.59112e+02   0.00000e+00 
   @DF-RHF iter   1:  -459.51388337486623   -4.01393e-01   9.16169e-04 ADIIS/DIIS
   @DF-RHF iter   2:  -459.56479176218369   -5.09084e-02   4.69391e-04 ADIIS/DIIS
   @DF-RHF iter   3:  -459.57349191780776   -8.70016e-03   3.24050e-05 DIIS
   @DF-RHF iter   4:  -459.57354890914269   -5.69913e-05   6.40908e-06 DIIS
   @DF-RHF iter   5:  -459.57355254243078   -3.63329e-06   6.60482e-07 DIIS
   @DF-RHF iter   6:  -459.57355262400444   -8.15737e-08   5.58220e-08 DIIS
   @DF-RHF iter   7:  -459.57355262484157   -8.37133e-10   6.50872e-09 DIIS
  Energy and wave function converged.


  ==> Post-Iterations <==

    Orbital Energies [Eh]
    ---------------------

    Doubly Occupied:                                                      

       1A   -104.506978     2A    -10.229992     3A     -7.696081  
       4A     -7.696042     5A     -7.696010     6A     -0.733482  
       7A     -0.150321     8A     -0.150318     9A     -0.150311  

    Virtual:                                                              

      10A      0.125320    11A      0.132210    12A      0.139125  
      13A      0.164853    14A      0.175659    15A      0.185895  
      16A      0.237033    17A      0.243445    18A      0.254372  
      19A      0.259882    20A      0.262148    21A      0.264490  
      22A      0.270925    23A      0.288327    24A      0.306370  
      25A      0.312012    26A      0.321133    27A      0.326360  
      28A      0.336806    29A      0.339247    30A      0.352361  
      31A      0.393094    32A      0.404524    33A      0.412712  
      34A      0.420010    35A      0.436813    36A      0.438080  
      37A      0.442302    38A      0.456230    39A      0.466591  
      40A      0.486774    41A      0.497138    42A      0.499059  
      43A      0.503825    44A      0.515295    45A      0.525979  
      46A      0.544825    47A      0.547297    48A      0.568471  
      49A      0.583595    50A      0.591198    51A      0.625916  
      52A      0.631777    53A      0.642338    54A      0.663803  
      55A      0.696890    56A      0.721307    57A      0.742744  
      58A      0.759758    59A      0.772494    60A      0.779893  
      61A      0.810808    62A      0.826757    63A      0.848275  
      64A      0.858097    65A      0.867929    66A      0.890940  
      67A      0.912636    68A      0.926870    69A      0.929191  
      70A      0.944753    71A      0.953551    72A      0.961210  
      73A      0.963113    74A      0.967970    75A      0.974774  
      76A      0.978987    77A      0.989257    78A      0.998108  
      79A      1.003367    80A      1.019977    81A      1.022864  
      82A      1.026655    83A      1.040714    84A      1.050234  
      85A      1.060896    86A      1.081041    87A      1.082693  
      88A      1.089016    89A      1.108283    90A      1.110445  
      91A      1.124751    92A      1.129689    93A      1.142925  
      94A      1.148280    95A      1.156486    96A      1.163081  
      97A      1.165969    98A      1.177946    99A      1.182821  
     100A      1.204529   101A      1.215645   102A      1.221979  
     103A      1.242483   104A      1.252603   105A      1.280504  
     106A      1.305094   107A      1.311012   108A      1.330351  
     109A      1.335162   110A      1.357951   111A      1.368517  
     112A      1.381093   113A      1.397519   114A      1.418876  
     115A      1.434239   116A      1.444280   117A      1.448579  
     118A      1.468521   119A      1.491204   120A      1.529479  
     121A      1.551919   122A      1.556080   123A      1.579398  
     124A      1.613801   125A      1.630388   126A      1.641304  
     127A      1.657973   128A      1.687047   129A      1.727629  
     130A      1.789292   131A      1.805002   132A      1.813628  
     133A      1.850190   134A      1.855965   135A      1.868790  
     136A      1.878812   137A      1.889149   138A      1.901314  
     139A      1.910769   140A      1.948029   141A      1.961683  
     142A      1.967970   143A      1.972328   144A      1.998656  
     145A      2.008487   146A      2.017301   147A      2.034999  
     148A      2.051431   149A      2.077460   150A      2.107635  
     151A      2.139536   152A      2.158672   153A      2.199203  
     154A      2.299100   155A      2.340609   156A      2.348017  
     157A      2.409829   158A      2.597435   159A      2.612739  
     160A      2.622288   161A      2.624936   162A      2.631443  
     163A      2.643161   164A      2.688696   165A      2.691326  
     166A      2.703328   167A      2.727269   168A      2.731907  
     169A      2.746520   170A      2.765564   171A      2.770549  
     172A      2.789323   173A      2.798623   174A      2.803911  
     175A      2.819312   176A      2.843996   177A      2.849816  
     178A      2.884113   179A      2.898475   180A      2.914108  
     181A      2.946283   182A      2.993117   183A      3.003206  
     184A      3.048298   185A      3.066848   186A      3.111952  
     187A      3.122261   188A      3.170605   189A      3.195076  
     190A      3.282696   191A      3.313242   192A      3.323866  
     193A      3.345441   194A      3.357729   195A      3.367879  
     196A      3.378220   197A      3.413875   198A      3.457522  
     199A      3.471943   200A      3.522930   201A      3.532945  
     202A      3.543185   203A      3.563208   204A      3.571613  
     205A      3.601663   206A      3.616557   207A      3.638087  
     208A      3.647745   209A      3.665549   210A      3.711453  
     211A      3.729219   212A      3.749401   213A      3.779010  
     214A      3.799510   215A      3.822886   216A      3.887905  
     217A      3.899287   218A      4.008285   219A      4.016312  
     220A      4.043644   221A      4.559911   222A      4.572938  
     223A      4.586766   224A      4.608120   225A      4.610290  
     226A      4.649902   227A      4.699637   228A      4.714107  
     229A      4.739616   230A      4.745401   231A      4.770003  
     232A      4.822648   233A      4.842130   234A      4.846463  
     235A      4.854740   236A      4.984634   237A      5.011878  
     238A      5.021338   239A      5.044176   240A      5.074681  
     241A      5.074776   242A      5.133924   243A      5.142965  
     244A      5.161431   245A      5.169340   246A      5.193137  
     247A      5.204873   248A      5.412273   249A      5.445587  
     250A      5.498416   251A      5.685956   252A      5.700777  
     253A      5.704330   254A      5.723462   255A      5.744596  
     256A      5.757187   257A      5.772234   258A      5.853644  
     259A      5.920030   260A      6.026053   261A      6.033002  
     262A      6.048279   263A      6.314061   264A      6.327724  
     265A      6.338846   266A      6.517644   267A      6.566128  
     268A      6.632234   269A      6.677068   270A      6.731648  
     271A      6.900499   272A      7.135075   273A      7.189149  
     274A      7.318569   275A      7.414802   276A      7.849013  
     277A      7.870312   278A      7.878901   279A      7.961689  
     280A      8.007777   281A      8.039056   282A      8.169666  
     283A      8.182164   284A      8.235120   285A      8.253028  
     286A      8.323731   287A      8.411207   288A      8.431032  
     289A      8.438599   290A      8.470843   291A      8.858077  
     292A      8.887018   293A      8.970094   294A      9.028931  
     295A      9.082308   296A      9.184565   297A      9.791567  
     298A      9.834829   299A      9.870741   300A     10.006547  
     301A     10.022609   302A     10.037471   303A     10.210944  
     304A     10.230066   305A     10.247795   306A     10.426242  
     307A     10.484245   308A     10.502390   309A     11.242221  
     310A     11.312652   311A     11.346200   312A     11.834872  
     313A     11.865952   314A     11.880981   315A     12.052432  
     316A     12.224253   317A     12.479207   318A     13.637183  
     319A     13.685694   320A     13.821109   321A     14.097475  
     322A     14.106605   323A     14.119698   324A     64.442417  
     325A     65.662377   326A     66.580889  

    Final Occupation by Irrep:
              A 
    DOCC [     9 ]
    NA   [     9 ]
    NB   [     9 ]

  @DF-RHF Final Energy:  -459.57355262484157

   => Energetics <=

    Nuclear Repulsion Energy =              0.0000000000000000
    One-Electron Energy =                -641.1280485918960039
    Two-Electron Energy =                 181.5544959670544074
    Total Energy =                       -459.5735526248415681

Computation Completed


Properties will be evaluated at   0.000000,   0.000000,   0.000000 [a0]

Properties computed using the SCF density matrix


 Multipole Moments:

 ------------------------------------------------------------------------------------
     Multipole            Electronic (a.u.)      Nuclear  (a.u.)        Total (a.u.)
 ------------------------------------------------------------------------------------

 L = 1.  Multiply by 2.5417464519 to convert [e a0] to [Debye]
 Dipole X            :         -0.0001243            0.0000000           -0.0001243
 Dipole Y            :          0.0000353            0.0000000            0.0000353
 Dipole Z            :          0.0005464            0.0000000            0.0005464
 Magnitude           :                                                    0.0005615

 ------------------------------------------------------------------------------------

*** tstop() called on moses-razer at Sat Jan  6 23:46:33 2024
Module time:
	user time   =      12.59 seconds =       0.21 minutes
	system time =       0.59 seconds =       0.01 minutes
	total time  =          3 seconds =       0.05 minutes
Total time:
	user time   =      32.60 seconds =       0.54 minutes
	system time =       1.50 seconds =       0.03 minutes
	total time  =          7 seconds =       0.12 minutes

*** tstart() called on moses-razer
*** at Sat Jan  6 23:46:33 2024


  //>>>>>>>>>>>>>>>>>>>>>>>>>>>>>>>>>>>//
  //               DFMP2               //
  //<<<<<<<<<<<<<<<<<<<<<<<<<<<<<<<<<<<//

   => Loading Basis Set <=

    Name: (AUG-CC-PVTZ AUX)
    Role: RIFIT
    Keyword: DF_BASIS_MP2
    atoms 1              entry CL         line   742 file /home/kchung25/anaconda3/envs/p415env/share/psi4/basis/aug-cc-pvtz-ri.gbs 
    atoms 2, 5, 8        entry O          line   264 file /home/kchung25/anaconda3/envs/p415env/share/psi4/basis/aug-cc-pvtz-ri.gbs 
    atoms 3-4, 6-7, 9-10 entry H          line    30 file /home/kchung25/anaconda3/envs/p415env/share/psi4/basis/aug-cc-pvtz-ri.gbs 

	 --------------------------------------------------------
	                          DF-MP2                         
	      2nd-Order Density-Fitted Moller-Plesset Theory     
	              RMP2 Wavefunction,   6 Threads             
	                                                         
	        Rob Parrish, Justin Turney, Andy Simmonett,      
	           Ed Hohenstein, and C. David Sherrill          
	 --------------------------------------------------------

   => Auxiliary Basis Set <=

  Basis Set: (AUG-CC-PVTZ AUX)
    Blend: AUG-CC-PVTZ-RI
    Number of shells: 205
    Number of basis functions: 741
    Number of Cartesian functions: 929
    Spherical Harmonics?: true
    Max angular momentum: 4

	 --------------------------------------------------------
	                 NBF =   326, NAUX =   741
	 --------------------------------------------------------
	   CLASS    FOCC     OCC    AOCC    AVIR     VIR    FVIR
	   PAIRS       0       9       9     317     317       0
	 --------------------------------------------------------

	-----------------------------------------------------------
	 ==================> DF-MP2 Energies <==================== 
	-----------------------------------------------------------
	 Reference Energy          =    -459.5735526248415681 [Eh]
	 Singles Energy            =      -0.0000000000000000 [Eh]
	 Same-Spin Energy          =      -0.0632890456846061 [Eh]
	 Opposite-Spin Energy      =      -0.1829283846074338 [Eh]
	 Correlation Energy        =      -0.2462174302920399 [Eh]
	 Total Energy              =    -459.8197700551336311 [Eh]
	-----------------------------------------------------------
	 ================> DF-SCS-MP2 Energies <================== 
	-----------------------------------------------------------
	 SCS Same-Spin Scale       =       0.3333333333333333 [-]
	 SCS Opposite-Spin Scale   =       1.2000000000000000 [-]
	 SCS Same-Spin Energy      =      -0.0210963485615354 [Eh]
	 SCS Opposite-Spin Energy  =      -0.2195140615289206 [Eh]
	 SCS Correlation Energy    =      -0.2406104100904559 [Eh]
	 SCS Total Energy          =    -459.8141630349320508 [Eh]
	-----------------------------------------------------------


*** tstop() called on moses-razer at Sat Jan  6 23:46:34 2024
Module time:
	user time   =       4.59 seconds =       0.08 minutes
	system time =       0.29 seconds =       0.00 minutes
	total time  =          1 seconds =       0.02 minutes
Total time:
	user time   =      37.19 seconds =       0.62 minutes
	system time =       1.79 seconds =       0.03 minutes
	total time  =          8 seconds =       0.13 minutes

    Psi4 stopped on: Saturday, 06 January 2024 11:46PM
    Psi4 wall time for execution: 0:00:03.62


    -----------------------------------------------------------------------
          Psi4: An Open-Source Ab Initio Electronic Structure Package
                               Psi4 1.9 release

                         Git: Rev {} zzzzzzz 


    D. G. A. Smith, L. A. Burns, A. C. Simmonett, R. M. Parrish,
    M. C. Schieber, R. Galvelis, P. Kraus, H. Kruse, R. Di Remigio,
    A. Alenaizan, A. M. James, S. Lehtola, J. P. Misiewicz, M. Scheurer,
    R. A. Shaw, J. B. Schriber, Y. Xie, Z. L. Glick, D. A. Sirianni,
    J. S. O'Brien, J. M. Waldrop, A. Kumar, E. G. Hohenstein,
    B. P. Pritchard, B. R. Brooks, H. F. Schaefer III, A. Yu. Sokolov,
    K. Patkowski, A. E. DePrince III, U. Bozkaya, R. A. King,
    F. A. Evangelista, J. M. Turney, T. D. Crawford, C. D. Sherrill,
    J. Chem. Phys. 152(18) 184108 (2020). https://doi.org/10.1063/5.0006002

                            Additional Code Authors
    E. T. Seidl, C. L. Janssen, E. F. Valeev, M. L. Leininger,
    J. F. Gonthier, R. M. Richard, H. R. McAlexander, M. Saitow, X. Wang,
    P. Verma, M. H. Lechner, A. Jiang, S. Behnle, A. G. Heide,
    M. F. Herbst, and D. L. Poole

             Previous Authors, Complete List of Code Contributors,
                       and Citations for Specific Modules
    https://github.com/psi4/psi4/blob/master/codemeta.json
    https://github.com/psi4/psi4/graphs/contributors
    http://psicode.org/psi4manual/master/introduction.html#citing-psifour

    -----------------------------------------------------------------------


    Psi4 started on: Saturday, 06 January 2024 11:46PM

    Process ID: 560926
    Host:       moses-razer
    PSIDATADIR: /home/kchung25/anaconda3/envs/psi4_19/share/psi4
    Memory:     55.9 GiB
    Threads:    6
    
  ==> Input QCSchema <==

--------------------------------------------------------------------------
{'driver': 'energy',
 'extras': {'psiapi': True, 'wfn_qcvars_only': True},
 'id': None,
 'keywords': {'SCF_TYPE': 'DF', 'function_kwargs': {}},
 'model': {'basis': 'aug-cc-pvtz', 'method': 'mp2'},
 'molecule': {'atom_labels': ['', '', '', '', '', '', '', '', '', ''],
              'atomic_numbers': [17, 8, 1, 1, 8, 1, 1, 8, 1, 1],
              'extras': {},
              'fix_com': True,
              'fix_orientation': True,
              'fix_symmetry': 'c1',
              'fragment_charges': [-1.0, 0.0],
              'fragment_multiplicities': [1, 1],
              'fragments': [[0], [1, 2, 3, 4, 5, 6, 7, 8, 9]],
              'geometry': [0.0, 0.0, 0.0, 3.346948742855997, 4.703881705049994, 0.3199986631805268, 2.6061345277017693,
                           3.040367135166221, 0.36147437218207523, 2.0311267725213358, 5.686195360133232,
                           -0.5770448799436769, -1.1258251262288812, -4.696576023848975, 3.1773458230961578,
                           -1.5869523159108496, -4.309412714717426, 4.906250586099147, -0.7239786451025249,
                           -2.9486549468455023, 2.509796289825929, -6.246194910425279, 0.044493601623904554,
                           -0.46666786668181065, -6.712768290800816, -0.04387944063313077, -2.1438092516562604,
                           -4.389680721622373, 0.21990742921952747, -0.4040007689093782],
              'mass_numbers': [35, 16, 1, 1, 16, 1, 1, 16, 1, 1],
              'masses': [34.968852682, 15.99491461957, 1.00782503223, 1.00782503223, 15.99491461957, 1.00782503223,
                         1.00782503223, 15.99491461957, 1.00782503223, 1.00782503223],
              'molecular_charge': -1.0,
              'molecular_multiplicity': 1,
              'name': 'dimer',
              'provenance': {'creator': 'QCElemental',
                             'routine': 'qcelemental.molparse.from_string',
                             'version': '0.27.1'},
              'real': [True, True, True, True, True, True, True, True, True, True],
              'schema_name': 'qcschema_molecule',
              'schema_version': 2,
              'symbols': ['Cl', 'O', 'H', 'H', 'O', 'H', 'H', 'O', 'H', 'H'],
              'validated': True},
 'protocols': {'stdout': True},
 'provenance': {'creator': 'QCElemental', 'routine': 'qcelemental.models.results', 'version': '0.27.1'},
 'schema_name': 'qcschema_input',
 'schema_version': 1}
--------------------------------------------------------------------------

Scratch directory: /scratch/
   => Libint2 <=

    Primary   basis highest AM E, G, H:  5, 4, 3
    Auxiliary basis highest AM E, G, H:  6, 5, 4
    Onebody   basis highest AM E, G, H:  6, 5, 4
    Solid Harmonics ordering:            gaussian

*** tstart() called on moses-razer
*** at Sat Jan  6 23:46:34 2024

   => Loading Basis Set <=

    Name: AUG-CC-PVTZ
    Role: ORBITAL
    Keyword: BASIS
    atoms 1              entry CL         line   988 file /home/kchung25/anaconda3/envs/p415env/share/psi4/basis/aug-cc-pvtz.gbs 
    atoms 2, 5, 8        entry O          line   331 file /home/kchung25/anaconda3/envs/p415env/share/psi4/basis/aug-cc-pvtz.gbs 
    atoms 3-4, 6-7, 9-10 entry H          line    40 file /home/kchung25/anaconda3/envs/p415env/share/psi4/basis/aug-cc-pvtz.gbs 


         ---------------------------------------------------------
                                   SCF
               by Justin Turney, Rob Parrish, Andy Simmonett
                          and Daniel G. A. Smith
                              RHF Reference
                        6 Threads,  57220 MiB Core
         ---------------------------------------------------------

  ==> Geometry <==

    Molecular point group: c1
    Full point group: C1

    Geometry (in Bohr), charge = -1, multiplicity = 1:

       Center              X                  Y                   Z               Mass       
    ------------   -----------------  -----------------  -----------------  -----------------
         CL           0.000000000000     0.000000000000     0.000000000000    34.968852682000
         O            3.346948742856     4.703881705050     0.319998663181    15.994914619570
         H            2.606134527702     3.040367135166     0.361474372182     1.007825032230
         H            2.031126772521     5.686195360133    -0.577044879944     1.007825032230
         O           -1.125825126229    -4.696576023849     3.177345823096    15.994914619570
         H           -1.586952315911    -4.309412714717     4.906250586099     1.007825032230
         H           -0.723978645103    -2.948654946846     2.509796289826     1.007825032230
         O           -6.246194910425     0.044493601624    -0.466667866682    15.994914619570
         H           -6.712768290801    -0.043879440633    -2.143809251656     1.007825032230
         H           -4.389680721622     0.219907429220    -0.404000768909     1.007825032230

  Running in c1 symmetry.

  Rotational constants: A =      0.09208  B =      0.04592  C =      0.03349 [cm^-1]
  Rotational constants: A =   2760.59226  B =   1376.53945  C =   1004.15156 [MHz]
  Nuclear repulsion =  148.075922632004591

  Charge       = -1
  Multiplicity = 1
  Electrons    = 48
  Nalpha       = 24
  Nbeta        = 24

  ==> Algorithm <==

  SCF Algorithm Type is DF.
  DIIS enabled.
  MOM disabled.
  Fractional occupation disabled.
  Guess Type is SAD.
  Energy threshold   = 1.00e-08
  Density threshold  = 1.00e-08
  Integral threshold = 1.00e-12

  ==> Primary Basis <==

  Basis Set: AUG-CC-PVTZ
    Blend: AUG-CC-PVTZ
    Number of shells: 112
    Number of basis functions: 326
    Number of Cartesian functions: 374
    Spherical Harmonics?: true
    Max angular momentum: 3

   => Loading Basis Set <=

    Name: (AUG-CC-PVTZ AUX)
    Role: JKFIT
    Keyword: DF_BASIS_SCF
    atoms 1              entry CL         line   816 file /home/kchung25/anaconda3/envs/p415env/share/psi4/basis/aug-cc-pvtz-jkfit.gbs 
    atoms 2, 5, 8        entry O          line   286 file /home/kchung25/anaconda3/envs/p415env/share/psi4/basis/aug-cc-pvtz-jkfit.gbs 
    atoms 3-4, 6-7, 9-10 entry H          line    70 file /home/kchung25/anaconda3/envs/p415env/share/psi4/basis/aug-cc-pvtz-jkfit.gbs 

  ==> Integral Setup <==

  DFHelper Memory: AOs need 0.545 GiB; user supplied 41.910 GiB. 
  Using in-core AOs.

  ==> MemDFJK: Density-Fitted J/K Matrices <==

    J tasked:                   Yes
    K tasked:                   Yes
    wK tasked:                   No
    OpenMP threads:               6
    Memory [MiB]:             42915
    Algorithm:                 Core
    Schwarz Cutoff:           1E-12
    Mask sparsity (%):      11.3892
    Fitting Condition:        1E-10

   => Auxiliary Basis Set <=

  Basis Set: (AUG-CC-PVTZ AUX)
    Blend: AUG-CC-PVTZ-JKFIT
    Number of shells: 216
    Number of basis functions: 734
    Number of Cartesian functions: 903
    Spherical Harmonics?: true
    Max angular momentum: 4

  Minimum eigenvalue in the overlap matrix is 2.3351753728E-04.
  Reciprocal condition number of the overlap matrix is 2.5673393930E-05.
    Using symmetric orthogonalization.

  ==> Pre-Iterations <==

  SCF Guess: Superposition of Atomic Densities via on-the-fly atomic UHF (no occupation information).

   -------------------------
    Irrep   Nso     Nmo    
   -------------------------
     A        326     326 
   -------------------------
    Total     326     326
   -------------------------

  ==> Iterations <==

                           Total Energy        Delta E     RMS |[F,P]|

   @DF-RHF iter SAD:  -685.75746776332335   -6.85757e+02   0.00000e+00 
   @DF-RHF iter   1:  -687.51166046529852   -1.75419e+00   2.59810e-03 ADIIS/DIIS
   @DF-RHF iter   2:  -687.68735247894210   -1.75692e-01   1.76777e-03 ADIIS/DIIS
   @DF-RHF iter   3:  -687.78974382590809   -1.02391e-01   1.32287e-04 ADIIS/DIIS
   @DF-RHF iter   4:  -687.79110277723839   -1.35895e-03   5.04494e-05 DIIS
   @DF-RHF iter   5:  -687.79127377842030   -1.71001e-04   1.11631e-05 DIIS
   @DF-RHF iter   6:  -687.79128795926567   -1.41808e-05   4.19084e-06 DIIS
   @DF-RHF iter   7:  -687.79128946546541   -1.50620e-06   1.50591e-06 DIIS
   @DF-RHF iter   8:  -687.79128969876456   -2.33299e-07   3.33983e-07 DIIS
   @DF-RHF iter   9:  -687.79128971460148   -1.58369e-08   6.53220e-08 DIIS
   @DF-RHF iter  10:  -687.79128971514228   -5.40808e-10   2.32968e-08 DIIS
   @DF-RHF iter  11:  -687.79128971517582   -3.35376e-11   7.23890e-09 DIIS
  Energy and wave function converged.


  ==> Post-Iterations <==

    Orbital Energies [Eh]
    ---------------------

    Doubly Occupied:                                                      

       1A   -104.571311     2A    -20.407150     3A    -20.399073  
       4A    -20.395644     5A    -10.296871     6A     -7.762986  
       7A     -7.762921     8A     -7.762865     9A     -1.199304  
      10A     -1.178114    11A     -1.167511    12A     -0.816680  
      13A     -0.571463    14A     -0.537805    15A     -0.523176  
      16A     -0.429378    17A     -0.426669    18A     -0.418051  
      19A     -0.356046    20A     -0.343433    21A     -0.336368  
      22A     -0.228183    23A     -0.226003    24A     -0.222573  

    Virtual:                                                              

      25A      0.123569    26A      0.132068    27A      0.136254  
      28A      0.166903    29A      0.183434    30A      0.187268  
      31A      0.240341    32A      0.257036    33A      0.264330  
      34A      0.270709    35A      0.278610    36A      0.282156  
      37A      0.291565    38A      0.302675    39A      0.310342  
      40A      0.315441    41A      0.330847    42A      0.335732  
      43A      0.340614    44A      0.353092    45A      0.367772  
      46A      0.378825    47A      0.383757    48A      0.390192  
      49A      0.407222    50A      0.414418    51A      0.421060  
      52A      0.426201    53A      0.445139    54A      0.455033  
      55A      0.474763    56A      0.489834    57A      0.496082  
      58A      0.507291    59A      0.526567    60A      0.540155  
      61A      0.550647    62A      0.558931    63A      0.565344  
      64A      0.592989    65A      0.595507    66A      0.605614  
      67A      0.621081    68A      0.661160    69A      0.685638  
      70A      0.690023    71A      0.704522    72A      0.718935  
      73A      0.728438    74A      0.737275    75A      0.755524  
      76A      0.794629    77A      0.817550    78A      0.831449  
      79A      0.842023    80A      0.846256    81A      0.864038  
      82A      0.867903    83A      0.877884    84A      0.880692  
      85A      0.887359    86A      0.891819    87A      0.903854  
      88A      0.904713    89A      0.917335    90A      0.941641  
      91A      0.961652    92A      0.968514    93A      1.005945  
      94A      1.010077    95A      1.021953    96A      1.035367  
      97A      1.041585    98A      1.052390    99A      1.059443  
     100A      1.065941   101A      1.077985   102A      1.084331  
     103A      1.086429   104A      1.098193   105A      1.108991  
     106A      1.111110   107A      1.115945   108A      1.122736  
     109A      1.133986   110A      1.140883   111A      1.148757  
     112A      1.159039   113A      1.162886   114A      1.171482  
     115A      1.178526   116A      1.190347   117A      1.191613  
     118A      1.218089   119A      1.239652   120A      1.263173  
     121A      1.270765   122A      1.288417   123A      1.295421  
     124A      1.307248   125A      1.337038   126A      1.340039  
     127A      1.346531   128A      1.375596   129A      1.390647  
     130A      1.392576   131A      1.405772   132A      1.415076  
     133A      1.434342   134A      1.446897   135A      1.447941  
     136A      1.460218   137A      1.515364   138A      1.520921  
     139A      1.544859   140A      1.567117   141A      1.583812  
     142A      1.635860   143A      1.652844   144A      1.668393  
     145A      1.680018   146A      1.695121   147A      1.708943  
     148A      1.718254   149A      1.749827   150A      1.771244  
     151A      1.777076   152A      1.793323   153A      1.813235  
     154A      1.827353   155A      1.838595   156A      1.850780  
     157A      1.874891   158A      1.952055   159A      1.992512  
     160A      2.015008   161A      2.039585   162A      2.078043  
     163A      2.086073   164A      2.110833   165A      2.139536  
     166A      2.156984   167A      2.206792   168A      2.266987  
     169A      2.319121   170A      2.437377   171A      2.448732  
     172A      2.462512   173A      2.479708   174A      2.509264  
     175A      2.544137   176A      2.549787   177A      2.556714  
     178A      2.579028   179A      2.595322   180A      2.600402  
     181A      2.605965   182A      2.612881   183A      2.627117  
     184A      2.641024   185A      2.646343   186A      2.649750  
     187A      2.662980   188A      2.683597   189A      2.694429  
     190A      2.705005   191A      2.740597   192A      2.759688  
     193A      2.832247   194A      2.851299   195A      2.865751  
     196A      2.876440   197A      2.893679   198A      2.923642  
     199A      2.930702   200A      2.940075   201A      2.968516  
     202A      2.980150   203A      2.992009   204A      3.008404  
     205A      3.031974   206A      3.044641   207A      3.087440  
     208A      3.111383   209A      3.129574   210A      3.148688  
     211A      3.172776   212A      3.190804   213A      3.241753  
     214A      3.310334   215A      3.402135   216A      3.415393  
     217A      3.478302   218A      3.541938   219A      3.616377  
     220A      3.656047   221A      3.670859   222A      3.732830  
     223A      3.813056   224A      3.835663   225A      3.887059  
     226A      3.928515   227A      4.097099   228A      4.161714  
     229A      4.186694   230A      4.205843   231A      4.214615  
     232A      4.246199   233A      4.333291   234A      4.349587  
     235A      4.364297   236A      4.379803   237A      4.382068  
     238A      4.411992   239A      4.435854   240A      4.439892  
     241A      4.449873   242A      4.457712   243A      4.467859  
     244A      4.515558   245A      4.545041   246A      4.547588  
     247A      4.566147   248A      4.590802   249A      4.596921  
     250A      4.601783   251A      4.620382   252A      4.629333  
     253A      4.638431   254A      4.733293   255A      4.760511  
     256A      4.803978   257A      4.931043   258A      4.971433  
     259A      4.975039   260A      5.059977   261A      5.097855  
     262A      5.125429   263A      5.247847   264A      5.278431  
     265A      5.316205   266A      5.331487   267A      5.333411  
     268A      5.371110   269A      5.436924   270A      5.454065  
     271A      5.487581   272A      5.501664   273A      5.517046  
     274A      5.607682   275A      5.641009   276A      5.675230  
     277A      5.709202   278A      5.779009   279A      5.829314  
     280A      5.923153   281A      6.341715   282A      6.384092  
     283A      6.405260   284A      6.691158   285A      6.705143  
     286A      6.729356   287A      6.902252   288A      6.920551  
     289A      6.932389   290A      7.047872   291A      7.092624  
     292A      7.104606   293A      7.238298   294A      7.270891  
     295A      7.275529   296A      7.302610   297A      7.392323  
     298A      7.427034   299A      7.430319   300A      7.450377  
     301A      7.454238   302A      7.459487   303A      7.486886  
     304A      7.494653   305A      7.533340   306A      7.561276  
     307A      7.566790   308A      7.575930   309A      7.608789  
     310A      7.631730   311A      7.649413   312A      7.765466  
     313A      7.812483   314A      7.910145   315A      8.063789  
     316A      8.087484   317A      8.106062   318A      8.129338  
     319A      8.130561   320A      8.207172   321A      8.887432  
     322A      8.943459   323A      8.993491   324A     15.654221  
     325A     16.279341   326A     16.804605  

    Final Occupation by Irrep:
              A 
    DOCC [    24 ]
    NA   [    24 ]
    NB   [    24 ]

  @DF-RHF Final Energy:  -687.79128971517582

   => Energetics <=

    Nuclear Repulsion Energy =            148.0759226320045912
    One-Electron Energy =               -1255.0552662204609078
    Two-Electron Energy =                 419.1880538732803529
    Total Energy =                       -687.7912897151759353

Computation Completed


Properties will be evaluated at   0.000000,   0.000000,   0.000000 [a0]

Properties computed using the SCF density matrix


 Multipole Moments:

 ------------------------------------------------------------------------------------
     Multipole            Electronic (a.u.)      Nuclear  (a.u.)        Total (a.u.)
 ------------------------------------------------------------------------------------

 L = 1.  Multiply by 2.5417464519 to convert [e a0] to [Debye]
 Dipole X            :         40.9887639          -40.9766890            0.0120749
 Dipole Y            :         -1.6031267            2.0589171            0.4557904
 Dipole Z            :        -29.6788831           28.8980793           -0.7808038
 Magnitude           :                                                    0.9041821

 ------------------------------------------------------------------------------------

*** tstop() called on moses-razer at Sat Jan  6 23:46:37 2024
Module time:
	user time   =      17.11 seconds =       0.29 minutes
	system time =       0.80 seconds =       0.01 minutes
	total time  =          3 seconds =       0.05 minutes
Total time:
	user time   =      54.61 seconds =       0.91 minutes
	system time =       2.60 seconds =       0.04 minutes
	total time  =         11 seconds =       0.18 minutes

*** tstart() called on moses-razer
*** at Sat Jan  6 23:46:37 2024


  //>>>>>>>>>>>>>>>>>>>>>>>>>>>>>>>>>>>//
  //               DFMP2               //
  //<<<<<<<<<<<<<<<<<<<<<<<<<<<<<<<<<<<//

   => Loading Basis Set <=

    Name: (AUG-CC-PVTZ AUX)
    Role: RIFIT
    Keyword: DF_BASIS_MP2
    atoms 1              entry CL         line   742 file /home/kchung25/anaconda3/envs/p415env/share/psi4/basis/aug-cc-pvtz-ri.gbs 
    atoms 2, 5, 8        entry O          line   264 file /home/kchung25/anaconda3/envs/p415env/share/psi4/basis/aug-cc-pvtz-ri.gbs 
    atoms 3-4, 6-7, 9-10 entry H          line    30 file /home/kchung25/anaconda3/envs/p415env/share/psi4/basis/aug-cc-pvtz-ri.gbs 

	 --------------------------------------------------------
	                          DF-MP2                         
	      2nd-Order Density-Fitted Moller-Plesset Theory     
	              RMP2 Wavefunction,   6 Threads             
	                                                         
	        Rob Parrish, Justin Turney, Andy Simmonett,      
	           Ed Hohenstein, and C. David Sherrill          
	 --------------------------------------------------------

   => Auxiliary Basis Set <=

  Basis Set: (AUG-CC-PVTZ AUX)
    Blend: AUG-CC-PVTZ-RI
    Number of shells: 205
    Number of basis functions: 741
    Number of Cartesian functions: 929
    Spherical Harmonics?: true
    Max angular momentum: 4

	 --------------------------------------------------------
	                 NBF =   326, NAUX =   741
	 --------------------------------------------------------
	   CLASS    FOCC     OCC    AOCC    AVIR     VIR    FVIR
	   PAIRS       0      24      24     302     302       0
	 --------------------------------------------------------

	-----------------------------------------------------------
	 ==================> DF-MP2 Energies <==================== 
	-----------------------------------------------------------
	 Reference Energy          =    -687.7912897151758216 [Eh]
	 Singles Energy            =      -0.0000000000000000 [Eh]
	 Same-Spin Energy          =      -0.2769958171590123 [Eh]
	 Opposite-Spin Energy      =      -0.8383344884076012 [Eh]
	 Correlation Energy        =      -1.1153303055666135 [Eh]
	 Total Energy              =    -688.9066200207424799 [Eh]
	-----------------------------------------------------------
	 ================> DF-SCS-MP2 Energies <================== 
	-----------------------------------------------------------
	 SCS Same-Spin Scale       =       0.3333333333333333 [-]
	 SCS Opposite-Spin Scale   =       1.2000000000000000 [-]
	 SCS Same-Spin Energy      =      -0.0923319390530041 [Eh]
	 SCS Opposite-Spin Energy  =      -1.0060013860891213 [Eh]
	 SCS Correlation Energy    =      -1.0983333251421254 [Eh]
	 SCS Total Energy          =    -688.8896230403179288 [Eh]
	-----------------------------------------------------------


*** tstop() called on moses-razer at Sat Jan  6 23:46:39 2024
Module time:
	user time   =       6.17 seconds =       0.10 minutes
	system time =       0.46 seconds =       0.01 minutes
	total time  =          2 seconds =       0.03 minutes
Total time:
	user time   =      60.78 seconds =       1.01 minutes
	system time =       3.06 seconds =       0.05 minutes
	total time  =         13 seconds =       0.22 minutes

    Psi4 stopped on: Saturday, 06 January 2024 11:46PM
    Psi4 wall time for execution: 0:00:04.69


  //>>>>>>>>>>>>>>>>>>>>>>>>>>>>>>>>>>>//
  //          ManyBody Results         //
  //<<<<<<<<<<<<<<<<<<<<<<<<<<<<<<<<<<<//


   ==> N-Body: Counterpoise Corrected (CP) energies <==

        n-Body     Total Energy            Interaction Energy                          N-body Contribution to Interaction Energy
                   [Eh]                    [Eh]                  [kcal/mol]            [Eh]                  [kcal/mol]
             1  N/A                         0.000000000000        0.000000000000        0.000000000000        0.000000000000
  FULL/RTN   2  N/A                        -0.061174797459      -38.387764961652       -0.061174797459      -38.387764961652


    Psi4 stopped on: Saturday, 06 January 2024 11:46PM
    Psi4 wall time for execution: 0:00:13.99

*** Psi4 exiting successfully. Buy a developer a beer!
