
    -----------------------------------------------------------------------
          Psi4: An Open-Source Ab Initio Electronic Structure Package
                               Psi4 1.8.2 release

                         Git: Rev {} zzzzzzz 


    D. G. A. Smith, L. A. Burns, A. C. Simmonett, R. M. Parrish,
    M. C. Schieber, R. Galvelis, P. Kraus, H. Kruse, R. Di Remigio,
    A. Alenaizan, A. M. James, S. Lehtola, J. P. Misiewicz, M. Scheurer,
    R. A. Shaw, J. B. Schriber, Y. Xie, Z. L. Glick, D. A. Sirianni,
    J. S. O'Brien, J. M. Waldrop, A. Kumar, E. G. Hohenstein,
    B. P. Pritchard, B. R. Brooks, H. F. Schaefer III, A. Yu. Sokolov,
    K. Patkowski, A. E. DePrince III, U. Bozkaya, R. A. King,
    F. A. Evangelista, J. M. Turney, T. D. Crawford, C. D. Sherrill,
    J. Chem. Phys. 152(18) 184108 (2020). https://doi.org/10.1063/5.0006002

                            Additional Code Authors
    E. T. Seidl, C. L. Janssen, E. F. Valeev, M. L. Leininger,
    J. F. Gonthier, R. M. Richard, H. R. McAlexander, M. Saitow, X. Wang,
    P. Verma, M. H. Lechner, A. Jiang, S. Behnle, A. G. Heide,
    M. F. Herbst, and D. L. Poole

             Previous Authors, Complete List of Code Contributors,
                       and Citations for Specific Modules
    https://github.com/psi4/psi4/blob/master/codemeta.json
    https://github.com/psi4/psi4/graphs/contributors
    http://psicode.org/psi4manual/master/introduction.html#citing-psifour

    -----------------------------------------------------------------------


    Psi4 started on: Monday, 22 January 2024 08:22PM

    Process ID: 103119
    Host:       ddmfs1
    PSIDATADIR: /ddmfs1b/softs/psi4conda/share/psi4
    Memory:     500.0 MiB
    Threads:    20
    
  ==> Input File <==

--------------------------------------------------------------------------
MEMORY 60 GB

molecule dimer {
0 1
Gh(Cl)     0.000000     0.000000     0.000000
O          1.279422     1.813072     2.395684
H          0.682919     1.310388     1.792513
H          1.966367     1.174297     2.713761
Gh(O)      0.654636     0.433879    -3.071352
Gh(H)      0.416601     0.627639    -2.150429
Gh(H)      1.079299    -0.421006    -3.057450
Gh(O)     -2.751681    -1.662134    -0.715478
Gh(H)     -1.767176    -1.405085    -0.782986
Gh(H)     -2.615721    -2.522329    -0.314722
Gh(O)     -0.054526    -2.456372     1.915545
Gh(H)     -0.644121    -2.325736     2.724853
Gh(H)     -0.025853    -1.607846     1.466047

units ang
no_reorient
no_com
symmetry c1
}

set {
basis        aug-cc-pVTZ
scf_type     df
}

energy("mp2")
--------------------------------------------------------------------------

  Memory set to  55.879 GiB by Python driver.

Scratch directory: /ddmfs1a/scratch/
   => Libint2 <=

    Primary   basis highest AM E, G, H:  5, 4, 3
    Auxiliary basis highest AM E, G, H:  6, 5, 4
    Onebody   basis highest AM E, G, H:  6, 5, 4
    Solid Harmonics ordering:            gaussian

*** tstart() called on ddmfs1
*** at Mon Jan 22 20:22:22 2024

   => Loading Basis Set <=

    Name: AUG-CC-PVTZ
    Role: ORBITAL
    Keyword: BASIS
    atoms 1                     entry CL         line   988 file /ddmfs1b/softs/psi4conda/share/psi4/basis/aug-cc-pvtz.gbs 
    atoms 2, 5, 8, 11           entry O          line   331 file /ddmfs1b/softs/psi4conda/share/psi4/basis/aug-cc-pvtz.gbs 
    atoms 3-4, 6-7, 9-10, 12-13 entry H          line    40 file /ddmfs1b/softs/psi4conda/share/psi4/basis/aug-cc-pvtz.gbs 


         ---------------------------------------------------------
                                   SCF
               by Justin Turney, Rob Parrish, Andy Simmonett
                          and Daniel G. A. Smith
                              RHF Reference
                       20 Threads,  57220 MiB Core
         ---------------------------------------------------------

  ==> Geometry <==

    Molecular point group: c1
    Full point group: C1

    Geometry (in Angstrom), charge = 0, multiplicity = 1:

       Center              X                  Y                   Z               Mass       
    ------------   -----------------  -----------------  -----------------  -----------------
      Gh(CL)          0.000000000000     0.000000000000     0.000000000000    34.968852682000
         O            1.279422000000     1.813072000000     2.395684000000    15.994914619570
         H            0.682919000000     1.310388000000     1.792513000000     1.007825032230
         H            1.966367000000     1.174297000000     2.713761000000     1.007825032230
      Gh(O)           0.654636000000     0.433879000000    -3.071352000000    15.994914619570
      Gh(H)           0.416601000000     0.627639000000    -2.150429000000     1.007825032230
      Gh(H)           1.079299000000    -0.421006000000    -3.057450000000     1.007825032230
      Gh(O)          -2.751681000000    -1.662134000000    -0.715478000000    15.994914619570
      Gh(H)          -1.767176000000    -1.405085000000    -0.782986000000     1.007825032230
      Gh(H)          -2.615721000000    -2.522329000000    -0.314722000000     1.007825032230
      Gh(O)          -0.054526000000    -2.456372000000     1.915545000000    15.994914619570
      Gh(H)          -0.644121000000    -2.325736000000     2.724853000000     1.007825032230
      Gh(H)          -0.025853000000    -1.607846000000     1.466047000000     1.007825032230

  Running in c1 symmetry.

  Rotational constants: A =      0.04614  B =      0.04013  C =      0.02488 [cm^-1]
  Rotational constants: A =   1383.20878  B =   1202.91791  C =    745.97541 [MHz]
  Nuclear repulsion =    8.900965573659922

  Charge       = 0
  Multiplicity = 1
  Electrons    = 10
  Nalpha       = 5
  Nbeta        = 5

  ==> Algorithm <==

  SCF Algorithm Type is DF.
  DIIS enabled.
  MOM disabled.
  Fractional occupation disabled.
  Guess Type is SAD.
  Energy threshold   = 1.00e-08
  Density threshold  = 1.00e-08
  Integral threshold = 1.00e-12

  ==> Primary Basis <==

  Basis Set: AUG-CC-PVTZ
    Blend: AUG-CC-PVTZ
    Number of shells: 144
    Number of basis functions: 418
    Number of Cartesian functions: 479
    Spherical Harmonics?: true
    Max angular momentum: 3

   => Loading Basis Set <=

    Name: (AUG-CC-PVTZ AUX)
    Role: JKFIT
    Keyword: DF_BASIS_SCF
    atoms 1                     entry CL         line   816 file /ddmfs1b/softs/psi4conda/share/psi4/basis/aug-cc-pvtz-jkfit.gbs 
    atoms 2, 5, 8, 11           entry O          line   286 file /ddmfs1b/softs/psi4conda/share/psi4/basis/aug-cc-pvtz-jkfit.gbs 
    atoms 3-4, 6-7, 9-10, 12-13 entry H          line    70 file /ddmfs1b/softs/psi4conda/share/psi4/basis/aug-cc-pvtz-jkfit.gbs 

  ==> Integral Setup <==

  DFHelper Memory: AOs need 1.115 GiB; user supplied 41.910 GiB. 
  Using in-core AOs.

  ==> MemDFJK: Density-Fitted J/K Matrices <==

    J tasked:                   Yes
    K tasked:                   Yes
    wK tasked:                   No
    OpenMP threads:              20
    Memory [MiB]:             42915
    Algorithm:                 Core
    Schwarz Cutoff:           1E-12
    Mask sparsity (%):      13.4738
    Fitting Condition:        1E-10

   => Auxiliary Basis Set <=

  Basis Set: (AUG-CC-PVTZ AUX)
    Blend: AUG-CC-PVTZ-JKFIT
    Number of shells: 274
    Number of basis functions: 930
    Number of Cartesian functions: 1144
    Spherical Harmonics?: true
    Max angular momentum: 4

  Minimum eigenvalue in the overlap matrix is 2.1131683105E-04.
  Reciprocal condition number of the overlap matrix is 2.0203770594E-05.
    Using symmetric orthogonalization.

  ==> Pre-Iterations <==

  SCF Guess: Superposition of Atomic Densities via on-the-fly atomic UHF (no occupation information).

   -------------------------
    Irrep   Nso     Nmo    
   -------------------------
     A        418     418 
   -------------------------
    Total     418     418
   -------------------------

  ==> Iterations <==

                           Total Energy        Delta E     RMS |[F,P]|

   @DF-RHF iter SAD:   -75.43952522601445   -7.54395e+01   0.00000e+00 
   @DF-RHF iter   1:   -75.97123931647651   -5.31714e-01   1.11557e-03 ADIIS/DIIS
   @DF-RHF iter   2:   -76.02272099818607   -5.14817e-02   7.83907e-04 ADIIS/DIIS
   @DF-RHF iter   3:   -76.05626859512134   -3.35476e-02   5.35591e-05 DIIS
   @DF-RHF iter   4:   -76.05670338523026   -4.34790e-04   1.36391e-05 DIIS
   @DF-RHF iter   5:   -76.05673457672593   -3.11915e-05   3.17135e-06 DIIS
   @DF-RHF iter   6:   -76.05673724368930   -2.66696e-06   7.03320e-07 DIIS
   @DF-RHF iter   7:   -76.05673738629149   -1.42602e-07   1.27311e-07 DIIS
   @DF-RHF iter   8:   -76.05673739034255   -4.05106e-09   2.22088e-08 DIIS
   @DF-RHF iter   9:   -76.05673739044425   -1.01707e-10   5.84488e-09 DIIS
  Energy and wave function converged.


  ==> Post-Iterations <==

    Orbital Energies [Eh]
    ---------------------

    Doubly Occupied:                                                      

       1A    -20.571502     2A     -1.336645     3A     -0.705019  
       4A     -0.574762     5A     -0.507194  

    Virtual:                                                              

       6A      0.015585     7A      0.033544     8A      0.035445  
       9A      0.044175    10A      0.054335    11A      0.057885  
      12A      0.067069    13A      0.069538    14A      0.100993  
      15A      0.108867    16A      0.117229    17A      0.122957  
      18A      0.128607    19A      0.139338    20A      0.150554  
      21A      0.153452    22A      0.159377    23A      0.166034  
      24A      0.169153    25A      0.177469    26A      0.179924  
      27A      0.187583    28A      0.192611    29A      0.205178  
      30A      0.212112    31A      0.219284    32A      0.225204  
      33A      0.232104    34A      0.243210    35A      0.257148  
      36A      0.277284    37A      0.282945    38A      0.291012  
      39A      0.295343    40A      0.300776    41A      0.308865  
      42A      0.314348    43A      0.322316    44A      0.330409  
      45A      0.332382    46A      0.347578    47A      0.354958  
      48A      0.359920    49A      0.362052    50A      0.364504  
      51A      0.370946    52A      0.381216    53A      0.393656  
      54A      0.411675    55A      0.418359    56A      0.422816  
      57A      0.434116    58A      0.438283    59A      0.439389  
      60A      0.458351    61A      0.463282    62A      0.473491  
      63A      0.484095    64A      0.502852    65A      0.528954  
      66A      0.568510    67A      0.576793    68A      0.587913  
      69A      0.601306    70A      0.625860    71A      0.635951  
      72A      0.655484    73A      0.661270    74A      0.664677  
      75A      0.676907    76A      0.701441    77A      0.707052  
      78A      0.715710    79A      0.722109    80A      0.737474  
      81A      0.747530    82A      0.748684    83A      0.763439  
      84A      0.767510    85A      0.780119    86A      0.782109  
      87A      0.791076    88A      0.799170    89A      0.805262  
      90A      0.811715    91A      0.815018    92A      0.830245  
      93A      0.833286    94A      0.842244    95A      0.848583  
      96A      0.868227    97A      0.872218    98A      0.881473  
      99A      0.887725   100A      0.892220   101A      0.902931  
     102A      0.909948   103A      0.911027   104A      0.919197  
     105A      0.930376   106A      0.933113   107A      0.936590  
     108A      0.940189   109A      0.950176   110A      0.964070  
     111A      0.965947   112A      0.977000   113A      0.982239  
     114A      0.993087   115A      1.000453   116A      1.003523  
     117A      1.012222   118A      1.018405   119A      1.030709  
     120A      1.033092   121A      1.043519   122A      1.047762  
     123A      1.058331   124A      1.067727   125A      1.075148  
     126A      1.103063   127A      1.108176   128A      1.129041  
     129A      1.137375   130A      1.150384   131A      1.159787  
     132A      1.173419   133A      1.179080   134A      1.195751  
     135A      1.200236   136A      1.223409   137A      1.229251  
     138A      1.246165   139A      1.263767   140A      1.276268  
     141A      1.282391   142A      1.300842   143A      1.303688  
     144A      1.330300   145A      1.340504   146A      1.355174  
     147A      1.358218   148A      1.376292   149A      1.401633  
     150A      1.405987   151A      1.419365   152A      1.435159  
     153A      1.453764   154A      1.476014   155A      1.489403  
     156A      1.495847   157A      1.516643   158A      1.540862  
     159A      1.560293   160A      1.576815   161A      1.608613  
     162A      1.616207   163A      1.633937   164A      1.640391  
     165A      1.670281   166A      1.682615   167A      1.694846  
     168A      1.718232   169A      1.723588   170A      1.733273  
     171A      1.740469   172A      1.749154   173A      1.764330  
     174A      1.774560   175A      1.776654   176A      1.805470  
     177A      1.816367   178A      1.826069   179A      1.835684  
     180A      1.855976   181A      1.863795   182A      1.886372  
     183A      1.893881   184A      1.903155   185A      1.919462  
     186A      1.931121   187A      1.978577   188A      1.993285  
     189A      1.999805   190A      2.033539   191A      2.058830  
     192A      2.089570   193A      2.115669   194A      2.122868  
     195A      2.221150   196A      2.269358   197A      2.278584  
     198A      2.300551   199A      2.389392   200A      2.409827  
     201A      2.445842   202A      2.449630   203A      2.465872  
     204A      2.475158   205A      2.480202   206A      2.484796  
     207A      2.488890   208A      2.499435   209A      2.507790  
     210A      2.526374   211A      2.536364   212A      2.553207  
     213A      2.570586   214A      2.581951   215A      2.591008  
     216A      2.618623   217A      2.639452   218A      2.652123  
     219A      2.660890   220A      2.669202   221A      2.669748  
     222A      2.680601   223A      2.706770   224A      2.717537  
     225A      2.738825   226A      2.756110   227A      2.779765  
     228A      2.798225   229A      2.800745   230A      2.841866  
     231A      2.848834   232A      2.889260   233A      2.904060  
     234A      2.961174   235A      2.976160   236A      2.984957  
     237A      3.014001   238A      3.126401   239A      3.164691  
     240A      3.167084   241A      3.196728   242A      3.219235  
     243A      3.228842   244A      3.264294   245A      3.276043  
     246A      3.325927   247A      3.368714   248A      3.387347  
     249A      3.395794   250A      3.414372   251A      3.451870  
     252A      3.517425   253A      3.567226   254A      3.592218  
     255A      3.617731   256A      3.673061   257A      3.751411  
     258A      3.764244   259A      3.834103   260A      3.855515  
     261A      4.013555   262A      4.031254   263A      4.110403  
     264A      4.125850   265A      4.167210   266A      4.191826  
     267A      4.208428   268A      4.223109   269A      4.235693  
     270A      4.270678   271A      4.300932   272A      4.329854  
     273A      4.358292   274A      4.361710   275A      4.367619  
     276A      4.388490   277A      4.407969   278A      4.415498  
     279A      4.426625   280A      4.447793   281A      4.459728  
     282A      4.476832   283A      4.479950   284A      4.502664  
     285A      4.516852   286A      4.527451   287A      4.543400  
     288A      4.564740   289A      4.573561   290A      4.603145  
     291A      4.633880   292A      4.659591   293A      4.691610  
     294A      4.699264   295A      4.708501   296A      4.729077  
     297A      4.748439   298A      4.789684   299A      4.792938  
     300A      4.806765   301A      4.819492   302A      4.861929  
     303A      4.875590   304A      4.882055   305A      4.886491  
     306A      4.911229   307A      4.939669   308A      4.952398  
     309A      4.975323   310A      4.999516   311A      5.015556  
     312A      5.056331   313A      5.101507   314A      5.116065  
     315A      5.205977   316A      5.229055   317A      5.266218  
     318A      5.292621   319A      5.299736   320A      5.320275  
     321A      5.410424   322A      5.441768   323A      5.465193  
     324A      5.491847   325A      5.504636   326A      5.545071  
     327A      5.573351   328A      5.603657   329A      5.653669  
     330A      5.663337   331A      5.667933   332A      5.714325  
     333A      5.804675   334A      5.856570   335A      5.884902  
     336A      6.138023   337A      6.149648   338A      6.163505  
     339A      6.167821   340A      6.226232   341A      6.353048  
     342A      6.441169   343A      6.521779   344A      6.567818  
     345A      6.588036   346A      6.666752   347A      6.763774  
     348A      6.873384   349A      6.970892   350A      7.043228  
     351A      7.097339   352A      7.122776   353A      7.251752  
     354A      7.287700   355A      7.323815   356A      7.361310  
     357A      7.455325   358A      7.616224   359A      7.701193  
     360A      7.710898   361A      7.734640   362A      7.786340  
     363A      7.834311   364A      7.881157   365A      7.894634  
     366A      7.956558   367A      7.995433   368A      8.019843  
     369A      8.040311   370A      8.075385   371A      8.154342  
     372A      8.258575   373A      8.260616   374A      8.264818  
     375A      8.285987   376A      8.610883   377A      8.666363  
     378A      8.689013   379A      8.780839   380A      8.799961  
     381A      8.913043   382A      8.918604   383A      9.605003  
     384A      9.709415   385A      9.716649   386A      9.853038  
     387A      9.875387   388A      9.892179   389A     10.042299  
     390A     10.043670   391A     10.076641   392A     10.274989  
     393A     10.286272   394A     10.317162   395A     11.008987  
     396A     11.037641   397A     11.210937   398A     11.692788  
     399A     11.703903   400A     11.720873   401A     11.908306  
     402A     12.023454   403A     12.139309   404A     13.466674  
     405A     13.474413   406A     13.575314   407A     13.861531  
     408A     13.890727   409A     13.992155   410A     15.308017  
     411A     15.878555   412A     27.911851   413A     28.224452  
     414A     28.356543   415A     63.743474   416A     65.350909  
     417A     65.921112   418A    160.921318  

    Final Occupation by Irrep:
              A 
    DOCC [     5 ]
    NA   [     5 ]
    NB   [     5 ]

  @DF-RHF Final Energy:   -76.05673739044425

   => Energetics <=

    Nuclear Repulsion Energy =              8.9009655736599225
    One-Electron Energy =                -122.5251579228936976
    Two-Electron Energy =                  37.5674549587895399
    Total Energy =                        -76.0567373904442405

Computation Completed


Properties will be evaluated at   0.000000,   0.000000,   0.000000 [a0]

Properties computed using the SCF density matrix


 Multipole Moments:

 ------------------------------------------------------------------------------------
     Multipole            Electronic (a.u.)      Nuclear  (a.u.)        Total (a.u.)
 ------------------------------------------------------------------------------------

 L = 1.  Multiply by 2.5417464519 to convert [e a0] to [Debye]
 Dipole X            :        -24.2899543           24.3484824            0.0585281
 Dipole Y            :        -32.8549119           32.1050504           -0.7498615
 Dipole Z            :        -44.9210429           44.7331169           -0.1879261
 Magnitude           :                                                    0.7752638

 ------------------------------------------------------------------------------------

*** tstop() called on ddmfs1 at Mon Jan 22 20:22:26 2024
Module time:
	user time   =      59.69 seconds =       0.99 minutes
	system time =       3.57 seconds =       0.06 minutes
	total time  =          4 seconds =       0.07 minutes
Total time:
	user time   =      59.69 seconds =       0.99 minutes
	system time =       3.57 seconds =       0.06 minutes
	total time  =          4 seconds =       0.07 minutes

*** tstart() called on ddmfs1
*** at Mon Jan 22 20:22:26 2024


  //>>>>>>>>>>>>>>>>>>>>>>>>>>>>>>>>>>>//
  //               DFMP2               //
  //<<<<<<<<<<<<<<<<<<<<<<<<<<<<<<<<<<<//

   => Loading Basis Set <=

    Name: (AUG-CC-PVTZ AUX)
    Role: RIFIT
    Keyword: DF_BASIS_MP2
    atoms 1                     entry CL         line   742 file /ddmfs1b/softs/psi4conda/share/psi4/basis/aug-cc-pvtz-ri.gbs 
    atoms 2, 5, 8, 11           entry O          line   264 file /ddmfs1b/softs/psi4conda/share/psi4/basis/aug-cc-pvtz-ri.gbs 
    atoms 3-4, 6-7, 9-10, 12-13 entry H          line    30 file /ddmfs1b/softs/psi4conda/share/psi4/basis/aug-cc-pvtz-ri.gbs 

	 --------------------------------------------------------
	                          DF-MP2                         
	      2nd-Order Density-Fitted Moller-Plesset Theory     
	              RMP2 Wavefunction,  20 Threads             
	                                                         
	        Rob Parrish, Justin Turney, Andy Simmonett,      
	           Ed Hohenstein, and C. David Sherrill          
	 --------------------------------------------------------

   => Auxiliary Basis Set <=

  Basis Set: (AUG-CC-PVTZ AUX)
    Blend: AUG-CC-PVTZ-RI
    Number of shells: 261
    Number of basis functions: 939
    Number of Cartesian functions: 1175
    Spherical Harmonics?: true
    Max angular momentum: 4

	 --------------------------------------------------------
	                 NBF =   418, NAUX =   939
	 --------------------------------------------------------
	   CLASS    FOCC     OCC    AOCC    AVIR     VIR    FVIR
	   PAIRS       0       5       5     413     413       0
	 --------------------------------------------------------

	-----------------------------------------------------------
	 ==================> DF-MP2 Energies <==================== 
	-----------------------------------------------------------
	 Reference Energy          =     -76.0567373904442547 [Eh]
	 Singles Energy            =      -0.0000000000000000 [Eh]
	 Same-Spin Energy          =      -0.0688789777733219 [Eh]
	 Opposite-Spin Energy      =      -0.2172306524817884 [Eh]
	 Correlation Energy        =      -0.2861096302551103 [Eh]
	 Total Energy              =     -76.3428470206993666 [Eh]
	-----------------------------------------------------------
	 ================> DF-SCS-MP2 Energies <================== 
	-----------------------------------------------------------
	 SCS Same-Spin Scale       =       0.3333333333333333 [-]
	 SCS Opposite-Spin Scale   =       1.2000000000000000 [-]
	 SCS Same-Spin Energy      =      -0.0229596592577740 [Eh]
	 SCS Opposite-Spin Energy  =      -0.2606767829781460 [Eh]
	 SCS Correlation Energy    =      -0.2836364422359200 [Eh]
	 SCS Total Energy          =     -76.3403738326801715 [Eh]
	-----------------------------------------------------------


*** tstop() called on ddmfs1 at Mon Jan 22 20:22:29 2024
Module time:
	user time   =      19.42 seconds =       0.32 minutes
	system time =       1.24 seconds =       0.02 minutes
	total time  =          3 seconds =       0.05 minutes
Total time:
	user time   =      79.13 seconds =       1.32 minutes
	system time =       4.81 seconds =       0.08 minutes
	total time  =          7 seconds =       0.12 minutes

    Psi4 stopped on: Monday, 22 January 2024 08:22PM
    Psi4 wall time for execution: 0:00:07.48

*** Psi4 exiting successfully. Buy a developer a beer!
