
    -----------------------------------------------------------------------
          Psi4: An Open-Source Ab Initio Electronic Structure Package
                               Psi4 1.8.2 release

                         Git: Rev {} zzzzzzz 


    D. G. A. Smith, L. A. Burns, A. C. Simmonett, R. M. Parrish,
    M. C. Schieber, R. Galvelis, P. Kraus, H. Kruse, R. Di Remigio,
    A. Alenaizan, A. M. James, S. Lehtola, J. P. Misiewicz, M. Scheurer,
    R. A. Shaw, J. B. Schriber, Y. Xie, Z. L. Glick, D. A. Sirianni,
    J. S. O'Brien, J. M. Waldrop, A. Kumar, E. G. Hohenstein,
    B. P. Pritchard, B. R. Brooks, H. F. Schaefer III, A. Yu. Sokolov,
    K. Patkowski, A. E. DePrince III, U. Bozkaya, R. A. King,
    F. A. Evangelista, J. M. Turney, T. D. Crawford, C. D. Sherrill,
    J. Chem. Phys. 152(18) 184108 (2020). https://doi.org/10.1063/5.0006002

                            Additional Code Authors
    E. T. Seidl, C. L. Janssen, E. F. Valeev, M. L. Leininger,
    J. F. Gonthier, R. M. Richard, H. R. McAlexander, M. Saitow, X. Wang,
    P. Verma, M. H. Lechner, A. Jiang, S. Behnle, A. G. Heide,
    M. F. Herbst, and D. L. Poole

             Previous Authors, Complete List of Code Contributors,
                       and Citations for Specific Modules
    https://github.com/psi4/psi4/blob/master/codemeta.json
    https://github.com/psi4/psi4/graphs/contributors
    http://psicode.org/psi4manual/master/introduction.html#citing-psifour

    -----------------------------------------------------------------------


    Psi4 started on: Monday, 22 January 2024 08:13PM

    Process ID: 102253
    Host:       ddmfs1
    PSIDATADIR: /ddmfs1b/softs/psi4conda/share/psi4
    Memory:     500.0 MiB
    Threads:    20
    
  ==> Input File <==

--------------------------------------------------------------------------
MEMORY 60 GB

molecule dimer {
0 1
Gh(Cl)     0.000000     0.000000     0.000000
Gh(O)      2.004466    -0.496177     2.546536
Gh(H)      2.585244    -1.154785     2.189831
Gh(H)      1.363421    -0.266412     1.830507
Gh(O)      2.479580    -1.598125    -1.227379
Gh(H)      1.827334    -1.093465    -0.781736
Gh(H)      2.036467    -2.371329    -1.587810
Gh(O)     -2.771537     0.837457     1.822875
Gh(H)     -3.237440     0.820329     0.989508
Gh(H)     -2.323566     0.003383     1.867055
O         -0.416174    -1.379225    -3.003309
H         -0.168991    -0.896023    -2.169454
H          0.155754    -2.140456    -3.062651

units ang
no_reorient
no_com
symmetry c1
}

set {
basis        aug-cc-pVTZ
scf_type     df
}

energy("mp2")
--------------------------------------------------------------------------

  Memory set to  55.879 GiB by Python driver.

Scratch directory: /ddmfs1a/scratch/
   => Libint2 <=

    Primary   basis highest AM E, G, H:  5, 4, 3
    Auxiliary basis highest AM E, G, H:  6, 5, 4
    Onebody   basis highest AM E, G, H:  6, 5, 4
    Solid Harmonics ordering:            gaussian

*** tstart() called on ddmfs1
*** at Mon Jan 22 20:13:56 2024

   => Loading Basis Set <=

    Name: AUG-CC-PVTZ
    Role: ORBITAL
    Keyword: BASIS
    atoms 1                     entry CL         line   988 file /ddmfs1b/softs/psi4conda/share/psi4/basis/aug-cc-pvtz.gbs 
    atoms 2, 5, 8, 11           entry O          line   331 file /ddmfs1b/softs/psi4conda/share/psi4/basis/aug-cc-pvtz.gbs 
    atoms 3-4, 6-7, 9-10, 12-13 entry H          line    40 file /ddmfs1b/softs/psi4conda/share/psi4/basis/aug-cc-pvtz.gbs 


         ---------------------------------------------------------
                                   SCF
               by Justin Turney, Rob Parrish, Andy Simmonett
                          and Daniel G. A. Smith
                              RHF Reference
                       20 Threads,  57220 MiB Core
         ---------------------------------------------------------

  ==> Geometry <==

    Molecular point group: c1
    Full point group: C1

    Geometry (in Angstrom), charge = 0, multiplicity = 1:

       Center              X                  Y                   Z               Mass       
    ------------   -----------------  -----------------  -----------------  -----------------
      Gh(CL)          0.000000000000     0.000000000000     0.000000000000    34.968852682000
      Gh(O)           2.004466000000    -0.496177000000     2.546536000000    15.994914619570
      Gh(H)           2.585244000000    -1.154785000000     2.189831000000     1.007825032230
      Gh(H)           1.363421000000    -0.266412000000     1.830507000000     1.007825032230
      Gh(O)           2.479580000000    -1.598125000000    -1.227379000000    15.994914619570
      Gh(H)           1.827334000000    -1.093465000000    -0.781736000000     1.007825032230
      Gh(H)           2.036467000000    -2.371329000000    -1.587810000000     1.007825032230
      Gh(O)          -2.771537000000     0.837457000000     1.822875000000    15.994914619570
      Gh(H)          -3.237440000000     0.820329000000     0.989508000000     1.007825032230
      Gh(H)          -2.323566000000     0.003383000000     1.867055000000     1.007825032230
         O           -0.416174000000    -1.379225000000    -3.003309000000    15.994914619570
         H           -0.168991000000    -0.896023000000    -2.169454000000     1.007825032230
         H            0.155754000000    -2.140456000000    -3.062651000000     1.007825032230

  Running in c1 symmetry.

  Rotational constants: A =      0.05153  B =      0.03575  C =      0.02234 [cm^-1]
  Rotational constants: A =   1544.92618  B =   1071.90344  C =    669.76071 [MHz]
  Nuclear repulsion =    9.030508397311173

  Charge       = 0
  Multiplicity = 1
  Electrons    = 10
  Nalpha       = 5
  Nbeta        = 5

  ==> Algorithm <==

  SCF Algorithm Type is DF.
  DIIS enabled.
  MOM disabled.
  Fractional occupation disabled.
  Guess Type is SAD.
  Energy threshold   = 1.00e-08
  Density threshold  = 1.00e-08
  Integral threshold = 1.00e-12

  ==> Primary Basis <==

  Basis Set: AUG-CC-PVTZ
    Blend: AUG-CC-PVTZ
    Number of shells: 144
    Number of basis functions: 418
    Number of Cartesian functions: 479
    Spherical Harmonics?: true
    Max angular momentum: 3

   => Loading Basis Set <=

    Name: (AUG-CC-PVTZ AUX)
    Role: JKFIT
    Keyword: DF_BASIS_SCF
    atoms 1                     entry CL         line   816 file /ddmfs1b/softs/psi4conda/share/psi4/basis/aug-cc-pvtz-jkfit.gbs 
    atoms 2, 5, 8, 11           entry O          line   286 file /ddmfs1b/softs/psi4conda/share/psi4/basis/aug-cc-pvtz-jkfit.gbs 
    atoms 3-4, 6-7, 9-10, 12-13 entry H          line    70 file /ddmfs1b/softs/psi4conda/share/psi4/basis/aug-cc-pvtz-jkfit.gbs 

  ==> Integral Setup <==

  DFHelper Memory: AOs need 1.109 GiB; user supplied 41.910 GiB. 
  Using in-core AOs.

  ==> MemDFJK: Density-Fitted J/K Matrices <==

    J tasked:                   Yes
    K tasked:                   Yes
    wK tasked:                   No
    OpenMP threads:              20
    Memory [MiB]:             42915
    Algorithm:                 Core
    Schwarz Cutoff:           1E-12
    Mask sparsity (%):      13.9466
    Fitting Condition:        1E-10

   => Auxiliary Basis Set <=

  Basis Set: (AUG-CC-PVTZ AUX)
    Blend: AUG-CC-PVTZ-JKFIT
    Number of shells: 274
    Number of basis functions: 930
    Number of Cartesian functions: 1144
    Spherical Harmonics?: true
    Max angular momentum: 4

  Minimum eigenvalue in the overlap matrix is 1.8465007632E-04.
  Reciprocal condition number of the overlap matrix is 1.6765579556E-05.
    Using symmetric orthogonalization.

  ==> Pre-Iterations <==

  SCF Guess: Superposition of Atomic Densities via on-the-fly atomic UHF (no occupation information).

   -------------------------
    Irrep   Nso     Nmo    
   -------------------------
     A        418     418 
   -------------------------
    Total     418     418
   -------------------------

  ==> Iterations <==

                           Total Energy        Delta E     RMS |[F,P]|

   @DF-RHF iter SAD:   -75.45529989183190   -7.54553e+01   0.00000e+00 
   @DF-RHF iter   1:   -75.97317339247827   -5.17874e-01   1.11884e-03 DIIS/ADIIS
   @DF-RHF iter   2:   -76.02520133043581   -5.20279e-02   7.74224e-04 DIIS/ADIIS
   @DF-RHF iter   3:   -76.05770066349606   -3.24993e-02   5.28391e-05 DIIS
   @DF-RHF iter   4:   -76.05811787897397   -4.17215e-04   1.31069e-05 DIIS
   @DF-RHF iter   5:   -76.05814609101706   -2.82120e-05   3.03259e-06 DIIS
   @DF-RHF iter   6:   -76.05814849107529   -2.40006e-06   6.76578e-07 DIIS
   @DF-RHF iter   7:   -76.05814862192717   -1.30852e-07   1.23645e-07 DIIS
   @DF-RHF iter   8:   -76.05814862573702   -3.80984e-09   2.11152e-08 DIIS
   @DF-RHF iter   9:   -76.05814862582773   -9.07079e-11   5.49891e-09 DIIS
  Energy and wave function converged.


  ==> Post-Iterations <==

    Orbital Energies [Eh]
    ---------------------

    Doubly Occupied:                                                      

       1A    -20.568992     2A     -1.343581     3A     -0.712996  
       4A     -0.576846     5A     -0.508247  

    Virtual:                                                              

       6A      0.016042     7A      0.032471     8A      0.038025  
       9A      0.046843    10A      0.055540    11A      0.062433  
      12A      0.067195    13A      0.072894    14A      0.094074  
      15A      0.108551    16A      0.119790    17A      0.127158  
      18A      0.130709    19A      0.132962    20A      0.140616  
      21A      0.152878    22A      0.155338    23A      0.160806  
      24A      0.167945    25A      0.176093    26A      0.183796  
      27A      0.191509    28A      0.194361    29A      0.196592  
      30A      0.213052    31A      0.221066    32A      0.231950  
      33A      0.244046    34A      0.247484    35A      0.262072  
      36A      0.273252    37A      0.287013    38A      0.293892  
      39A      0.294423    40A      0.304223    41A      0.309541  
      42A      0.311486    43A      0.323681    44A      0.327553  
      45A      0.331043    46A      0.343466    47A      0.348294  
      48A      0.358520    49A      0.369885    50A      0.372956  
      51A      0.382002    52A      0.390687    53A      0.395378  
      54A      0.400107    55A      0.411321    56A      0.418412  
      57A      0.422509    58A      0.438155    59A      0.444835  
      60A      0.464099    61A      0.481134    62A      0.482398  
      63A      0.494805    64A      0.510341    65A      0.527385  
      66A      0.531833    67A      0.548385    68A      0.576331  
      69A      0.583762    70A      0.619804    71A      0.633717  
      72A      0.635877    73A      0.661039    74A      0.671119  
      75A      0.673520    76A      0.689159    77A      0.711323  
      78A      0.720523    79A      0.721133    80A      0.727095  
      81A      0.746577    82A      0.755514    83A      0.759701  
      84A      0.772175    85A      0.779044    86A      0.783425  
      87A      0.788464    88A      0.799135    89A      0.805112  
      90A      0.811689    91A      0.815108    92A      0.819553  
      93A      0.836940    94A      0.838276    95A      0.845960  
      96A      0.858712    97A      0.861753    98A      0.868446  
      99A      0.876852   100A      0.883627   101A      0.892758  
     102A      0.899590   103A      0.909146   104A      0.919251  
     105A      0.924434   106A      0.935662   107A      0.944430  
     108A      0.948410   109A      0.956847   110A      0.962417  
     111A      0.967168   112A      0.978069   113A      0.985013  
     114A      0.999766   115A      1.000101   116A      1.011180  
     117A      1.020921   118A      1.025913   119A      1.049950  
     120A      1.052072   121A      1.055633   122A      1.062240  
     123A      1.074314   124A      1.079199   125A      1.086672  
     126A      1.105456   127A      1.131492   128A      1.140739  
     129A      1.143744   130A      1.159638   131A      1.166570  
     132A      1.184579   133A      1.193567   134A      1.211360  
     135A      1.212676   136A      1.239098   137A      1.248998  
     138A      1.252489   139A      1.259347   140A      1.275895  
     141A      1.284772   142A      1.310219   143A      1.320276  
     144A      1.339112   145A      1.344082   146A      1.363857  
     147A      1.369697   148A      1.385886   149A      1.398181  
     150A      1.410651   151A      1.439449   152A      1.469489  
     153A      1.480042   154A      1.483825   155A      1.502807  
     156A      1.522687   157A      1.525537   158A      1.552680  
     159A      1.570793   160A      1.590510   161A      1.593340  
     162A      1.599190   163A      1.610552   164A      1.630395  
     165A      1.650795   166A      1.664148   167A      1.696740  
     168A      1.708496   169A      1.729747   170A      1.732377  
     171A      1.746396   172A      1.759577   173A      1.768936  
     174A      1.773851   175A      1.788747   176A      1.793050  
     177A      1.801624   178A      1.810827   179A      1.836768  
     180A      1.845189   181A      1.857816   182A      1.869384  
     183A      1.880091   184A      1.892504   185A      1.899884  
     186A      1.935539   187A      1.949964   188A      1.964626  
     189A      2.017307   190A      2.027886   191A      2.056348  
     192A      2.082379   193A      2.111198   194A      2.131495  
     195A      2.165407   196A      2.186568   197A      2.227607  
     198A      2.317185   199A      2.383175   200A      2.390607  
     201A      2.419237   202A      2.460793   203A      2.464181  
     204A      2.478131   205A      2.488634   206A      2.505120  
     207A      2.533228   208A      2.537524   209A      2.541108  
     210A      2.546871   211A      2.558391   212A      2.586136  
     213A      2.598730   214A      2.602817   215A      2.620726  
     216A      2.637562   217A      2.644068   218A      2.650712  
     219A      2.654405   220A      2.661517   221A      2.669007  
     222A      2.689987   223A      2.715769   224A      2.728816  
     225A      2.742773   226A      2.764250   227A      2.779640  
     228A      2.791879   229A      2.812992   230A      2.848589  
     231A      2.889228   232A      2.909304   233A      2.937580  
     234A      2.965955   235A      3.030300   236A      3.042627  
     237A      3.077611   238A      3.179181   239A      3.183612  
     240A      3.201919   241A      3.205702   242A      3.214231  
     243A      3.234935   244A      3.257457   245A      3.290416  
     246A      3.325417   247A      3.338743   248A      3.356159  
     249A      3.392454   250A      3.421565   251A      3.440362  
     252A      3.540154   253A      3.543764   254A      3.614858  
     255A      3.650473   256A      3.662507   257A      3.732190  
     258A      3.773245   259A      3.812237   260A      3.870110  
     261A      3.981373   262A      4.039632   263A      4.069873  
     264A      4.090503   265A      4.113030   266A      4.157071  
     267A      4.186911   268A      4.237213   269A      4.255877  
     270A      4.267989   271A      4.291297   272A      4.312352  
     273A      4.343838   274A      4.364661   275A      4.390327  
     276A      4.404656   277A      4.418453   278A      4.444460  
     279A      4.451481   280A      4.462419   281A      4.475204  
     282A      4.478457   283A      4.503890   284A      4.513235  
     285A      4.530446   286A      4.538853   287A      4.580414  
     288A      4.600223   289A      4.618788   290A      4.646160  
     291A      4.660585   292A      4.670757   293A      4.677551  
     294A      4.694042   295A      4.707593   296A      4.728475  
     297A      4.736910   298A      4.746009   299A      4.772144  
     300A      4.781895   301A      4.826681   302A      4.876403  
     303A      4.878317   304A      4.886583   305A      4.911762  
     306A      4.928023   307A      4.940268   308A      4.968038  
     309A      4.980421   310A      4.998222   311A      5.025503  
     312A      5.034159   313A      5.136958   314A      5.165793  
     315A      5.192210   316A      5.205425   317A      5.215610  
     318A      5.275011   319A      5.320812   320A      5.380885  
     321A      5.394925   322A      5.493882   323A      5.505097  
     324A      5.541934   325A      5.573803   326A      5.590103  
     327A      5.652570   328A      5.659349   329A      5.677108  
     330A      5.700772   331A      5.749806   332A      5.771006  
     333A      5.836826   334A      5.864760   335A      5.892469  
     336A      6.116983   337A      6.159380   338A      6.177324  
     339A      6.213998   340A      6.419867   341A      6.446391  
     342A      6.502577   343A      6.587845   344A      6.660091  
     345A      6.682477   346A      6.744595   347A      6.811573  
     348A      6.917141   349A      7.088222   350A      7.109969  
     351A      7.149899   352A      7.191939   353A      7.275679  
     354A      7.315011   355A      7.361975   356A      7.426298  
     357A      7.480410   358A      7.684674   359A      7.698364  
     360A      7.703164   361A      7.766455   362A      7.820280  
     363A      7.842726   364A      7.855002   365A      7.916761  
     366A      8.009183   367A      8.054338   368A      8.083229  
     369A      8.187016   370A      8.207975   371A      8.263291  
     372A      8.269252   373A      8.297892   374A      8.321720  
     375A      8.333400   376A      8.746463   377A      8.787734  
     378A      8.804363   379A      8.869137   380A      8.878052  
     381A      8.925601   382A      9.117116   383A      9.688504  
     384A      9.705901   385A      9.747896   386A      9.842241  
     387A      9.875546   388A      9.892583   389A     10.010691  
     390A     10.057914   391A     10.120941   392A     10.219739  
     393A     10.303220   394A     10.318148   395A     11.146570  
     396A     11.261441   397A     11.286172   398A     11.669101  
     399A     11.677489   400A     11.807321   401A     12.128141  
     402A     12.210063   403A     12.326956   404A     13.557207  
     405A     13.605803   406A     13.756584   407A     13.776530  
     408A     13.936553   409A     13.993408   410A     15.273632  
     411A     16.169967   412A     27.807940   413A     28.231983  
     414A     28.338846   415A     65.318525   416A     65.944749  
     417A     67.725356   418A    160.910435  

    Final Occupation by Irrep:
              A 
    DOCC [     5 ]
    NA   [     5 ]
    NB   [     5 ]

  @DF-RHF Final Energy:   -76.05814862582773

   => Energetics <=

    Nuclear Repulsion Energy =              9.0305083973111735
    One-Electron Energy =                -122.7559869279889853
    Two-Electron Energy =                  37.6673299048500780
    Total Energy =                        -76.0581486258277266

Computation Completed


Properties will be evaluated at   0.000000,   0.000000,   0.000000 [a0]

Properties computed using the SCF density matrix


 Multipole Moments:

 ------------------------------------------------------------------------------------
     Multipole            Electronic (a.u.)      Nuclear  (a.u.)        Total (a.u.)
 ------------------------------------------------------------------------------------

 L = 1.  Multiply by 2.5417464519 to convert [e a0] to [Debye]
 Dipole X            :          6.8613206           -6.3166533            0.5446673
 Dipole Y            :         26.3995645          -26.5889738           -0.1894094
 Dipole Z            :         55.8007227          -55.2906974            0.5100254
 Magnitude           :                                                    0.7698469

 ------------------------------------------------------------------------------------

*** tstop() called on ddmfs1 at Mon Jan 22 20:14:00 2024
Module time:
	user time   =      59.96 seconds =       1.00 minutes
	system time =       3.62 seconds =       0.06 minutes
	total time  =          4 seconds =       0.07 minutes
Total time:
	user time   =      59.96 seconds =       1.00 minutes
	system time =       3.62 seconds =       0.06 minutes
	total time  =          4 seconds =       0.07 minutes

*** tstart() called on ddmfs1
*** at Mon Jan 22 20:14:00 2024


  //>>>>>>>>>>>>>>>>>>>>>>>>>>>>>>>>>>>//
  //               DFMP2               //
  //<<<<<<<<<<<<<<<<<<<<<<<<<<<<<<<<<<<//

   => Loading Basis Set <=

    Name: (AUG-CC-PVTZ AUX)
    Role: RIFIT
    Keyword: DF_BASIS_MP2
    atoms 1                     entry CL         line   742 file /ddmfs1b/softs/psi4conda/share/psi4/basis/aug-cc-pvtz-ri.gbs 
    atoms 2, 5, 8, 11           entry O          line   264 file /ddmfs1b/softs/psi4conda/share/psi4/basis/aug-cc-pvtz-ri.gbs 
    atoms 3-4, 6-7, 9-10, 12-13 entry H          line    30 file /ddmfs1b/softs/psi4conda/share/psi4/basis/aug-cc-pvtz-ri.gbs 

	 --------------------------------------------------------
	                          DF-MP2                         
	      2nd-Order Density-Fitted Moller-Plesset Theory     
	              RMP2 Wavefunction,  20 Threads             
	                                                         
	        Rob Parrish, Justin Turney, Andy Simmonett,      
	           Ed Hohenstein, and C. David Sherrill          
	 --------------------------------------------------------

   => Auxiliary Basis Set <=

  Basis Set: (AUG-CC-PVTZ AUX)
    Blend: AUG-CC-PVTZ-RI
    Number of shells: 261
    Number of basis functions: 939
    Number of Cartesian functions: 1175
    Spherical Harmonics?: true
    Max angular momentum: 4

	 --------------------------------------------------------
	                 NBF =   418, NAUX =   939
	 --------------------------------------------------------
	   CLASS    FOCC     OCC    AOCC    AVIR     VIR    FVIR
	   PAIRS       0       5       5     413     413       0
	 --------------------------------------------------------

	-----------------------------------------------------------
	 ==================> DF-MP2 Energies <==================== 
	-----------------------------------------------------------
	 Reference Energy          =     -76.0581486258277266 [Eh]
	 Singles Energy            =      -0.0000000000000000 [Eh]
	 Same-Spin Energy          =      -0.0686365868987158 [Eh]
	 Opposite-Spin Energy      =      -0.2165514223036003 [Eh]
	 Correlation Energy        =      -0.2851880092023161 [Eh]
	 Total Energy              =     -76.3433366350300417 [Eh]
	-----------------------------------------------------------
	 ================> DF-SCS-MP2 Energies <================== 
	-----------------------------------------------------------
	 SCS Same-Spin Scale       =       0.3333333333333333 [-]
	 SCS Opposite-Spin Scale   =       1.2000000000000000 [-]
	 SCS Same-Spin Energy      =      -0.0228788622995719 [Eh]
	 SCS Opposite-Spin Energy  =      -0.2598617067643203 [Eh]
	 SCS Correlation Energy    =      -0.2827405690638922 [Eh]
	 SCS Total Energy          =     -76.3408891948916164 [Eh]
	-----------------------------------------------------------


*** tstop() called on ddmfs1 at Mon Jan 22 20:14:04 2024
Module time:
	user time   =      19.33 seconds =       0.32 minutes
	system time =       1.23 seconds =       0.02 minutes
	total time  =          4 seconds =       0.07 minutes
Total time:
	user time   =      79.31 seconds =       1.32 minutes
	system time =       4.85 seconds =       0.08 minutes
	total time  =          8 seconds =       0.13 minutes

    Psi4 stopped on: Monday, 22 January 2024 08:14PM
    Psi4 wall time for execution: 0:00:07.52

*** Psi4 exiting successfully. Buy a developer a beer!
