
    -----------------------------------------------------------------------
          Psi4: An Open-Source Ab Initio Electronic Structure Package
                               Psi4 1.9 release

                         Git: Rev {} zzzzzzz 


    D. G. A. Smith, L. A. Burns, A. C. Simmonett, R. M. Parrish,
    M. C. Schieber, R. Galvelis, P. Kraus, H. Kruse, R. Di Remigio,
    A. Alenaizan, A. M. James, S. Lehtola, J. P. Misiewicz, M. Scheurer,
    R. A. Shaw, J. B. Schriber, Y. Xie, Z. L. Glick, D. A. Sirianni,
    J. S. O'Brien, J. M. Waldrop, A. Kumar, E. G. Hohenstein,
    B. P. Pritchard, B. R. Brooks, H. F. Schaefer III, A. Yu. Sokolov,
    K. Patkowski, A. E. DePrince III, U. Bozkaya, R. A. King,
    F. A. Evangelista, J. M. Turney, T. D. Crawford, C. D. Sherrill,
    J. Chem. Phys. 152(18) 184108 (2020). https://doi.org/10.1063/5.0006002

                            Additional Code Authors
    E. T. Seidl, C. L. Janssen, E. F. Valeev, M. L. Leininger,
    J. F. Gonthier, R. M. Richard, H. R. McAlexander, M. Saitow, X. Wang,
    P. Verma, M. H. Lechner, A. Jiang, S. Behnle, A. G. Heide,
    M. F. Herbst, and D. L. Poole

             Previous Authors, Complete List of Code Contributors,
                       and Citations for Specific Modules
    https://github.com/psi4/psi4/blob/master/codemeta.json
    https://github.com/psi4/psi4/graphs/contributors
    http://psicode.org/psi4manual/master/introduction.html#citing-psifour

    -----------------------------------------------------------------------


    Psi4 started on: Saturday, 06 January 2024 11:02PM

    Process ID: 559298
    Host:       moses-razer
    PSIDATADIR: /home/kchung25/anaconda3/envs/psi4_19/share/psi4
    Memory:     500.0 MiB
    Threads:    6
    
  ==> Input File <==

--------------------------------------------------------------------------
MEMORY 60 GB

molecule dimer {
-1 1
Cl     0.000000     0.000000     0.000000
--
0 1
O      0.523611    -3.326317    -0.270829
H      1.371760    -3.541864    -0.752050
H      0.520142    -2.413760    -0.485172
O     -0.566034    -1.015128    -2.856991
H     -1.423681    -1.463563    -2.743114
H     -0.308453    -0.737514    -1.960884
O      1.763372     1.458735    -2.322450
H      1.440294     0.911291    -1.581146
H      2.304948     0.879717    -2.772692
O     -2.397826    -1.807276     1.763323
H     -1.510550    -2.113811     1.658959
H     -2.434657    -1.289060     0.981632

units ang
no_reorient
no_com
symmetry c1
}

set {
basis        aug-cc-pVTZ
scf_type     df
}

energy("mp2", bsse_type="cp")
--------------------------------------------------------------------------

  Memory set to  55.879 GiB by Python driver.

Scratch directory: /scratch/

  //>>>>>>>>>>>>>>>>>>>>>>>>>>>>>>>>>>>>>//
  // ManyBody Setup: N-Body Levels [1, 2]//
  //<<<<<<<<<<<<<<<<<<<<<<<<<<<<<<<<<<<<<//

        Number of 1-body computations:     2
        Number of 2-body computations:     1

    -----------------------------------------------------------------------
          Psi4: An Open-Source Ab Initio Electronic Structure Package
                               Psi4 1.9 release

                         Git: Rev {} zzzzzzz 


    D. G. A. Smith, L. A. Burns, A. C. Simmonett, R. M. Parrish,
    M. C. Schieber, R. Galvelis, P. Kraus, H. Kruse, R. Di Remigio,
    A. Alenaizan, A. M. James, S. Lehtola, J. P. Misiewicz, M. Scheurer,
    R. A. Shaw, J. B. Schriber, Y. Xie, Z. L. Glick, D. A. Sirianni,
    J. S. O'Brien, J. M. Waldrop, A. Kumar, E. G. Hohenstein,
    B. P. Pritchard, B. R. Brooks, H. F. Schaefer III, A. Yu. Sokolov,
    K. Patkowski, A. E. DePrince III, U. Bozkaya, R. A. King,
    F. A. Evangelista, J. M. Turney, T. D. Crawford, C. D. Sherrill,
    J. Chem. Phys. 152(18) 184108 (2020). https://doi.org/10.1063/5.0006002

                            Additional Code Authors
    E. T. Seidl, C. L. Janssen, E. F. Valeev, M. L. Leininger,
    J. F. Gonthier, R. M. Richard, H. R. McAlexander, M. Saitow, X. Wang,
    P. Verma, M. H. Lechner, A. Jiang, S. Behnle, A. G. Heide,
    M. F. Herbst, and D. L. Poole

             Previous Authors, Complete List of Code Contributors,
                       and Citations for Specific Modules
    https://github.com/psi4/psi4/blob/master/codemeta.json
    https://github.com/psi4/psi4/graphs/contributors
    http://psicode.org/psi4manual/master/introduction.html#citing-psifour

    -----------------------------------------------------------------------


    Psi4 started on: Saturday, 06 January 2024 11:02PM

    Process ID: 559298
    Host:       moses-razer
    PSIDATADIR: /home/kchung25/anaconda3/envs/psi4_19/share/psi4
    Memory:     55.9 GiB
    Threads:    6
    
  ==> Input QCSchema <==

--------------------------------------------------------------------------
{'driver': 'energy',
 'extras': {'psiapi': True, 'wfn_qcvars_only': True},
 'id': None,
 'keywords': {'SCF_TYPE': 'DF', 'function_kwargs': {}},
 'model': {'basis': 'aug-cc-pvtz', 'method': 'mp2'},
 'molecule': {'atom_labels': ['', '', '', '', '', '', '', '', '', '', '', '', ''],
              'atomic_numbers': [17, 8, 1, 1, 8, 1, 1, 8, 1, 1, 8, 1, 1],
              'extras': {},
              'fix_com': True,
              'fix_orientation': True,
              'fix_symmetry': 'c1',
              'fragment_charges': [0.0, 0.0],
              'fragment_multiplicities': [1, 1],
              'fragments': [[0], [1, 2, 3, 4, 5, 6, 7, 8, 9, 10, 11, 12]],
              'geometry': [0.0, 0.0, 0.0, 0.9894813862770989, -6.285828136454507, -0.5117926368316181,
                           2.5922507098580305, -6.693152933618565, -1.4211685326505596, 0.9829259263478857,
                           -4.561345332585087, -0.9168422037406254, -1.0696492376973963, -1.9183139022837543,
                           -5.398930532897886, -2.690367180017926, -2.765733237353435, -5.183734190909124,
                           -0.5828916925758434, -1.3936994736909047, -3.705533723792248, 3.3322901373008214,
                           2.756609639619725, -4.388794440069533, 2.721761200140157, 1.7220904105945896,
                           -2.987932904363143, 4.35572045342177, 1.6624241979093841, -5.2396285102479165,
                           -4.531234436502042, -3.415256673112922, 3.332197540720674, -2.8545257988103225,
                           -3.9945238709801374, 3.1349781633633933, -4.60083493942878, -2.4359703592826683,
                           1.8550156359854186],
              'mass_numbers': [35, 16, 1, 1, 16, 1, 1, 16, 1, 1, 16, 1, 1],
              'masses': [34.968852682, 15.99491461957, 1.00782503223, 1.00782503223, 15.99491461957, 1.00782503223,
                         1.00782503223, 15.99491461957, 1.00782503223, 1.00782503223, 15.99491461957, 1.00782503223,
                         1.00782503223],
              'molecular_charge': 0.0,
              'molecular_multiplicity': 1,
              'name': 'dimer',
              'provenance': {'creator': 'QCElemental',
                             'routine': 'qcelemental.molparse.from_string',
                             'version': '0.27.1'},
              'real': [False, True, True, True, True, True, True, True, True, True, True, True, True],
              'schema_name': 'qcschema_molecule',
              'schema_version': 2,
              'symbols': ['Cl', 'O', 'H', 'H', 'O', 'H', 'H', 'O', 'H', 'H', 'O', 'H', 'H'],
              'validated': True},
 'protocols': {'stdout': True},
 'provenance': {'creator': 'QCElemental', 'routine': 'qcelemental.models.results', 'version': '0.27.1'},
 'schema_name': 'qcschema_input',
 'schema_version': 1}
--------------------------------------------------------------------------

Scratch directory: /scratch/
   => Libint2 <=

    Primary   basis highest AM E, G, H:  5, 4, 3
    Auxiliary basis highest AM E, G, H:  6, 5, 4
    Onebody   basis highest AM E, G, H:  6, 5, 4
    Solid Harmonics ordering:            gaussian

*** tstart() called on moses-razer
*** at Sat Jan  6 23:02:52 2024

   => Loading Basis Set <=

    Name: AUG-CC-PVTZ
    Role: ORBITAL
    Keyword: BASIS
    atoms 1                     entry CL         line   988 file /home/kchung25/anaconda3/envs/p415env/share/psi4/basis/aug-cc-pvtz.gbs 
    atoms 2, 5, 8, 11           entry O          line   331 file /home/kchung25/anaconda3/envs/p415env/share/psi4/basis/aug-cc-pvtz.gbs 
    atoms 3-4, 6-7, 9-10, 12-13 entry H          line    40 file /home/kchung25/anaconda3/envs/p415env/share/psi4/basis/aug-cc-pvtz.gbs 


         ---------------------------------------------------------
                                   SCF
               by Justin Turney, Rob Parrish, Andy Simmonett
                          and Daniel G. A. Smith
                              RHF Reference
                        6 Threads,  57220 MiB Core
         ---------------------------------------------------------

  ==> Geometry <==

    Molecular point group: c1
    Full point group: C1

    Geometry (in Bohr), charge = 0, multiplicity = 1:

       Center              X                  Y                   Z               Mass       
    ------------   -----------------  -----------------  -----------------  -----------------
      Gh(CL)          0.000000000000     0.000000000000     0.000000000000    34.968852682000
         O            0.989481386277    -6.285828136455    -0.511792636832    15.994914619570
         H            2.592250709858    -6.693152933619    -1.421168532651     1.007825032230
         H            0.982925926348    -4.561345332585    -0.916842203741     1.007825032230
         O           -1.069649237697    -1.918313902284    -5.398930532898    15.994914619570
         H           -2.690367180018    -2.765733237353    -5.183734190909     1.007825032230
         H           -0.582891692576    -1.393699473691    -3.705533723792     1.007825032230
         O            3.332290137301     2.756609639620    -4.388794440070    15.994914619570
         H            2.721761200140     1.722090410595    -2.987932904363     1.007825032230
         H            4.355720453422     1.662424197909    -5.239628510248     1.007825032230
         O           -4.531234436502    -3.415256673113     3.332197540721    15.994914619570
         H           -2.854525798810    -3.994523870980     3.134978163363     1.007825032230
         H           -4.600834939429    -2.435970359283     1.855015635985     1.007825032230

  Running in c1 symmetry.

  Rotational constants: A =      0.04972  B =      0.03275  C =      0.02428 [cm^-1]
  Rotational constants: A =   1490.53092  B =    981.95642  C =    727.91837 [MHz]
  Nuclear repulsion =  110.655137268626888

  Charge       = 0
  Multiplicity = 1
  Electrons    = 40
  Nalpha       = 20
  Nbeta        = 20

  ==> Algorithm <==

  SCF Algorithm Type is DF.
  DIIS enabled.
  MOM disabled.
  Fractional occupation disabled.
  Guess Type is SAD.
  Energy threshold   = 1.00e-08
  Density threshold  = 1.00e-08
  Integral threshold = 1.00e-12

  ==> Primary Basis <==

  Basis Set: AUG-CC-PVTZ
    Blend: AUG-CC-PVTZ
    Number of shells: 144
    Number of basis functions: 418
    Number of Cartesian functions: 479
    Spherical Harmonics?: true
    Max angular momentum: 3

   => Loading Basis Set <=

    Name: (AUG-CC-PVTZ AUX)
    Role: JKFIT
    Keyword: DF_BASIS_SCF
    atoms 1                     entry CL         line   816 file /home/kchung25/anaconda3/envs/p415env/share/psi4/basis/aug-cc-pvtz-jkfit.gbs 
    atoms 2, 5, 8, 11           entry O          line   286 file /home/kchung25/anaconda3/envs/p415env/share/psi4/basis/aug-cc-pvtz-jkfit.gbs 
    atoms 3-4, 6-7, 9-10, 12-13 entry H          line    70 file /home/kchung25/anaconda3/envs/p415env/share/psi4/basis/aug-cc-pvtz-jkfit.gbs 

  ==> Integral Setup <==

  DFHelper Memory: AOs need 1.134 GiB; user supplied 41.910 GiB. 
  Using in-core AOs.

  ==> MemDFJK: Density-Fitted J/K Matrices <==

    J tasked:                   Yes
    K tasked:                   Yes
    wK tasked:                   No
    OpenMP threads:               6
    Memory [MiB]:             42915
    Algorithm:                 Core
    Schwarz Cutoff:           1E-12
    Mask sparsity (%):      10.4038
    Fitting Condition:        1E-10

   => Auxiliary Basis Set <=

  Basis Set: (AUG-CC-PVTZ AUX)
    Blend: AUG-CC-PVTZ-JKFIT
    Number of shells: 274
    Number of basis functions: 930
    Number of Cartesian functions: 1144
    Spherical Harmonics?: true
    Max angular momentum: 4

  Minimum eigenvalue in the overlap matrix is 1.4700368630E-04.
  Reciprocal condition number of the overlap matrix is 1.2595813967E-05.
    Using symmetric orthogonalization.

  ==> Pre-Iterations <==

  SCF Guess: Superposition of Atomic Densities via on-the-fly atomic UHF (no occupation information).

   -------------------------
    Irrep   Nso     Nmo    
   -------------------------
     A        418     418 
   -------------------------
    Total     418     418
   -------------------------

  ==> Iterations <==

                           Total Energy        Delta E     RMS |[F,P]|

   @DF-RHF iter SAD:  -301.99679860877973   -3.01997e+02   0.00000e+00 
   @DF-RHF iter   1:  -303.88606407806935   -1.88927e+00   2.23982e-03 DIIS/ADIIS
   @DF-RHF iter   2:  -304.09806174755204   -2.11998e-01   1.52658e-03 DIIS/ADIIS
   @DF-RHF iter   3:  -304.22410268783477   -1.26041e-01   1.06545e-04 DIIS/ADIIS
   @DF-RHF iter   4:  -304.22573390684727   -1.63122e-03   2.61025e-05 DIIS
   @DF-RHF iter   5:  -304.22583696478318   -1.03058e-04   7.53849e-06 DIIS
   @DF-RHF iter   6:  -304.22584634586980   -9.38109e-06   3.43058e-06 DIIS
   @DF-RHF iter   7:  -304.22584760089467   -1.25502e-06   7.32927e-07 DIIS
   @DF-RHF iter   8:  -304.22584772577488   -1.24880e-07   1.24236e-07 DIIS
   @DF-RHF iter   9:  -304.22584772918526   -3.41038e-09   2.52539e-08 DIIS
   @DF-RHF iter  10:  -304.22584772930486   -1.19599e-10   9.21085e-09 DIIS
  Energy and wave function converged.


  ==> Post-Iterations <==

    Orbital Energies [Eh]
    ---------------------

    Doubly Occupied:                                                      

       1A    -20.596212     2A    -20.592937     3A    -20.576123  
       4A    -20.571066     5A     -1.379712     6A     -1.373790  
       7A     -1.371458     8A     -1.367898     9A     -0.736618  
      10A     -0.729612    11A     -0.719804    12A     -0.714222  
      13A     -0.623928    14A     -0.606207    15A     -0.603090  
      16A     -0.601046    17A     -0.538531    18A     -0.529613  
      19A     -0.521392    20A     -0.517252  

    Virtual:                                                              

      21A      0.007575    22A      0.030130    23A      0.037009  
      24A      0.042038    25A      0.059095    26A      0.060297  
      27A      0.065555    28A      0.075418    29A      0.100965  
      30A      0.104512    31A      0.114861    32A      0.128797  
      33A      0.141800    34A      0.143703    35A      0.151386  
      36A      0.163135    37A      0.164972    38A      0.170979  
      39A      0.179917    40A      0.183795    41A      0.191133  
      42A      0.201230    43A      0.202962    44A      0.215856  
      45A      0.220115    46A      0.227202    47A      0.232065  
      48A      0.235911    49A      0.241830    50A      0.249305  
      51A      0.262924    52A      0.272939    53A      0.281408  
      54A      0.285535    55A      0.294271    56A      0.302163  
      57A      0.316468    58A      0.322496    59A      0.332302  
      60A      0.335855    61A      0.337321    62A      0.352879  
      63A      0.358393    64A      0.363947    65A      0.375831  
      66A      0.394351    67A      0.402153    68A      0.412190  
      69A      0.422694    70A      0.429778    71A      0.430635  
      72A      0.447533    73A      0.457971    74A      0.467527  
      75A      0.473865    76A      0.494453    77A      0.501324  
      78A      0.506716    79A      0.520797    80A      0.536336  
      81A      0.539842    82A      0.557317    83A      0.571970  
      84A      0.595370    85A      0.600872    86A      0.601146  
      87A      0.620890    88A      0.646434    89A      0.656021  
      90A      0.662804    91A      0.668310    92A      0.690154  
      93A      0.698609    94A      0.703718    95A      0.711203  
      96A      0.719937    97A      0.728861    98A      0.740150  
      99A      0.746106   100A      0.749611   101A      0.757128  
     102A      0.764645   103A      0.773116   104A      0.782966  
     105A      0.784526   106A      0.802499   107A      0.811058  
     108A      0.820427   109A      0.839585   110A      0.863642  
     111A      0.875149   112A      0.880994   113A      0.883545  
     114A      0.895354   115A      0.903185   116A      0.909640  
     117A      0.914315   118A      0.921596   119A      0.934384  
     120A      0.942283   121A      0.951984   122A      0.955388  
     123A      0.959473   124A      0.970294   125A      0.979426  
     126A      0.989562   127A      0.998339   128A      1.001612  
     129A      1.004196   130A      1.012708   131A      1.014269  
     132A      1.025978   133A      1.033627   134A      1.039938  
     135A      1.055726   136A      1.060421   137A      1.070105  
     138A      1.076654   139A      1.087816   140A      1.102452  
     141A      1.117213   142A      1.125917   143A      1.140973  
     144A      1.149767   145A      1.155838   146A      1.163878  
     147A      1.177944   148A      1.178913   149A      1.204405  
     150A      1.216920   151A      1.221159   152A      1.225901  
     153A      1.234555   154A      1.237344   155A      1.261285  
     156A      1.272674   157A      1.289242   158A      1.299097  
     159A      1.315559   160A      1.330820   161A      1.358834  
     162A      1.371197   163A      1.379343   164A      1.386311  
     165A      1.403457   166A      1.421325   167A      1.437846  
     168A      1.446901   169A      1.468797   170A      1.485307  
     171A      1.497546   172A      1.516984   173A      1.535961  
     174A      1.551472   175A      1.555357   176A      1.562415  
     177A      1.567337   178A      1.582913   179A      1.605904  
     180A      1.612601   181A      1.632279   182A      1.638747  
     183A      1.650610   184A      1.659154   185A      1.678785  
     186A      1.698466   187A      1.705427   188A      1.746131  
     189A      1.750511   190A      1.758351   191A      1.773030  
     192A      1.790270   193A      1.812862   194A      1.847998  
     195A      1.858914   196A      1.862858   197A      1.893147  
     198A      1.933788   199A      1.936423   200A      1.943948  
     201A      1.987981   202A      2.012816   203A      2.030530  
     204A      2.043585   205A      2.070811   206A      2.086023  
     207A      2.107789   208A      2.166775   209A      2.204052  
     210A      2.219978   211A      2.272330   212A      2.303991  
     213A      2.319508   214A      2.333305   215A      2.352898  
     216A      2.367343   217A      2.385591   218A      2.397137  
     219A      2.408575   220A      2.430062   221A      2.439521  
     222A      2.445479   223A      2.467827   224A      2.480657  
     225A      2.488447   226A      2.495477   227A      2.503539  
     228A      2.515065   229A      2.534919   230A      2.557485  
     231A      2.560834   232A      2.571555   233A      2.589079  
     234A      2.610008   235A      2.616306   236A      2.628932  
     237A      2.651173   238A      2.664864   239A      2.671120  
     240A      2.695284   241A      2.703058   242A      2.725088  
     243A      2.741790   244A      2.757566   245A      2.769280  
     246A      2.782512   247A      2.796722   248A      2.818800  
     249A      2.847284   250A      2.853690   251A      2.874309  
     252A      2.895423   253A      2.903559   254A      2.919548  
     255A      2.942595   256A      2.947127   257A      2.981995  
     258A      2.995921   259A      3.011847   260A      3.047883  
     261A      3.083313   262A      3.682281   263A      3.727574  
     264A      3.746915   265A      3.774250   266A      3.780035  
     267A      3.852361   268A      3.881847   269A      3.920156  
     270A      3.976043   271A      4.005202   272A      4.041163  
     273A      4.076985   274A      4.079735   275A      4.085237  
     276A      4.091177   277A      4.104543   278A      4.126753  
     279A      4.147554   280A      4.153869   281A      4.163272  
     282A      4.180057   283A      4.201963   284A      4.208733  
     285A      4.224556   286A      4.228653   287A      4.234561  
     288A      4.254852   289A      4.278663   290A      4.289254  
     291A      4.302057   292A      4.305081   293A      4.322100  
     294A      4.331239   295A      4.349337   296A      4.366284  
     297A      4.372729   298A      4.384431   299A      4.385987  
     300A      4.400311   301A      4.407464   302A      4.417382  
     303A      4.436742   304A      4.440584   305A      4.445203  
     306A      4.459412   307A      4.475780   308A      4.486795  
     309A      4.517970   310A      4.537618   311A      4.559589  
     312A      4.600432   313A      4.618876   314A      4.675405  
     315A      4.684451   316A      4.690803   317A      4.750656  
     318A      4.765435   319A      4.778861   320A      4.798014  
     321A      4.819908   322A      4.843253   323A      4.869529  
     324A      4.942274   325A      4.951913   326A      4.990988  
     327A      5.030794   328A      5.074255   329A      5.094112  
     330A      5.121226   331A      5.140956   332A      5.195286  
     333A      5.203978   334A      5.209439   335A      5.226454  
     336A      5.241112   337A      5.247893   338A      5.295766  
     339A      5.306800   340A      5.339166   341A      5.346764  
     342A      5.414204   343A      5.433787   344A      5.442891  
     345A      5.511208   346A      5.540523   347A      5.554859  
     348A      5.611609   349A      5.626841   350A      5.650186  
     351A      5.654542   352A      5.720767   353A      5.760240  
     354A      6.235047   355A      6.286048   356A      6.304282  
     357A      6.311579   358A      6.506193   359A      6.529719  
     360A      6.548653   361A      6.573338   362A      6.746347  
     363A      6.769788   364A      6.806346   365A      6.827292  
     366A      6.949995   367A      7.004933   368A      7.050304  
     369A      7.079287   370A      7.091195   371A      7.136091  
     372A      7.164045   373A      7.186016   374A      7.188490  
     375A      7.264795   376A      7.286896   377A      7.294367  
     378A      7.306967   379A      7.311405   380A      7.325143  
     381A      7.334706   382A      7.344952   383A      7.352363  
     384A      7.361135   385A      7.395840   386A      7.408527  
     387A      7.417117   388A      7.428979   389A      7.439600  
     390A      7.459252   391A      7.480927   392A      7.486803  
     393A      7.507358   394A      7.616325   395A      7.649510  
     396A      7.696584   397A      7.735904   398A      7.861789  
     399A      7.885375   400A      7.941208   401A      7.954415  
     402A      7.989530   403A      8.033706   404A      8.078233  
     405A      8.096012   406A      8.768949   407A      8.817095  
     408A      8.922480   409A      8.975146   410A     15.430232  
     411A     16.349957   412A     16.454645   413A     16.543997  
     414A     16.943844   415A     27.971787   416A     28.229516  
     417A     28.301543   418A    160.881702  

    Final Occupation by Irrep:
              A 
    DOCC [    20 ]
    NA   [    20 ]
    NB   [    20 ]

  @DF-RHF Final Energy:  -304.22584772930486

   => Energetics <=

    Nuclear Repulsion Energy =            110.6551372686268877
    One-Electron Energy =                -639.2209458227285950
    Two-Electron Energy =                 224.3399608247968899
    Total Energy =                       -304.2258477293048600

Computation Completed


Properties will be evaluated at   0.000000,   0.000000,   0.000000 [a0]

Properties computed using the SCF density matrix


 Multipole Moments:

 ------------------------------------------------------------------------------------
     Multipole            Electronic (a.u.)      Nuclear  (a.u.)        Total (a.u.)
 ------------------------------------------------------------------------------------

 L = 1.  Multiply by 2.5417464519 to convert [e a0] to [Debye]
 Dipole X            :         11.1613841          -10.3088585            0.8525256
 Dipole Y            :         89.0459218          -89.3622232           -0.3163014
 Dipole Z            :         69.9067356          -70.2034068           -0.2966712
 Magnitude           :                                                    0.9564833

 ------------------------------------------------------------------------------------

*** tstop() called on moses-razer at Sat Jan  6 23:02:57 2024
Module time:
	user time   =      27.37 seconds =       0.46 minutes
	system time =       1.14 seconds =       0.02 minutes
	total time  =          5 seconds =       0.08 minutes
Total time:
	user time   =      27.37 seconds =       0.46 minutes
	system time =       1.14 seconds =       0.02 minutes
	total time  =          5 seconds =       0.08 minutes

*** tstart() called on moses-razer
*** at Sat Jan  6 23:02:57 2024


  //>>>>>>>>>>>>>>>>>>>>>>>>>>>>>>>>>>>//
  //               DFMP2               //
  //<<<<<<<<<<<<<<<<<<<<<<<<<<<<<<<<<<<//

   => Loading Basis Set <=

    Name: (AUG-CC-PVTZ AUX)
    Role: RIFIT
    Keyword: DF_BASIS_MP2
    atoms 1                     entry CL         line   742 file /home/kchung25/anaconda3/envs/p415env/share/psi4/basis/aug-cc-pvtz-ri.gbs 
    atoms 2, 5, 8, 11           entry O          line   264 file /home/kchung25/anaconda3/envs/p415env/share/psi4/basis/aug-cc-pvtz-ri.gbs 
    atoms 3-4, 6-7, 9-10, 12-13 entry H          line    30 file /home/kchung25/anaconda3/envs/p415env/share/psi4/basis/aug-cc-pvtz-ri.gbs 

	 --------------------------------------------------------
	                          DF-MP2                         
	      2nd-Order Density-Fitted Moller-Plesset Theory     
	              RMP2 Wavefunction,   6 Threads             
	                                                         
	        Rob Parrish, Justin Turney, Andy Simmonett,      
	           Ed Hohenstein, and C. David Sherrill          
	 --------------------------------------------------------

   => Auxiliary Basis Set <=

  Basis Set: (AUG-CC-PVTZ AUX)
    Blend: AUG-CC-PVTZ-RI
    Number of shells: 261
    Number of basis functions: 939
    Number of Cartesian functions: 1175
    Spherical Harmonics?: true
    Max angular momentum: 4

	 --------------------------------------------------------
	                 NBF =   418, NAUX =   939
	 --------------------------------------------------------
	   CLASS    FOCC     OCC    AOCC    AVIR     VIR    FVIR
	   PAIRS       0      20      20     398     398       0
	 --------------------------------------------------------

	-----------------------------------------------------------
	 ==================> DF-MP2 Energies <==================== 
	-----------------------------------------------------------
	 Reference Energy          =    -304.2258477293048600 [Eh]
	 Singles Energy            =      -0.0000000000000000 [Eh]
	 Same-Spin Energy          =      -0.2750528041538745 [Eh]
	 Opposite-Spin Energy      =      -0.8653457027046620 [Eh]
	 Correlation Energy        =      -1.1403985068585365 [Eh]
	 Total Energy              =    -305.3662462361634198 [Eh]
	-----------------------------------------------------------
	 ================> DF-SCS-MP2 Energies <================== 
	-----------------------------------------------------------
	 SCS Same-Spin Scale       =       0.3333333333333333 [-]
	 SCS Opposite-Spin Scale   =       1.2000000000000000 [-]
	 SCS Same-Spin Energy      =      -0.0916842680512915 [Eh]
	 SCS Opposite-Spin Energy  =      -1.0384148432455944 [Eh]
	 SCS Correlation Energy    =      -1.1300991112968859 [Eh]
	 SCS Total Energy          =    -305.3559468406017459 [Eh]
	-----------------------------------------------------------


*** tstop() called on moses-razer at Sat Jan  6 23:02:59 2024
Module time:
	user time   =      10.27 seconds =       0.17 minutes
	system time =       0.62 seconds =       0.01 minutes
	total time  =          2 seconds =       0.03 minutes
Total time:
	user time   =      37.64 seconds =       0.63 minutes
	system time =       1.76 seconds =       0.03 minutes
	total time  =          7 seconds =       0.12 minutes

    Psi4 stopped on: Saturday, 06 January 2024 11:02PM
    Psi4 wall time for execution: 0:00:07.71


    -----------------------------------------------------------------------
          Psi4: An Open-Source Ab Initio Electronic Structure Package
                               Psi4 1.9 release

                         Git: Rev {} zzzzzzz 


    D. G. A. Smith, L. A. Burns, A. C. Simmonett, R. M. Parrish,
    M. C. Schieber, R. Galvelis, P. Kraus, H. Kruse, R. Di Remigio,
    A. Alenaizan, A. M. James, S. Lehtola, J. P. Misiewicz, M. Scheurer,
    R. A. Shaw, J. B. Schriber, Y. Xie, Z. L. Glick, D. A. Sirianni,
    J. S. O'Brien, J. M. Waldrop, A. Kumar, E. G. Hohenstein,
    B. P. Pritchard, B. R. Brooks, H. F. Schaefer III, A. Yu. Sokolov,
    K. Patkowski, A. E. DePrince III, U. Bozkaya, R. A. King,
    F. A. Evangelista, J. M. Turney, T. D. Crawford, C. D. Sherrill,
    J. Chem. Phys. 152(18) 184108 (2020). https://doi.org/10.1063/5.0006002

                            Additional Code Authors
    E. T. Seidl, C. L. Janssen, E. F. Valeev, M. L. Leininger,
    J. F. Gonthier, R. M. Richard, H. R. McAlexander, M. Saitow, X. Wang,
    P. Verma, M. H. Lechner, A. Jiang, S. Behnle, A. G. Heide,
    M. F. Herbst, and D. L. Poole

             Previous Authors, Complete List of Code Contributors,
                       and Citations for Specific Modules
    https://github.com/psi4/psi4/blob/master/codemeta.json
    https://github.com/psi4/psi4/graphs/contributors
    http://psicode.org/psi4manual/master/introduction.html#citing-psifour

    -----------------------------------------------------------------------


    Psi4 started on: Saturday, 06 January 2024 11:02PM

    Process ID: 559298
    Host:       moses-razer
    PSIDATADIR: /home/kchung25/anaconda3/envs/psi4_19/share/psi4
    Memory:     55.9 GiB
    Threads:    6
    
  ==> Input QCSchema <==

--------------------------------------------------------------------------
{'driver': 'energy',
 'extras': {'psiapi': True, 'wfn_qcvars_only': True},
 'id': None,
 'keywords': {'SCF_TYPE': 'DF', 'function_kwargs': {}},
 'model': {'basis': 'aug-cc-pvtz', 'method': 'mp2'},
 'molecule': {'atom_labels': ['', '', '', '', '', '', '', '', '', '', '', '', ''],
              'atomic_numbers': [17, 8, 1, 1, 8, 1, 1, 8, 1, 1, 8, 1, 1],
              'extras': {},
              'fix_com': True,
              'fix_orientation': True,
              'fix_symmetry': 'c1',
              'fragment_charges': [-1.0, 0.0],
              'fragment_multiplicities': [1, 1],
              'fragments': [[0], [1, 2, 3, 4, 5, 6, 7, 8, 9, 10, 11, 12]],
              'geometry': [0.0, 0.0, 0.0, 0.9894813862770989, -6.285828136454507, -0.5117926368316181,
                           2.5922507098580305, -6.693152933618565, -1.4211685326505596, 0.9829259263478857,
                           -4.561345332585087, -0.9168422037406254, -1.0696492376973963, -1.9183139022837543,
                           -5.398930532897886, -2.690367180017926, -2.765733237353435, -5.183734190909124,
                           -0.5828916925758434, -1.3936994736909047, -3.705533723792248, 3.3322901373008214,
                           2.756609639619725, -4.388794440069533, 2.721761200140157, 1.7220904105945896,
                           -2.987932904363143, 4.35572045342177, 1.6624241979093841, -5.2396285102479165,
                           -4.531234436502042, -3.415256673112922, 3.332197540720674, -2.8545257988103225,
                           -3.9945238709801374, 3.1349781633633933, -4.60083493942878, -2.4359703592826683,
                           1.8550156359854186],
              'mass_numbers': [35, 16, 1, 1, 16, 1, 1, 16, 1, 1, 16, 1, 1],
              'masses': [34.968852682, 15.99491461957, 1.00782503223, 1.00782503223, 15.99491461957, 1.00782503223,
                         1.00782503223, 15.99491461957, 1.00782503223, 1.00782503223, 15.99491461957, 1.00782503223,
                         1.00782503223],
              'molecular_charge': -1.0,
              'molecular_multiplicity': 1,
              'name': 'dimer',
              'provenance': {'creator': 'QCElemental',
                             'routine': 'qcelemental.molparse.from_string',
                             'version': '0.27.1'},
              'real': [True, False, False, False, False, False, False, False, False, False, False, False, False],
              'schema_name': 'qcschema_molecule',
              'schema_version': 2,
              'symbols': ['Cl', 'O', 'H', 'H', 'O', 'H', 'H', 'O', 'H', 'H', 'O', 'H', 'H'],
              'validated': True},
 'protocols': {'stdout': True},
 'provenance': {'creator': 'QCElemental', 'routine': 'qcelemental.models.results', 'version': '0.27.1'},
 'schema_name': 'qcschema_input',
 'schema_version': 1}
--------------------------------------------------------------------------

Scratch directory: /scratch/
   => Libint2 <=

    Primary   basis highest AM E, G, H:  5, 4, 3
    Auxiliary basis highest AM E, G, H:  6, 5, 4
    Onebody   basis highest AM E, G, H:  6, 5, 4
    Solid Harmonics ordering:            gaussian

*** tstart() called on moses-razer
*** at Sat Jan  6 23:02:59 2024

   => Loading Basis Set <=

    Name: AUG-CC-PVTZ
    Role: ORBITAL
    Keyword: BASIS
    atoms 1                     entry CL         line   988 file /home/kchung25/anaconda3/envs/p415env/share/psi4/basis/aug-cc-pvtz.gbs 
    atoms 2, 5, 8, 11           entry O          line   331 file /home/kchung25/anaconda3/envs/p415env/share/psi4/basis/aug-cc-pvtz.gbs 
    atoms 3-4, 6-7, 9-10, 12-13 entry H          line    40 file /home/kchung25/anaconda3/envs/p415env/share/psi4/basis/aug-cc-pvtz.gbs 


         ---------------------------------------------------------
                                   SCF
               by Justin Turney, Rob Parrish, Andy Simmonett
                          and Daniel G. A. Smith
                              RHF Reference
                        6 Threads,  57220 MiB Core
         ---------------------------------------------------------

  ==> Geometry <==

    Molecular point group: c1
    Full point group: C1

    Geometry (in Bohr), charge = -1, multiplicity = 1:

       Center              X                  Y                   Z               Mass       
    ------------   -----------------  -----------------  -----------------  -----------------
         CL           0.000000000000     0.000000000000     0.000000000000    34.968852682000
      Gh(O)           0.989481386277    -6.285828136455    -0.511792636832    15.994914619570
      Gh(H)           2.592250709858    -6.693152933619    -1.421168532651     1.007825032230
      Gh(H)           0.982925926348    -4.561345332585    -0.916842203741     1.007825032230
      Gh(O)          -1.069649237697    -1.918313902284    -5.398930532898    15.994914619570
      Gh(H)          -2.690367180018    -2.765733237353    -5.183734190909     1.007825032230
      Gh(H)          -0.582891692576    -1.393699473691    -3.705533723792     1.007825032230
      Gh(O)           3.332290137301     2.756609639620    -4.388794440070    15.994914619570
      Gh(H)           2.721761200140     1.722090410595    -2.987932904363     1.007825032230
      Gh(H)           4.355720453422     1.662424197909    -5.239628510248     1.007825032230
      Gh(O)          -4.531234436502    -3.415256673113     3.332197540721    15.994914619570
      Gh(H)          -2.854525798810    -3.994523870980     3.134978163363     1.007825032230
      Gh(H)          -4.600834939429    -2.435970359283     1.855015635985     1.007825032230

  Running in c1 symmetry.

  Rotational constants: A =      0.04972  B =      0.03275  C =      0.02428 [cm^-1]
  Rotational constants: A =   1490.53092  B =    981.95642  C =    727.91837 [MHz]
  Nuclear repulsion =    0.000000000000000

  Charge       = -1
  Multiplicity = 1
  Electrons    = 18
  Nalpha       = 9
  Nbeta        = 9

  ==> Algorithm <==

  SCF Algorithm Type is DF.
  DIIS enabled.
  MOM disabled.
  Fractional occupation disabled.
  Guess Type is SAD.
  Energy threshold   = 1.00e-08
  Density threshold  = 1.00e-08
  Integral threshold = 1.00e-12

  ==> Primary Basis <==

  Basis Set: AUG-CC-PVTZ
    Blend: AUG-CC-PVTZ
    Number of shells: 144
    Number of basis functions: 418
    Number of Cartesian functions: 479
    Spherical Harmonics?: true
    Max angular momentum: 3

   => Loading Basis Set <=

    Name: (AUG-CC-PVTZ AUX)
    Role: JKFIT
    Keyword: DF_BASIS_SCF
    atoms 1                     entry CL         line   816 file /home/kchung25/anaconda3/envs/p415env/share/psi4/basis/aug-cc-pvtz-jkfit.gbs 
    atoms 2, 5, 8, 11           entry O          line   286 file /home/kchung25/anaconda3/envs/p415env/share/psi4/basis/aug-cc-pvtz-jkfit.gbs 
    atoms 3-4, 6-7, 9-10, 12-13 entry H          line    70 file /home/kchung25/anaconda3/envs/p415env/share/psi4/basis/aug-cc-pvtz-jkfit.gbs 

  ==> Integral Setup <==

  DFHelper Memory: AOs need 1.134 GiB; user supplied 41.910 GiB. 
  Using in-core AOs.

  ==> MemDFJK: Density-Fitted J/K Matrices <==

    J tasked:                   Yes
    K tasked:                   Yes
    wK tasked:                   No
    OpenMP threads:               6
    Memory [MiB]:             42915
    Algorithm:                 Core
    Schwarz Cutoff:           1E-12
    Mask sparsity (%):      10.4038
    Fitting Condition:        1E-10

   => Auxiliary Basis Set <=

  Basis Set: (AUG-CC-PVTZ AUX)
    Blend: AUG-CC-PVTZ-JKFIT
    Number of shells: 274
    Number of basis functions: 930
    Number of Cartesian functions: 1144
    Spherical Harmonics?: true
    Max angular momentum: 4

  Minimum eigenvalue in the overlap matrix is 1.4700368630E-04.
  Reciprocal condition number of the overlap matrix is 1.2595813967E-05.
    Using symmetric orthogonalization.

  ==> Pre-Iterations <==

  SCF Guess: Superposition of Atomic Densities via on-the-fly atomic UHF (no occupation information).

   -------------------------
    Irrep   Nso     Nmo    
   -------------------------
     A        418     418 
   -------------------------
    Total     418     418
   -------------------------

  ==> Iterations <==

                           Total Energy        Delta E     RMS |[F,P]|

   @DF-RHF iter SAD:  -459.11248998493994   -4.59112e+02   0.00000e+00 
   @DF-RHF iter   1:  -459.51388611312768   -4.01396e-01   7.14532e-04 DIIS/ADIIS
   @DF-RHF iter   2:  -459.56479580243166   -5.09097e-02   3.66107e-04 DIIS/ADIIS
   @DF-RHF iter   3:  -459.57349550768123   -8.69971e-03   2.54353e-05 DIIS
   @DF-RHF iter   4:  -459.57355292429736   -5.74166e-05   5.00363e-06 DIIS
   @DF-RHF iter   5:  -459.57355655549020   -3.63119e-06   5.13853e-07 DIIS
   @DF-RHF iter   6:  -459.57355663728885   -8.17986e-08   4.45398e-08 DIIS
   @DF-RHF iter   7:  -459.57355663818419   -8.95341e-10   5.28421e-09 DIIS
  Energy and wave function converged.


  ==> Post-Iterations <==

    Orbital Energies [Eh]
    ---------------------

    Doubly Occupied:                                                      

       1A   -104.507024     2A    -10.230003     3A     -7.696079  
       4A     -7.696050     5A     -7.696041     6A     -0.733477  
       7A     -0.150320     8A     -0.150313     9A     -0.150307  

    Virtual:                                                              

      10A      0.118657    11A      0.130562    12A      0.136839  
      13A      0.142715    14A      0.160135    15A      0.168398  
      16A      0.179537    17A      0.199243    18A      0.226393  
      19A      0.245821    20A      0.252816    21A      0.255243  
      22A      0.262329    23A      0.265732    24A      0.270879  
      25A      0.272030    26A      0.279033    27A      0.289065  
      28A      0.294238    29A      0.299006    30A      0.315140  
      31A      0.321861    32A      0.324285    33A      0.336858  
      34A      0.343891    35A      0.354999    36A      0.379136  
      37A      0.395827    38A      0.399313    39A      0.406539  
      40A      0.428097    41A      0.432295    42A      0.448178  
      43A      0.453221    44A      0.454261    45A      0.472616  
      46A      0.477600    47A      0.478552    48A      0.488235  
      49A      0.491013    50A      0.500694    51A      0.508077  
      52A      0.513176    53A      0.521039    54A      0.529231  
      55A      0.534339    56A      0.547480    57A      0.556909  
      58A      0.568149    59A      0.575549    60A      0.582350  
      61A      0.598999    62A      0.599388    63A      0.621287  
      64A      0.640857    65A      0.658719    66A      0.677557  
      67A      0.692332    68A      0.699506    69A      0.720366  
      70A      0.737280    71A      0.752016    72A      0.775152  
      73A      0.783637    74A      0.788998    75A      0.821759  
      76A      0.836353    77A      0.841264    78A      0.849721  
      79A      0.860746    80A      0.881235    81A      0.892897  
      82A      0.904348    83A      0.920305    84A      0.925993  
      85A      0.933077    86A      0.941000    87A      0.947488  
      88A      0.963038    89A      0.964561    90A      0.973800  
      91A      0.977811    92A      0.980828    93A      0.990831  
      94A      0.995513    95A      0.999735    96A      1.008906  
      97A      1.011525    98A      1.014248    99A      1.022554  
     100A      1.033630   101A      1.038575   102A      1.052357  
     103A      1.056735   104A      1.058082   105A      1.069768  
     106A      1.080699   107A      1.092301   108A      1.101179  
     109A      1.106391   110A      1.111975   111A      1.125454  
     112A      1.127851   113A      1.139880   114A      1.144956  
     115A      1.154134   116A      1.159362   117A      1.164291  
     118A      1.169587   119A      1.175172   120A      1.178161  
     121A      1.203181   122A      1.213646   123A      1.222946  
     124A      1.231302   125A      1.244180   126A      1.246724  
     127A      1.265539   128A      1.267868   129A      1.280277  
     130A      1.287387   131A      1.306164   132A      1.309719  
     133A      1.326154   134A      1.338466   135A      1.349673  
     136A      1.373664   137A      1.379227   138A      1.388064  
     139A      1.393078   140A      1.414418   141A      1.424117  
     142A      1.432996   143A      1.439322   144A      1.454260  
     145A      1.484448   146A      1.490784   147A      1.521191  
     148A      1.526258   149A      1.541690   150A      1.552029  
     151A      1.573192   152A      1.583343   153A      1.599347  
     154A      1.613669   155A      1.631938   156A      1.647576  
     157A      1.655369   158A      1.680396   159A      1.697888  
     160A      1.704185   161A      1.715151   162A      1.749310  
     163A      1.758267   164A      1.805699   165A      1.851255  
     166A      1.857338   167A      1.868821   168A      1.879781  
     169A      1.880327   170A      1.896628   171A      1.916777  
     172A      1.918827   173A      1.925656   174A      1.926761  
     175A      1.944626   176A      1.950226   177A      1.966281  
     178A      1.984437   179A      2.002795   180A      2.010439  
     181A      2.018183   182A      2.027790   183A      2.033546  
     184A      2.052669   185A      2.057884   186A      2.081794  
     187A      2.090620   188A      2.109260   189A      2.131024  
     190A      2.160519   191A      2.162579   192A      2.197756  
     193A      2.254342   194A      2.299159   195A      2.335792  
     196A      2.391750   197A      2.455344   198A      2.473164  
     199A      2.572388   200A      2.600628   201A      2.614726  
     202A      2.622968   203A      2.640853   204A      2.649230  
     205A      2.654025   206A      2.677395   207A      2.692484  
     208A      2.701350   209A      2.711112   210A      2.721516  
     211A      2.733642   212A      2.747362   213A      2.758868  
     214A      2.764481   215A      2.788661   216A      2.793701  
     217A      2.817664   218A      2.821045   219A      2.831569  
     220A      2.837065   221A      2.841389   222A      2.859815  
     223A      2.889986   224A      2.905328   225A      2.918720  
     226A      2.937327   227A      2.944173   228A      2.979490  
     229A      2.984881   230A      3.004636   231A      3.031515  
     232A      3.044611   233A      3.071278   234A      3.096720  
     235A      3.102967   236A      3.127626   237A      3.158774  
     238A      3.203418   239A      3.275850   240A      3.292958  
     241A      3.296342   242A      3.336870   243A      3.355211  
     244A      3.356753   245A      3.378711   246A      3.391480  
     247A      3.401981   248A      3.412100   249A      3.434675  
     250A      3.447800   251A      3.463824   252A      3.491894  
     253A      3.523295   254A      3.541655   255A      3.573658  
     256A      3.592977   257A      3.607457   258A      3.610853  
     259A      3.634113   260A      3.640749   261A      3.664437  
     262A      3.692499   263A      3.700914   264A      3.720730  
     265A      3.740157   266A      3.751557   267A      3.772795  
     268A      3.799018   269A      3.838671   270A      3.843206  
     271A      3.852208   272A      3.872643   273A      3.897109  
     274A      3.928562   275A      4.028355   276A      4.039650  
     277A      4.133098   278A      4.561449   279A      4.599343  
     280A      4.601804   281A      4.607484   282A      4.632314  
     283A      4.646160   284A      4.660614   285A      4.669710  
     286A      4.679775   287A      4.708604   288A      4.724230  
     289A      4.743691   290A      4.771107   291A      4.816072  
     292A      4.834893   293A      4.852601   294A      4.883842  
     295A      4.896136   296A      4.905112   297A      4.923836  
     298A      4.978012   299A      4.988730   300A      5.015512  
     301A      5.032841   302A      5.034236   303A      5.045715  
     304A      5.061680   305A      5.077492   306A      5.087229  
     307A      5.098929   308A      5.139044   309A      5.145015  
     310A      5.156538   311A      5.209888   312A      5.245925  
     313A      5.365447   314A      5.441149   315A      5.487388  
     316A      5.531960   317A      5.547973   318A      5.685079  
     319A      5.720889   320A      5.767475   321A      5.810428  
     322A      5.826615   323A      5.851677   324A      5.858295  
     325A      5.865782   326A      5.896992   327A      5.907042  
     328A      5.960114   329A      5.970886   330A      6.052174  
     331A      6.107899   332A      6.132427   333A      6.139852  
     334A      6.306639   335A      6.333574   336A      6.347379  
     337A      6.360997   338A      6.445051   339A      6.516607  
     340A      6.616705   341A      6.673049   342A      6.795397  
     343A      6.837077   344A      6.898714   345A      6.913853  
     346A      7.172320   347A      7.302897   348A      7.339681  
     349A      7.366462   350A      7.369545   351A      7.877695  
     352A      7.894626   353A      7.929509   354A      7.936537  
     355A      8.042433   356A      8.069372   357A      8.105284  
     358A      8.144412   359A      8.162689   360A      8.223244  
     361A      8.236187   362A      8.240985   363A      8.280487  
     364A      8.356066   365A      8.388683   366A      8.396898  
     367A      8.468819   368A      8.477095   369A      8.506605  
     370A      8.526533   371A      8.924823   372A      8.943487  
     373A      8.971610   374A      9.115757   375A      9.126110  
     376A      9.135108   377A      9.173815   378A      9.201412  
     379A      9.817021   380A      9.859714   381A      9.868296  
     382A      9.930962   383A     10.046307   384A     10.060269  
     385A     10.066697   386A     10.080680   387A     10.183918  
     388A     10.216578   389A     10.246184   390A     10.273530  
     391A     10.448986   392A     10.467829   393A     10.488708  
     394A     10.541650   395A     11.327230   396A     11.342753  
     397A     11.468315   398A     11.586988   399A     11.890278  
     400A     11.929198   401A     11.963119   402A     11.970196  
     403A     12.297853   404A     12.415451   405A     12.517926  
     406A     12.626656   407A     13.767564   408A     13.800250  
     409A     13.878707   410A     13.913553   411A     13.930904  
     412A     14.107182   413A     14.160006   414A     14.189894  
     415A     66.064696   416A     66.135300   417A     66.476184  
     418A     67.104313  

    Final Occupation by Irrep:
              A 
    DOCC [     9 ]
    NA   [     9 ]
    NB   [     9 ]

  @DF-RHF Final Energy:  -459.57355663818419

   => Energetics <=

    Nuclear Repulsion Energy =              0.0000000000000000
    One-Electron Energy =                -641.1278983492240968
    Two-Electron Energy =                 181.5543417110398821
    Total Energy =                       -459.5735566381841863

Computation Completed


Properties will be evaluated at   0.000000,   0.000000,   0.000000 [a0]

Properties computed using the SCF density matrix


 Multipole Moments:

 ------------------------------------------------------------------------------------
     Multipole            Electronic (a.u.)      Nuclear  (a.u.)        Total (a.u.)
 ------------------------------------------------------------------------------------

 L = 1.  Multiply by 2.5417464519 to convert [e a0] to [Debye]
 Dipole X            :          0.0000345            0.0000000            0.0000345
 Dipole Y            :         -0.0001828            0.0000000           -0.0001828
 Dipole Z            :         -0.0004881            0.0000000           -0.0004881
 Magnitude           :                                                    0.0005224

 ------------------------------------------------------------------------------------

*** tstop() called on moses-razer at Sat Jan  6 23:03:04 2024
Module time:
	user time   =      22.00 seconds =       0.37 minutes
	system time =       0.91 seconds =       0.02 minutes
	total time  =          5 seconds =       0.08 minutes
Total time:
	user time   =      60.00 seconds =       1.00 minutes
	system time =       2.68 seconds =       0.04 minutes
	total time  =         12 seconds =       0.20 minutes

*** tstart() called on moses-razer
*** at Sat Jan  6 23:03:04 2024


  //>>>>>>>>>>>>>>>>>>>>>>>>>>>>>>>>>>>//
  //               DFMP2               //
  //<<<<<<<<<<<<<<<<<<<<<<<<<<<<<<<<<<<//

   => Loading Basis Set <=

    Name: (AUG-CC-PVTZ AUX)
    Role: RIFIT
    Keyword: DF_BASIS_MP2
    atoms 1                     entry CL         line   742 file /home/kchung25/anaconda3/envs/p415env/share/psi4/basis/aug-cc-pvtz-ri.gbs 
    atoms 2, 5, 8, 11           entry O          line   264 file /home/kchung25/anaconda3/envs/p415env/share/psi4/basis/aug-cc-pvtz-ri.gbs 
    atoms 3-4, 6-7, 9-10, 12-13 entry H          line    30 file /home/kchung25/anaconda3/envs/p415env/share/psi4/basis/aug-cc-pvtz-ri.gbs 

	 --------------------------------------------------------
	                          DF-MP2                         
	      2nd-Order Density-Fitted Moller-Plesset Theory     
	              RMP2 Wavefunction,   6 Threads             
	                                                         
	        Rob Parrish, Justin Turney, Andy Simmonett,      
	           Ed Hohenstein, and C. David Sherrill          
	 --------------------------------------------------------

   => Auxiliary Basis Set <=

  Basis Set: (AUG-CC-PVTZ AUX)
    Blend: AUG-CC-PVTZ-RI
    Number of shells: 261
    Number of basis functions: 939
    Number of Cartesian functions: 1175
    Spherical Harmonics?: true
    Max angular momentum: 4

	 --------------------------------------------------------
	                 NBF =   418, NAUX =   939
	 --------------------------------------------------------
	   CLASS    FOCC     OCC    AOCC    AVIR     VIR    FVIR
	   PAIRS       0       9       9     409     409       0
	 --------------------------------------------------------

	-----------------------------------------------------------
	 ==================> DF-MP2 Energies <==================== 
	-----------------------------------------------------------
	 Reference Energy          =    -459.5735566381841863 [Eh]
	 Singles Energy            =      -0.0000000000000000 [Eh]
	 Same-Spin Energy          =      -0.0632893488644583 [Eh]
	 Opposite-Spin Energy      =      -0.1827851631418588 [Eh]
	 Correlation Energy        =      -0.2460745120063171 [Eh]
	 Total Energy              =    -459.8196311501905029 [Eh]
	-----------------------------------------------------------
	 ================> DF-SCS-MP2 Energies <================== 
	-----------------------------------------------------------
	 SCS Same-Spin Scale       =       0.3333333333333333 [-]
	 SCS Opposite-Spin Scale   =       1.2000000000000000 [-]
	 SCS Same-Spin Energy      =      -0.0210964496214861 [Eh]
	 SCS Opposite-Spin Energy  =      -0.2193421957702306 [Eh]
	 SCS Correlation Energy    =      -0.2404386453917167 [Eh]
	 SCS Total Energy          =    -459.8139952835758777 [Eh]
	-----------------------------------------------------------


*** tstop() called on moses-razer at Sat Jan  6 23:03:06 2024
Module time:
	user time   =       7.83 seconds =       0.13 minutes
	system time =       0.48 seconds =       0.01 minutes
	total time  =          2 seconds =       0.03 minutes
Total time:
	user time   =      67.83 seconds =       1.13 minutes
	system time =       3.16 seconds =       0.05 minutes
	total time  =         14 seconds =       0.23 minutes

    Psi4 stopped on: Saturday, 06 January 2024 11:03PM
    Psi4 wall time for execution: 0:00:06.29


    -----------------------------------------------------------------------
          Psi4: An Open-Source Ab Initio Electronic Structure Package
                               Psi4 1.9 release

                         Git: Rev {} zzzzzzz 


    D. G. A. Smith, L. A. Burns, A. C. Simmonett, R. M. Parrish,
    M. C. Schieber, R. Galvelis, P. Kraus, H. Kruse, R. Di Remigio,
    A. Alenaizan, A. M. James, S. Lehtola, J. P. Misiewicz, M. Scheurer,
    R. A. Shaw, J. B. Schriber, Y. Xie, Z. L. Glick, D. A. Sirianni,
    J. S. O'Brien, J. M. Waldrop, A. Kumar, E. G. Hohenstein,
    B. P. Pritchard, B. R. Brooks, H. F. Schaefer III, A. Yu. Sokolov,
    K. Patkowski, A. E. DePrince III, U. Bozkaya, R. A. King,
    F. A. Evangelista, J. M. Turney, T. D. Crawford, C. D. Sherrill,
    J. Chem. Phys. 152(18) 184108 (2020). https://doi.org/10.1063/5.0006002

                            Additional Code Authors
    E. T. Seidl, C. L. Janssen, E. F. Valeev, M. L. Leininger,
    J. F. Gonthier, R. M. Richard, H. R. McAlexander, M. Saitow, X. Wang,
    P. Verma, M. H. Lechner, A. Jiang, S. Behnle, A. G. Heide,
    M. F. Herbst, and D. L. Poole

             Previous Authors, Complete List of Code Contributors,
                       and Citations for Specific Modules
    https://github.com/psi4/psi4/blob/master/codemeta.json
    https://github.com/psi4/psi4/graphs/contributors
    http://psicode.org/psi4manual/master/introduction.html#citing-psifour

    -----------------------------------------------------------------------


    Psi4 started on: Saturday, 06 January 2024 11:02PM

    Process ID: 559298
    Host:       moses-razer
    PSIDATADIR: /home/kchung25/anaconda3/envs/psi4_19/share/psi4
    Memory:     55.9 GiB
    Threads:    6
    
  ==> Input QCSchema <==

--------------------------------------------------------------------------
{'driver': 'energy',
 'extras': {'psiapi': True, 'wfn_qcvars_only': True},
 'id': None,
 'keywords': {'SCF_TYPE': 'DF', 'function_kwargs': {}},
 'model': {'basis': 'aug-cc-pvtz', 'method': 'mp2'},
 'molecule': {'atom_labels': ['', '', '', '', '', '', '', '', '', '', '', '', ''],
              'atomic_numbers': [17, 8, 1, 1, 8, 1, 1, 8, 1, 1, 8, 1, 1],
              'extras': {},
              'fix_com': True,
              'fix_orientation': True,
              'fix_symmetry': 'c1',
              'fragment_charges': [-1.0, 0.0],
              'fragment_multiplicities': [1, 1],
              'fragments': [[0], [1, 2, 3, 4, 5, 6, 7, 8, 9, 10, 11, 12]],
              'geometry': [0.0, 0.0, 0.0, 0.9894813862770989, -6.285828136454507, -0.5117926368316181,
                           2.5922507098580305, -6.693152933618565, -1.4211685326505596, 0.9829259263478857,
                           -4.561345332585087, -0.9168422037406254, -1.0696492376973963, -1.9183139022837543,
                           -5.398930532897886, -2.690367180017926, -2.765733237353435, -5.183734190909124,
                           -0.5828916925758434, -1.3936994736909047, -3.705533723792248, 3.3322901373008214,
                           2.756609639619725, -4.388794440069533, 2.721761200140157, 1.7220904105945896,
                           -2.987932904363143, 4.35572045342177, 1.6624241979093841, -5.2396285102479165,
                           -4.531234436502042, -3.415256673112922, 3.332197540720674, -2.8545257988103225,
                           -3.9945238709801374, 3.1349781633633933, -4.60083493942878, -2.4359703592826683,
                           1.8550156359854186],
              'mass_numbers': [35, 16, 1, 1, 16, 1, 1, 16, 1, 1, 16, 1, 1],
              'masses': [34.968852682, 15.99491461957, 1.00782503223, 1.00782503223, 15.99491461957, 1.00782503223,
                         1.00782503223, 15.99491461957, 1.00782503223, 1.00782503223, 15.99491461957, 1.00782503223,
                         1.00782503223],
              'molecular_charge': -1.0,
              'molecular_multiplicity': 1,
              'name': 'dimer',
              'provenance': {'creator': 'QCElemental',
                             'routine': 'qcelemental.molparse.from_string',
                             'version': '0.27.1'},
              'real': [True, True, True, True, True, True, True, True, True, True, True, True, True],
              'schema_name': 'qcschema_molecule',
              'schema_version': 2,
              'symbols': ['Cl', 'O', 'H', 'H', 'O', 'H', 'H', 'O', 'H', 'H', 'O', 'H', 'H'],
              'validated': True},
 'protocols': {'stdout': True},
 'provenance': {'creator': 'QCElemental', 'routine': 'qcelemental.models.results', 'version': '0.27.1'},
 'schema_name': 'qcschema_input',
 'schema_version': 1}
--------------------------------------------------------------------------

Scratch directory: /scratch/
   => Libint2 <=

    Primary   basis highest AM E, G, H:  5, 4, 3
    Auxiliary basis highest AM E, G, H:  6, 5, 4
    Onebody   basis highest AM E, G, H:  6, 5, 4
    Solid Harmonics ordering:            gaussian

*** tstart() called on moses-razer
*** at Sat Jan  6 23:03:06 2024

   => Loading Basis Set <=

    Name: AUG-CC-PVTZ
    Role: ORBITAL
    Keyword: BASIS
    atoms 1                     entry CL         line   988 file /home/kchung25/anaconda3/envs/p415env/share/psi4/basis/aug-cc-pvtz.gbs 
    atoms 2, 5, 8, 11           entry O          line   331 file /home/kchung25/anaconda3/envs/p415env/share/psi4/basis/aug-cc-pvtz.gbs 
    atoms 3-4, 6-7, 9-10, 12-13 entry H          line    40 file /home/kchung25/anaconda3/envs/p415env/share/psi4/basis/aug-cc-pvtz.gbs 


         ---------------------------------------------------------
                                   SCF
               by Justin Turney, Rob Parrish, Andy Simmonett
                          and Daniel G. A. Smith
                              RHF Reference
                        6 Threads,  57220 MiB Core
         ---------------------------------------------------------

  ==> Geometry <==

    Molecular point group: c1
    Full point group: C1

    Geometry (in Bohr), charge = -1, multiplicity = 1:

       Center              X                  Y                   Z               Mass       
    ------------   -----------------  -----------------  -----------------  -----------------
         CL           0.000000000000     0.000000000000     0.000000000000    34.968852682000
         O            0.989481386277    -6.285828136455    -0.511792636832    15.994914619570
         H            2.592250709858    -6.693152933619    -1.421168532651     1.007825032230
         H            0.982925926348    -4.561345332585    -0.916842203741     1.007825032230
         O           -1.069649237697    -1.918313902284    -5.398930532898    15.994914619570
         H           -2.690367180018    -2.765733237353    -5.183734190909     1.007825032230
         H           -0.582891692576    -1.393699473691    -3.705533723792     1.007825032230
         O            3.332290137301     2.756609639620    -4.388794440070    15.994914619570
         H            2.721761200140     1.722090410595    -2.987932904363     1.007825032230
         H            4.355720453422     1.662424197909    -5.239628510248     1.007825032230
         O           -4.531234436502    -3.415256673113     3.332197540721    15.994914619570
         H           -2.854525798810    -3.994523870980     3.134978163363     1.007825032230
         H           -4.600834939429    -2.435970359283     1.855015635985     1.007825032230

  Running in c1 symmetry.

  Rotational constants: A =      0.04972  B =      0.03275  C =      0.02428 [cm^-1]
  Rotational constants: A =   1490.53092  B =    981.95642  C =    727.91837 [MHz]
  Nuclear repulsion =  223.097860953133562

  Charge       = -1
  Multiplicity = 1
  Electrons    = 58
  Nalpha       = 29
  Nbeta        = 29

  ==> Algorithm <==

  SCF Algorithm Type is DF.
  DIIS enabled.
  MOM disabled.
  Fractional occupation disabled.
  Guess Type is SAD.
  Energy threshold   = 1.00e-08
  Density threshold  = 1.00e-08
  Integral threshold = 1.00e-12

  ==> Primary Basis <==

  Basis Set: AUG-CC-PVTZ
    Blend: AUG-CC-PVTZ
    Number of shells: 144
    Number of basis functions: 418
    Number of Cartesian functions: 479
    Spherical Harmonics?: true
    Max angular momentum: 3

   => Loading Basis Set <=

    Name: (AUG-CC-PVTZ AUX)
    Role: JKFIT
    Keyword: DF_BASIS_SCF
    atoms 1                     entry CL         line   816 file /home/kchung25/anaconda3/envs/p415env/share/psi4/basis/aug-cc-pvtz-jkfit.gbs 
    atoms 2, 5, 8, 11           entry O          line   286 file /home/kchung25/anaconda3/envs/p415env/share/psi4/basis/aug-cc-pvtz-jkfit.gbs 
    atoms 3-4, 6-7, 9-10, 12-13 entry H          line    70 file /home/kchung25/anaconda3/envs/p415env/share/psi4/basis/aug-cc-pvtz-jkfit.gbs 

  ==> Integral Setup <==

  DFHelper Memory: AOs need 1.134 GiB; user supplied 41.910 GiB. 
  Using in-core AOs.

  ==> MemDFJK: Density-Fitted J/K Matrices <==

    J tasked:                   Yes
    K tasked:                   Yes
    wK tasked:                   No
    OpenMP threads:               6
    Memory [MiB]:             42915
    Algorithm:                 Core
    Schwarz Cutoff:           1E-12
    Mask sparsity (%):      10.4038
    Fitting Condition:        1E-10

   => Auxiliary Basis Set <=

  Basis Set: (AUG-CC-PVTZ AUX)
    Blend: AUG-CC-PVTZ-JKFIT
    Number of shells: 274
    Number of basis functions: 930
    Number of Cartesian functions: 1144
    Spherical Harmonics?: true
    Max angular momentum: 4

  Minimum eigenvalue in the overlap matrix is 1.4700368630E-04.
  Reciprocal condition number of the overlap matrix is 1.2595813967E-05.
    Using symmetric orthogonalization.

  ==> Pre-Iterations <==

  SCF Guess: Superposition of Atomic Densities via on-the-fly atomic UHF (no occupation information).

   -------------------------
    Irrep   Nso     Nmo    
   -------------------------
     A        418     418 
   -------------------------
    Total     418     418
   -------------------------

  ==> Iterations <==

                           Total Energy        Delta E     RMS |[F,P]|

   @DF-RHF iter SAD:  -761.32992243589399   -7.61330e+02   0.00000e+00 
   @DF-RHF iter   1:  -763.50258809003390   -2.17267e+00   2.29731e-03 DIIS/ADIIS
   @DF-RHF iter   2:  -763.73134667424677   -2.28759e-01   1.52884e-03 DIIS/ADIIS
   @DF-RHF iter   3:  -763.85622743119018   -1.24881e-01   1.14088e-04 DIIS/ADIIS
   @DF-RHF iter   4:  -763.85793734607000   -1.70991e-03   4.08413e-05 DIIS
   @DF-RHF iter   5:  -763.85811882275084   -1.81477e-04   9.36542e-06 DIIS
   @DF-RHF iter   6:  -763.85813506363479   -1.62409e-05   3.15281e-06 DIIS
   @DF-RHF iter   7:  -763.85813661316456   -1.54953e-06   1.22878e-06 DIIS
   @DF-RHF iter   8:  -763.85813683697734   -2.23813e-07   2.89902e-07 DIIS
   @DF-RHF iter   9:  -763.85813685461392   -1.76366e-08   5.25887e-08 DIIS
   @DF-RHF iter  10:  -763.85813685521714   -6.03222e-10   1.36214e-08 DIIS
   @DF-RHF iter  11:  -763.85813685524454   -2.73985e-11   6.18900e-09 DIIS
  Energy and wave function converged.


  ==> Post-Iterations <==

    Orbital Energies [Eh]
    ---------------------

    Doubly Occupied:                                                      

       1A   -104.576853     2A    -20.435539     3A    -20.418786  
       4A    -20.405806     5A    -20.404372     6A    -10.301903  
       7A     -7.768021     8A     -7.767961     9A     -7.767904  
      10A     -1.220582    11A     -1.219832    12A     -1.207285  
      13A     -1.185470    14A     -0.819135    15A     -0.566177  
      16A     -0.565299    17A     -0.561394    18A     -0.552119  
      19A     -0.468531    20A     -0.460037    21A     -0.439155  
      22A     -0.427955    23A     -0.378871    24A     -0.368613  
      25A     -0.357330    26A     -0.348533    27A     -0.232359  
      28A     -0.231168    29A     -0.227241  

    Virtual:                                                              

      30A      0.115246    31A      0.132153    32A      0.133378  
      33A      0.151651    34A      0.158139    35A      0.166836  
      36A      0.186731    37A      0.196475    38A      0.241832  
      39A      0.251188    40A      0.261070    41A      0.262349  
      42A      0.266990    43A      0.275804    44A      0.284392  
      45A      0.288979    46A      0.293356    47A      0.300272  
      48A      0.304351    49A      0.312525    50A      0.321463  
      51A      0.333351    52A      0.340593    53A      0.345890  
      54A      0.353379    55A      0.361649    56A      0.366773  
      57A      0.371648    58A      0.384744    59A      0.389675  
      60A      0.413244    61A      0.419394    62A      0.429356  
      63A      0.436578    64A      0.439654    65A      0.453638  
      66A      0.462546    67A      0.471747    68A      0.481657  
      69A      0.491961    70A      0.497993    71A      0.499984  
      72A      0.504123    73A      0.527185    74A      0.533249  
      75A      0.550261    76A      0.551362    77A      0.564398  
      78A      0.570098    79A      0.575039    80A      0.597390  
      81A      0.599980    82A      0.613258    83A      0.628537  
      84A      0.642969    85A      0.647755    86A      0.661318  
      87A      0.676757    88A      0.687924    89A      0.703263  
      90A      0.724155    91A      0.732372    92A      0.735727  
      93A      0.738936    94A      0.758050    95A      0.777227  
      96A      0.802860    97A      0.811506    98A      0.833584  
      99A      0.845703   100A      0.852698   101A      0.863630  
     102A      0.868758   103A      0.874136   104A      0.881816  
     105A      0.889596   106A      0.893704   107A      0.896315  
     108A      0.910080   109A      0.915084   110A      0.925602  
     111A      0.930139   112A      0.941176   113A      0.945651  
     114A      0.965395   115A      0.986175   116A      0.995143  
     117A      1.013419   118A      1.017604   119A      1.023644  
     120A      1.029781   121A      1.036936   122A      1.045730  
     123A      1.051213   124A      1.054360   125A      1.067090  
     126A      1.071285   127A      1.084380   128A      1.090328  
     129A      1.094326   130A      1.111416   131A      1.116513  
     132A      1.120293   133A      1.123624   134A      1.136194  
     135A      1.139839   136A      1.147065   137A      1.150636  
     138A      1.159956   139A      1.161626   140A      1.180480  
     141A      1.182691   142A      1.188999   143A      1.205368  
     144A      1.206549   145A      1.217097   146A      1.223102  
     147A      1.225812   148A      1.245590   149A      1.262183  
     150A      1.267576   151A      1.275850   152A      1.294882  
     153A      1.304804   154A      1.311162   155A      1.317363  
     156A      1.325939   157A      1.330503   158A      1.347636  
     159A      1.358403   160A      1.374077   161A      1.382842  
     162A      1.399515   163A      1.402123   164A      1.415366  
     165A      1.425344   166A      1.441671   167A      1.446002  
     168A      1.457498   169A      1.473565   170A      1.490392  
     171A      1.504778   172A      1.523326   173A      1.537968  
     174A      1.552352   175A      1.567888   176A      1.571023  
     177A      1.579963   178A      1.597036   179A      1.635342  
     180A      1.650867   181A      1.681130   182A      1.689511  
     183A      1.710865   184A      1.717111   185A      1.725865  
     186A      1.734301   187A      1.742129   188A      1.750734  
     189A      1.768523   190A      1.795294   191A      1.807307  
     192A      1.812118   193A      1.832513   194A      1.868632  
     195A      1.883321   196A      1.889010   197A      1.908338  
     198A      1.927780   199A      1.943088   200A      1.973038  
     201A      1.990250   202A      2.008310   203A      2.022251  
     204A      2.074907   205A      2.083992   206A      2.118963  
     207A      2.139752   208A      2.160406   209A      2.167519  
     210A      2.188620   211A      2.212446   212A      2.230568  
     213A      2.283963   214A      2.307953   215A      2.362906  
     216A      2.425279   217A      2.459257   218A      2.467167  
     219A      2.485155   220A      2.486413   221A      2.509706  
     222A      2.530871   223A      2.540540   224A      2.546008  
     225A      2.554757   226A      2.580120   227A      2.581136  
     228A      2.613544   229A      2.617513   230A      2.625812  
     231A      2.637891   232A      2.649341   233A      2.656594  
     234A      2.666590   235A      2.680624   236A      2.698060  
     237A      2.707252   238A      2.726882   239A      2.738260  
     240A      2.744992   241A      2.758223   242A      2.776173  
     243A      2.782747   244A      2.794463   245A      2.822118  
     246A      2.831900   247A      2.853672   248A      2.870816  
     249A      2.897202   250A      2.905814   251A      2.919437  
     252A      2.934666   253A      2.937172   254A      2.944849  
     255A      2.967916   256A      2.991526   257A      3.006551  
     258A      3.019043   259A      3.027275   260A      3.048938  
     261A      3.054480   262A      3.062663   263A      3.093875  
     264A      3.096616   265A      3.111355   266A      3.126097  
     267A      3.142213   268A      3.152531   269A      3.210370  
     270A      3.226598   271A      3.279665   272A      3.373741  
     273A      3.458662   274A      3.487305   275A      3.512173  
     276A      3.564291   277A      3.594612   278A      3.628809  
     279A      3.712829   280A      3.742716   281A      3.805951  
     282A      3.846957   283A      3.897968   284A      3.934252  
     285A      3.948903   286A      3.956010   287A      4.050767  
     288A      4.119929   289A      4.234058   290A      4.247396  
     291A      4.269412   292A      4.281781   293A      4.287457  
     294A      4.296425   295A      4.299801   296A      4.350624  
     297A      4.361614   298A      4.381050   299A      4.398889  
     300A      4.430182   301A      4.439611   302A      4.452896  
     303A      4.473032   304A      4.480743   305A      4.485851  
     306A      4.505710   307A      4.513321   308A      4.518067  
     309A      4.540694   310A      4.555010   311A      4.562888  
     312A      4.566240   313A      4.575325   314A      4.591489  
     315A      4.599259   316A      4.616268   317A      4.635636  
     318A      4.649930   319A      4.665994   320A      4.693999  
     321A      4.733090   322A      4.766241   323A      4.789427  
     324A      4.841858   325A      4.878430   326A      4.932653  
     327A      4.951995   328A      4.981882   329A      4.999860  
     330A      5.095698   331A      5.116213   332A      5.141797  
     333A      5.189234   334A      5.252347   335A      5.304079  
     336A      5.335080   337A      5.351616   338A      5.365750  
     339A      5.385033   340A      5.395634   341A      5.408828  
     342A      5.455564   343A      5.469723   344A      5.484507  
     345A      5.500314   346A      5.564194   347A      5.585425  
     348A      5.593220   349A      5.686603   350A      5.692718  
     351A      5.714494   352A      5.762946   353A      5.786097  
     354A      5.805062   355A      5.809087   356A      5.880262  
     357A      5.912584   358A      6.396284   359A      6.449251  
     360A      6.459911   361A      6.463000   362A      6.654134  
     363A      6.685138   364A      6.713369   365A      6.745760  
     366A      6.899834   367A      6.925750   368A      6.969991  
     369A      6.973789   370A      7.107615   371A      7.169229  
     372A      7.179165   373A      7.209955   374A      7.232375  
     375A      7.248939   376A      7.311019   377A      7.331515  
     378A      7.338607   379A      7.356247   380A      7.424225  
     381A      7.454900   382A      7.461103   383A      7.470216  
     384A      7.480366   385A      7.490037   386A      7.502275  
     387A      7.510058   388A      7.513399   389A      7.519562  
     390A      7.560393   391A      7.564629   392A      7.587292  
     393A      7.590795   394A      7.603605   395A      7.621957  
     396A      7.645102   397A      7.649630   398A      7.688968  
     399A      7.770983   400A      7.809683   401A      7.875001  
     402A      7.914925   403A      8.010947   404A      8.058480  
     405A      8.120102   406A      8.126155   407A      8.170081  
     408A      8.198955   409A      8.228110   410A      8.264949  
     411A      8.954488   412A      8.978240   413A      9.093121  
     414A      9.127149   415A     16.483006   416A     16.633745  
     417A     16.700800   418A     17.105658  

    Final Occupation by Irrep:
              A 
    DOCC [    29 ]
    NA   [    29 ]
    NB   [    29 ]

  @DF-RHF Final Energy:  -763.85813685524454

   => Energetics <=

    Nuclear Repulsion Energy =            223.0978609531335621
    One-Electron Energy =               -1510.5435317611620576
    Two-Electron Energy =                 523.5875339527840424
    Total Energy =                       -763.8581368552445383

Computation Completed


Properties will be evaluated at   0.000000,   0.000000,   0.000000 [a0]

Properties computed using the SCF density matrix


 Multipole Moments:

 ------------------------------------------------------------------------------------
     Multipole            Electronic (a.u.)      Nuclear  (a.u.)        Total (a.u.)
 ------------------------------------------------------------------------------------

 L = 1.  Multiply by 2.5417464519 to convert [e a0] to [Debye]
 Dipole X            :         11.1042471          -10.3088585            0.7953885
 Dipole Y            :         89.5847650          -89.3622232            0.2225418
 Dipole Z            :         70.6190831          -70.2034068            0.4156763
 Magnitude           :                                                    0.9246376

 ------------------------------------------------------------------------------------

*** tstop() called on moses-razer at Sat Jan  6 23:03:11 2024
Module time:
	user time   =      31.24 seconds =       0.52 minutes
	system time =       1.21 seconds =       0.02 minutes
	total time  =          5 seconds =       0.08 minutes
Total time:
	user time   =      99.41 seconds =       1.66 minutes
	system time =       4.37 seconds =       0.07 minutes
	total time  =         19 seconds =       0.32 minutes

*** tstart() called on moses-razer
*** at Sat Jan  6 23:03:11 2024


  //>>>>>>>>>>>>>>>>>>>>>>>>>>>>>>>>>>>//
  //               DFMP2               //
  //<<<<<<<<<<<<<<<<<<<<<<<<<<<<<<<<<<<//

   => Loading Basis Set <=

    Name: (AUG-CC-PVTZ AUX)
    Role: RIFIT
    Keyword: DF_BASIS_MP2
    atoms 1                     entry CL         line   742 file /home/kchung25/anaconda3/envs/p415env/share/psi4/basis/aug-cc-pvtz-ri.gbs 
    atoms 2, 5, 8, 11           entry O          line   264 file /home/kchung25/anaconda3/envs/p415env/share/psi4/basis/aug-cc-pvtz-ri.gbs 
    atoms 3-4, 6-7, 9-10, 12-13 entry H          line    30 file /home/kchung25/anaconda3/envs/p415env/share/psi4/basis/aug-cc-pvtz-ri.gbs 

	 --------------------------------------------------------
	                          DF-MP2                         
	      2nd-Order Density-Fitted Moller-Plesset Theory     
	              RMP2 Wavefunction,   6 Threads             
	                                                         
	        Rob Parrish, Justin Turney, Andy Simmonett,      
	           Ed Hohenstein, and C. David Sherrill          
	 --------------------------------------------------------

   => Auxiliary Basis Set <=

  Basis Set: (AUG-CC-PVTZ AUX)
    Blend: AUG-CC-PVTZ-RI
    Number of shells: 261
    Number of basis functions: 939
    Number of Cartesian functions: 1175
    Spherical Harmonics?: true
    Max angular momentum: 4

	 --------------------------------------------------------
	                 NBF =   418, NAUX =   939
	 --------------------------------------------------------
	   CLASS    FOCC     OCC    AOCC    AVIR     VIR    FVIR
	   PAIRS       0      29      29     389     389       0
	 --------------------------------------------------------

	-----------------------------------------------------------
	 ==================> DF-MP2 Energies <==================== 
	-----------------------------------------------------------
	 Reference Energy          =    -763.8581368552445383 [Eh]
	 Singles Energy            =      -0.0000000000000000 [Eh]
	 Same-Spin Energy          =      -0.3451890548211949 [Eh]
	 Opposite-Spin Energy      =      -1.0526556886520291 [Eh]
	 Correlation Energy        =      -1.3978447434732240 [Eh]
	 Total Energy              =    -765.2559815987177672 [Eh]
	-----------------------------------------------------------
	 ================> DF-SCS-MP2 Energies <================== 
	-----------------------------------------------------------
	 SCS Same-Spin Scale       =       0.3333333333333333 [-]
	 SCS Opposite-Spin Scale   =       1.2000000000000000 [-]
	 SCS Same-Spin Energy      =      -0.1150630182737316 [Eh]
	 SCS Opposite-Spin Energy  =      -1.2631868263824348 [Eh]
	 SCS Correlation Energy    =      -1.3782498446561664 [Eh]
	 SCS Total Energy          =    -765.2363866999006632 [Eh]
	-----------------------------------------------------------


*** tstop() called on moses-razer at Sat Jan  6 23:03:14 2024
Module time:
	user time   =      12.87 seconds =       0.21 minutes
	system time =       0.72 seconds =       0.01 minutes
	total time  =          3 seconds =       0.05 minutes
Total time:
	user time   =     112.28 seconds =       1.87 minutes
	system time =       5.09 seconds =       0.08 minutes
	total time  =         22 seconds =       0.37 minutes

    Psi4 stopped on: Saturday, 06 January 2024 11:03PM
    Psi4 wall time for execution: 0:00:08.73


  //>>>>>>>>>>>>>>>>>>>>>>>>>>>>>>>>>>>//
  //          ManyBody Results         //
  //<<<<<<<<<<<<<<<<<<<<<<<<<<<<<<<<<<<//


   ==> N-Body: Counterpoise Corrected (CP) energies <==

        n-Body     Total Energy            Interaction Energy                          N-body Contribution to Interaction Energy
                   [Eh]                    [Eh]                  [kcal/mol]            [Eh]                  [kcal/mol]
             1  N/A                         0.000000000000        0.000000000000        0.000000000000        0.000000000000
  FULL/RTN   2  N/A                        -0.070104212364      -43.991057410025       -0.070104212364      -43.991057410025


    Psi4 stopped on: Saturday, 06 January 2024 11:03PM
    Psi4 wall time for execution: 0:00:24.37

*** Psi4 exiting successfully. Buy a developer a beer!
