
    -----------------------------------------------------------------------
          Psi4: An Open-Source Ab Initio Electronic Structure Package
                               Psi4 1.8.2 release

                         Git: Rev {} zzzzzzz 


    D. G. A. Smith, L. A. Burns, A. C. Simmonett, R. M. Parrish,
    M. C. Schieber, R. Galvelis, P. Kraus, H. Kruse, R. Di Remigio,
    A. Alenaizan, A. M. James, S. Lehtola, J. P. Misiewicz, M. Scheurer,
    R. A. Shaw, J. B. Schriber, Y. Xie, Z. L. Glick, D. A. Sirianni,
    J. S. O'Brien, J. M. Waldrop, A. Kumar, E. G. Hohenstein,
    B. P. Pritchard, B. R. Brooks, H. F. Schaefer III, A. Yu. Sokolov,
    K. Patkowski, A. E. DePrince III, U. Bozkaya, R. A. King,
    F. A. Evangelista, J. M. Turney, T. D. Crawford, C. D. Sherrill,
    J. Chem. Phys. 152(18) 184108 (2020). https://doi.org/10.1063/5.0006002

                            Additional Code Authors
    E. T. Seidl, C. L. Janssen, E. F. Valeev, M. L. Leininger,
    J. F. Gonthier, R. M. Richard, H. R. McAlexander, M. Saitow, X. Wang,
    P. Verma, M. H. Lechner, A. Jiang, S. Behnle, A. G. Heide,
    M. F. Herbst, and D. L. Poole

             Previous Authors, Complete List of Code Contributors,
                       and Citations for Specific Modules
    https://github.com/psi4/psi4/blob/master/codemeta.json
    https://github.com/psi4/psi4/graphs/contributors
    http://psicode.org/psi4manual/master/introduction.html#citing-psifour

    -----------------------------------------------------------------------


    Psi4 started on: Monday, 22 January 2024 09:09PM

    Process ID: 107621
    Host:       ddmfs1
    PSIDATADIR: /ddmfs1b/softs/psi4conda/share/psi4
    Memory:     500.0 MiB
    Threads:    20
    
  ==> Input File <==

--------------------------------------------------------------------------
MEMORY 60 GB

molecule dimer {
0 1
Gh(Cl)     0.000000     0.000000     0.000000
Gh(O)      0.024502     3.145214    -1.100846
Gh(H)     -0.079884     2.231023    -0.803905
Gh(H)     -0.839084     3.515903    -1.288931
Gh(O)     -3.198150     0.573138    -0.927404
Gh(H)     -2.286936     0.664904    -0.721780
Gh(H)     -3.628705     0.671446    -0.059234
O         -0.392662    -2.420613    -2.381684
H         -0.078206    -1.721059    -1.745198
H          0.148491    -2.349436    -3.168547
Gh(O)     -0.516218     0.741767    -3.194309
Gh(H)      0.316690     0.901052    -3.635347
Gh(H)     -0.443624     0.828168    -2.261763
Gh(O)     -1.018909     1.789826     2.097121
Gh(H)     -0.949530     2.709738     1.735634
Gh(H)     -0.639964     1.169711     1.486154
Gh(O)      2.936787     0.437537     1.380431
Gh(H)      2.845975    -0.128141     2.146149
Gh(H)      2.378137     0.108698     0.647245

units ang
no_reorient
no_com
symmetry c1
}

set {
basis        aug-cc-pVTZ
scf_type     df
}

energy("mp2")
--------------------------------------------------------------------------

  Memory set to  55.879 GiB by Python driver.

Scratch directory: /ddmfs1a/scratch/
   => Libint2 <=

    Primary   basis highest AM E, G, H:  5, 4, 3
    Auxiliary basis highest AM E, G, H:  6, 5, 4
    Onebody   basis highest AM E, G, H:  6, 5, 4
    Solid Harmonics ordering:            gaussian

*** tstart() called on ddmfs1
*** at Mon Jan 22 21:09:45 2024

   => Loading Basis Set <=

    Name: AUG-CC-PVTZ
    Role: ORBITAL
    Keyword: BASIS
    atoms 1                                   entry CL         line   988 file /ddmfs1b/softs/psi4conda/share/psi4/basis/aug-cc-pvtz.gbs 
    atoms 2, 5, 8, 11, 14, 17                 entry O          line   331 file /ddmfs1b/softs/psi4conda/share/psi4/basis/aug-cc-pvtz.gbs 
    atoms 3-4, 6-7, 9-10, 12-13, 15-16, 18-19 entry H          line    40 file /ddmfs1b/softs/psi4conda/share/psi4/basis/aug-cc-pvtz.gbs 


         ---------------------------------------------------------
                                   SCF
               by Justin Turney, Rob Parrish, Andy Simmonett
                          and Daniel G. A. Smith
                              RHF Reference
                       20 Threads,  57220 MiB Core
         ---------------------------------------------------------

  ==> Geometry <==

    Molecular point group: c1
    Full point group: C1

    Geometry (in Angstrom), charge = 0, multiplicity = 1:

       Center              X                  Y                   Z               Mass       
    ------------   -----------------  -----------------  -----------------  -----------------
      Gh(CL)          0.000000000000     0.000000000000     0.000000000000    34.968852682000
      Gh(O)           0.024502000000     3.145214000000    -1.100846000000    15.994914619570
      Gh(H)          -0.079884000000     2.231023000000    -0.803905000000     1.007825032230
      Gh(H)          -0.839084000000     3.515903000000    -1.288931000000     1.007825032230
      Gh(O)          -3.198150000000     0.573138000000    -0.927404000000    15.994914619570
      Gh(H)          -2.286936000000     0.664904000000    -0.721780000000     1.007825032230
      Gh(H)          -3.628705000000     0.671446000000    -0.059234000000     1.007825032230
         O           -0.392662000000    -2.420613000000    -2.381684000000    15.994914619570
         H           -0.078206000000    -1.721059000000    -1.745198000000     1.007825032230
         H            0.148491000000    -2.349436000000    -3.168547000000     1.007825032230
      Gh(O)          -0.516218000000     0.741767000000    -3.194309000000    15.994914619570
      Gh(H)           0.316690000000     0.901052000000    -3.635347000000     1.007825032230
      Gh(H)          -0.443624000000     0.828168000000    -2.261763000000     1.007825032230
      Gh(O)          -1.018909000000     1.789826000000     2.097121000000    15.994914619570
      Gh(H)          -0.949530000000     2.709738000000     1.735634000000     1.007825032230
      Gh(H)          -0.639964000000     1.169711000000     1.486154000000     1.007825032230
      Gh(O)           2.936787000000     0.437537000000     1.380431000000    15.994914619570
      Gh(H)           2.845975000000    -0.128141000000     2.146149000000     1.007825032230
      Gh(H)           2.378137000000     0.108698000000     0.647245000000     1.007825032230

  Running in c1 symmetry.

  Rotational constants: A =      0.02733  B =      0.02219  C =      0.01825 [cm^-1]
  Rotational constants: A =    819.46482  B =    665.23699  C =    547.25216 [MHz]
  Nuclear repulsion =    9.004772606623151

  Charge       = 0
  Multiplicity = 1
  Electrons    = 10
  Nalpha       = 5
  Nbeta        = 5

  ==> Algorithm <==

  SCF Algorithm Type is DF.
  DIIS enabled.
  MOM disabled.
  Fractional occupation disabled.
  Guess Type is SAD.
  Energy threshold   = 1.00e-08
  Density threshold  = 1.00e-08
  Integral threshold = 1.00e-12

  ==> Primary Basis <==

  Basis Set: AUG-CC-PVTZ
    Blend: AUG-CC-PVTZ
    Number of shells: 208
    Number of basis functions: 602
    Number of Cartesian functions: 689
    Spherical Harmonics?: true
    Max angular momentum: 3

   => Loading Basis Set <=

    Name: (AUG-CC-PVTZ AUX)
    Role: JKFIT
    Keyword: DF_BASIS_SCF
    atoms 1                                   entry CL         line   816 file /ddmfs1b/softs/psi4conda/share/psi4/basis/aug-cc-pvtz-jkfit.gbs 
    atoms 2, 5, 8, 11, 14, 17                 entry O          line   286 file /ddmfs1b/softs/psi4conda/share/psi4/basis/aug-cc-pvtz-jkfit.gbs 
    atoms 3-4, 6-7, 9-10, 12-13, 15-16, 18-19 entry H          line    70 file /ddmfs1b/softs/psi4conda/share/psi4/basis/aug-cc-pvtz-jkfit.gbs 

  ==> Integral Setup <==

  DFHelper Memory: AOs need 3.225 GiB; user supplied 41.910 GiB. 
  Using in-core AOs.

  ==> MemDFJK: Density-Fitted J/K Matrices <==

    J tasked:                   Yes
    K tasked:                   Yes
    wK tasked:                   No
    OpenMP threads:              20
    Memory [MiB]:             42915
    Algorithm:                 Core
    Schwarz Cutoff:           1E-12
    Mask sparsity (%):      13.5848
    Fitting Condition:        1E-10

   => Auxiliary Basis Set <=

  Basis Set: (AUG-CC-PVTZ AUX)
    Blend: AUG-CC-PVTZ-JKFIT
    Number of shells: 390
    Number of basis functions: 1322
    Number of Cartesian functions: 1626
    Spherical Harmonics?: true
    Max angular momentum: 4

  Minimum eigenvalue in the overlap matrix is 9.8882527134E-05.
  Reciprocal condition number of the overlap matrix is 6.8535441550E-06.
    Using symmetric orthogonalization.

  ==> Pre-Iterations <==

  SCF Guess: Superposition of Atomic Densities via on-the-fly atomic UHF (no occupation information).

   -------------------------
    Irrep   Nso     Nmo    
   -------------------------
     A        602     602 
   -------------------------
    Total     602     602
   -------------------------

  ==> Iterations <==

                           Total Energy        Delta E     RMS |[F,P]|

   @DF-RHF iter SAD:   -75.45197592986217   -7.54520e+01   0.00000e+00 
   @DF-RHF iter   1:   -75.97278727043312   -5.20811e-01   7.76468e-04 ADIIS/DIIS
   @DF-RHF iter   2:   -76.02471069303239   -5.19234e-02   5.38792e-04 ADIIS/DIIS
   @DF-RHF iter   3:   -76.05739719133206   -3.26865e-02   3.67784e-05 DIIS
   @DF-RHF iter   4:   -76.05781813910603   -4.20948e-04   9.18130e-06 DIIS
   @DF-RHF iter   5:   -76.05784697649908   -2.88374e-05   2.12643e-06 DIIS
   @DF-RHF iter   6:   -76.05784943678313   -2.46028e-06   4.75011e-07 DIIS
   @DF-RHF iter   7:   -76.05784957117451   -1.34391e-07   8.69228e-08 DIIS
   @DF-RHF iter   8:   -76.05784957509351   -3.91900e-09   1.49001e-08 DIIS
   @DF-RHF iter   9:   -76.05784957518769   -9.41753e-11   3.89367e-09 DIIS
  Energy and wave function converged.


  ==> Post-Iterations <==

    Orbital Energies [Eh]
    ---------------------

    Doubly Occupied:                                                      

       1A    -20.569328     2A     -1.342063     3A     -0.711890  
       4A     -0.575917     5A     -0.507967  

    Virtual:                                                              

       6A      0.014244     7A      0.029284     8A      0.032423  
       9A      0.039876    10A      0.051466    11A      0.054577  
      12A      0.056462    13A      0.060589    14A      0.067245  
      15A      0.073553    16A      0.081438    17A      0.092422  
      18A      0.101871    19A      0.110978    20A      0.123701  
      21A      0.129327    22A      0.134660    23A      0.143107  
      24A      0.146393    25A      0.150150    26A      0.150364  
      27A      0.153754    28A      0.162145    29A      0.169701  
      30A      0.172733    31A      0.181119    32A      0.184834  
      33A      0.190371    34A      0.194082    35A      0.197895  
      36A      0.201019    37A      0.204113    38A      0.212057  
      39A      0.223920    40A      0.229559    41A      0.235091  
      42A      0.236570    43A      0.245118    44A      0.248032  
      45A      0.254763    46A      0.265625    47A      0.272116  
      48A      0.278214    49A      0.293727    50A      0.302671  
      51A      0.309102    52A      0.311503    53A      0.313484  
      54A      0.318110    55A      0.324937    56A      0.330817  
      57A      0.336551    58A      0.341631    59A      0.346486  
      60A      0.355476    61A      0.358942    62A      0.366088  
      63A      0.369830    64A      0.378336    65A      0.383742  
      66A      0.386915    67A      0.391798    68A      0.396558  
      69A      0.401166    70A      0.406253    71A      0.408863  
      72A      0.415880    73A      0.425565    74A      0.433118  
      75A      0.435214    76A      0.442977    77A      0.445510  
      78A      0.454996    79A      0.458062    80A      0.465241  
      81A      0.469968    82A      0.470463    83A      0.482818  
      84A      0.503296    85A      0.510986    86A      0.516034  
      87A      0.521893    88A      0.532260    89A      0.545838  
      90A      0.559503    91A      0.569636    92A      0.582879  
      93A      0.603370    94A      0.620525    95A      0.630767  
      96A      0.640775    97A      0.647210    98A      0.661501  
      99A      0.677616   100A      0.681160   101A      0.688324  
     102A      0.693883   103A      0.702953   104A      0.712445  
     105A      0.714537   106A      0.721682   107A      0.728877  
     108A      0.737258   109A      0.744478   110A      0.755886  
     111A      0.759930   112A      0.768756   113A      0.774024  
     114A      0.781200   115A      0.787598   116A      0.793445  
     117A      0.805829   118A      0.812726   119A      0.813700  
     120A      0.816939   121A      0.823128   122A      0.825930  
     123A      0.838285   124A      0.840473   125A      0.848034  
     126A      0.850254   127A      0.855864   128A      0.860975  
     129A      0.867039   130A      0.871950   131A      0.879955  
     132A      0.884110   133A      0.886524   134A      0.893375  
     135A      0.895614   136A      0.902604   137A      0.908269  
     138A      0.912982   139A      0.919389   140A      0.924188  
     141A      0.927319   142A      0.931709   143A      0.943820  
     144A      0.950753   145A      0.955149   146A      0.957317  
     147A      0.965413   148A      0.971604   149A      0.981084  
     150A      0.986332   151A      0.993834   152A      0.996915  
     153A      1.005025   154A      1.006742   155A      1.014655  
     156A      1.017897   157A      1.026376   158A      1.033958  
     159A      1.042008   160A      1.043466   161A      1.045573  
     162A      1.050673   163A      1.056182   164A      1.072780  
     165A      1.082757   166A      1.089463   167A      1.098083  
     168A      1.106997   169A      1.111797   170A      1.115072  
     171A      1.121848   172A      1.131229   173A      1.146829  
     174A      1.155207   175A      1.156694   176A      1.165477  
     177A      1.169589   178A      1.181275   179A      1.190757  
     180A      1.195279   181A      1.203279   182A      1.214774  
     183A      1.218563   184A      1.224739   185A      1.235032  
     186A      1.238656   187A      1.246035   188A      1.249840  
     189A      1.257890   190A      1.265946   191A      1.276178  
     192A      1.285431   193A      1.296862   194A      1.308734  
     195A      1.314960   196A      1.327447   197A      1.330035  
     198A      1.345055   199A      1.355575   200A      1.371705  
     201A      1.377494   202A      1.381349   203A      1.387179  
     204A      1.396245   205A      1.412689   206A      1.420952  
     207A      1.434650   208A      1.442442   209A      1.459923  
     210A      1.476123   211A      1.483860   212A      1.494473  
     213A      1.512266   214A      1.519340   215A      1.533695  
     216A      1.541061   217A      1.552125   218A      1.561093  
     219A      1.571628   220A      1.583182   221A      1.592258  
     222A      1.596244   223A      1.608917   224A      1.624989  
     225A      1.636557   226A      1.638496   227A      1.669614  
     228A      1.675499   229A      1.707433   230A      1.714535  
     231A      1.719718   232A      1.724113   233A      1.734202  
     234A      1.746861   235A      1.758137   236A      1.764433  
     237A      1.781380   238A      1.786560   239A      1.801458  
     240A      1.806940   241A      1.811696   242A      1.818936  
     243A      1.826821   244A      1.836799   245A      1.852592  
     246A      1.859015   247A      1.862054   248A      1.873585  
     249A      1.883965   250A      1.889704   251A      1.902337  
     252A      1.913300   253A      1.922515   254A      1.931744  
     255A      1.945557   256A      1.953360   257A      1.975765  
     258A      1.981547   259A      2.003298   260A      2.016073  
     261A      2.034037   262A      2.038364   263A      2.042713  
     264A      2.063913   265A      2.073427   266A      2.090778  
     267A      2.104906   268A      2.112732   269A      2.133220  
     270A      2.148084   271A      2.155712   272A      2.188883  
     273A      2.192116   274A      2.232846   275A      2.248796  
     276A      2.283974   277A      2.305104   278A      2.332318  
     279A      2.348848   280A      2.377431   281A      2.402446  
     282A      2.434867   283A      2.448635   284A      2.468838  
     285A      2.488378   286A      2.494984   287A      2.501505  
     288A      2.502433   289A      2.520064   290A      2.525034  
     291A      2.534248   292A      2.542287   293A      2.552203  
     294A      2.566330   295A      2.574879   296A      2.584751  
     297A      2.587580   298A      2.597887   299A      2.602677  
     300A      2.610597   301A      2.626183   302A      2.634476  
     303A      2.651539   304A      2.661611   305A      2.680800  
     306A      2.691866   307A      2.699438   308A      2.704997  
     309A      2.709605   310A      2.734498   311A      2.745525  
     312A      2.758634   313A      2.772777   314A      2.777376  
     315A      2.792785   316A      2.807221   317A      2.810116  
     318A      2.827684   319A      2.840536   320A      2.851750  
     321A      2.864528   322A      2.868437   323A      2.887255  
     324A      2.903479   325A      2.909664   326A      2.923818  
     327A      2.930023   328A      2.948153   329A      2.957798  
     330A      2.976190   331A      2.998943   332A      3.030181  
     333A      3.033161   334A      3.058918   335A      3.082581  
     336A      3.109196   337A      3.125237   338A      3.194540  
     339A      3.201502   340A      3.207305   341A      3.221498  
     342A      3.226022   343A      3.243781   344A      3.255866  
     345A      3.261776   346A      3.279504   347A      3.289016  
     348A      3.308307   349A      3.319830   350A      3.356436  
     351A      3.390763   352A      3.407267   353A      3.418731  
     354A      3.449371   355A      3.471723   356A      3.493712  
     357A      3.524449   358A      3.549790   359A      3.573519  
     360A      3.600688   361A      3.611831   362A      3.627517  
     363A      3.659738   364A      3.675710   365A      3.701342  
     366A      3.709421   367A      3.714599   368A      3.749411  
     369A      3.766466   370A      3.859118   371A      3.874031  
     372A      3.913522   373A      3.931614   374A      3.982162  
     375A      4.098634   376A      4.172100   377A      4.216330  
     378A      4.231050   379A      4.253254   380A      4.272705  
     381A      4.292254   382A      4.309098   383A      4.355537  
     384A      4.362976   385A      4.384807   386A      4.393289  
     387A      4.402239   388A      4.409290   389A      4.420761  
     390A      4.441450   391A      4.450186   392A      4.465542  
     393A      4.479240   394A      4.487554   395A      4.490417  
     396A      4.506110   397A      4.514955   398A      4.521094  
     399A      4.524413   400A      4.554431   401A      4.563112  
     402A      4.571125   403A      4.596800   404A      4.616069  
     405A      4.624873   406A      4.628915   407A      4.651151  
     408A      4.661588   409A      4.666743   410A      4.668969  
     411A      4.674886   412A      4.681606   413A      4.705509  
     414A      4.717568   415A      4.737563   416A      4.755264  
     417A      4.762834   418A      4.769669   419A      4.779043  
     420A      4.804100   421A      4.843818   422A      4.854213  
     423A      4.883044   424A      4.888186   425A      4.909307  
     426A      4.922727   427A      4.936275   428A      4.944221  
     429A      4.946067   430A      4.971143   431A      4.974926  
     432A      4.996410   433A      5.018868   434A      5.042055  
     435A      5.064391   436A      5.069953   437A      5.092627  
     438A      5.106101   439A      5.115226   440A      5.134865  
     441A      5.139501   442A      5.152285   443A      5.167818  
     444A      5.178809   445A      5.199451   446A      5.223937  
     447A      5.237235   448A      5.249500   449A      5.283891  
     450A      5.325754   451A      5.338312   452A      5.362466  
     453A      5.390250   454A      5.412780   455A      5.473915  
     456A      5.495684   457A      5.515563   458A      5.536484  
     459A      5.545628   460A      5.567065   461A      5.582060  
     462A      5.609989   463A      5.620729   464A      5.645206  
     465A      5.649302   466A      5.677210   467A      5.683949  
     468A      5.709355   469A      5.729216   470A      5.747508  
     471A      5.759071   472A      5.782778   473A      5.827967  
     474A      5.840216   475A      5.887390   476A      5.941391  
     477A      5.993330   478A      6.152042   479A      6.180397  
     480A      6.214516   481A      6.217458   482A      6.242774  
     483A      6.269549   484A      6.328937   485A      6.421751  
     486A      6.501601   487A      6.518309   488A      6.567153  
     489A      6.588326   490A      6.724627   491A      6.755079  
     492A      6.776829   493A      6.796395   494A      6.864799  
     495A      6.899330   496A      6.982589   497A      7.064068  
     498A      7.124340   499A      7.158591   500A      7.166403  
     501A      7.188865   502A      7.249520   503A      7.300897  
     504A      7.319132   505A      7.355137   506A      7.377872  
     507A      7.481340   508A      7.679654   509A      7.695885  
     510A      7.710484   511A      7.731599   512A      7.746462  
     513A      7.774702   514A      7.786567   515A      7.807943  
     516A      7.831284   517A      7.877771   518A      7.911013  
     519A      7.937448   520A      7.989284   521A      8.065839  
     522A      8.106721   523A      8.111617   524A      8.161782  
     525A      8.209313   526A      8.239520   527A      8.264370  
     528A      8.288820   529A      8.308679   530A      8.316905  
     531A      8.323942   532A      8.338424   533A      8.352793  
     534A      8.393344   535A      8.428527   536A      8.730449  
     537A      8.762605   538A      8.772283   539A      8.816087  
     540A      8.845085   541A      8.859205   542A      8.874441  
     543A      9.077975   544A      9.098821   545A      9.127228  
     546A      9.229668   547A      9.686860   548A      9.753429  
     549A      9.806954   550A      9.855915   551A      9.864793  
     552A      9.867627   553A      9.900489   554A      9.914498  
     555A      9.929483   556A      9.957433   557A     10.072170  
     558A     10.110750   559A     10.126843   560A     10.143090  
     561A     10.180423   562A     10.212143   563A     10.333350  
     564A     10.338651   565A     10.360833   566A     10.385351  
     567A     11.095029   568A     11.114464   569A     11.186214  
     570A     11.237862   571A     11.263439   572A     11.756289  
     573A     11.819317   574A     11.856486   575A     11.879997  
     576A     11.940501   577A     12.100228   578A     12.240380  
     579A     12.278256   580A     12.293554   581A     12.406121  
     582A     13.510069   583A     13.633894   584A     13.693271  
     585A     13.726332   586A     13.825689   587A     13.901253  
     588A     14.000808   589A     14.051733   590A     14.069201  
     591A     14.083462   592A     15.890846   593A     16.529404  
     594A     28.225407   595A     28.448803   596A     28.626557  
     597A     65.044686   598A     66.881513   599A     67.102377  
     600A     67.413212   601A     68.174078   602A    161.014238  

    Final Occupation by Irrep:
              A 
    DOCC [     5 ]
    NA   [     5 ]
    NB   [     5 ]

  @DF-RHF Final Energy:   -76.05784957518769

   => Energetics <=

    Nuclear Repulsion Energy =              9.0047726066231508
    One-Electron Energy =                -122.7109095421496079
    Two-Electron Energy =                  37.6482873603387631
    Total Energy =                        -76.0578495751877028

Computation Completed


Properties will be evaluated at   0.000000,   0.000000,   0.000000 [a0]

Properties computed using the SCF density matrix


 Multipole Moments:

 ------------------------------------------------------------------------------------
     Multipole            Electronic (a.u.)      Nuclear  (a.u.)        Total (a.u.)
 ------------------------------------------------------------------------------------

 L = 1.  Multiply by 2.5417464519 to convert [e a0] to [Debye]
 Dipole X            :          6.3714056           -5.8033697            0.5680359
 Dipole Y            :         44.7944824          -44.2864858            0.5079966
 Dipole Z            :         45.1865965          -45.2914761           -0.1048796
 Magnitude           :                                                    0.7692367

 ------------------------------------------------------------------------------------

*** tstop() called on ddmfs1 at Mon Jan 22 21:09:54 2024
Module time:
	user time   =     130.95 seconds =       2.18 minutes
	system time =       6.29 seconds =       0.10 minutes
	total time  =          9 seconds =       0.15 minutes
Total time:
	user time   =     130.95 seconds =       2.18 minutes
	system time =       6.29 seconds =       0.10 minutes
	total time  =          9 seconds =       0.15 minutes

*** tstart() called on ddmfs1
*** at Mon Jan 22 21:09:54 2024


  //>>>>>>>>>>>>>>>>>>>>>>>>>>>>>>>>>>>//
  //               DFMP2               //
  //<<<<<<<<<<<<<<<<<<<<<<<<<<<<<<<<<<<//

   => Loading Basis Set <=

    Name: (AUG-CC-PVTZ AUX)
    Role: RIFIT
    Keyword: DF_BASIS_MP2
    atoms 1                                   entry CL         line   742 file /ddmfs1b/softs/psi4conda/share/psi4/basis/aug-cc-pvtz-ri.gbs 
    atoms 2, 5, 8, 11, 14, 17                 entry O          line   264 file /ddmfs1b/softs/psi4conda/share/psi4/basis/aug-cc-pvtz-ri.gbs 
    atoms 3-4, 6-7, 9-10, 12-13, 15-16, 18-19 entry H          line    30 file /ddmfs1b/softs/psi4conda/share/psi4/basis/aug-cc-pvtz-ri.gbs 

	 --------------------------------------------------------
	                          DF-MP2                         
	      2nd-Order Density-Fitted Moller-Plesset Theory     
	              RMP2 Wavefunction,  20 Threads             
	                                                         
	        Rob Parrish, Justin Turney, Andy Simmonett,      
	           Ed Hohenstein, and C. David Sherrill          
	 --------------------------------------------------------

   => Auxiliary Basis Set <=

  Basis Set: (AUG-CC-PVTZ AUX)
    Blend: AUG-CC-PVTZ-RI
    Number of shells: 373
    Number of basis functions: 1335
    Number of Cartesian functions: 1667
    Spherical Harmonics?: true
    Max angular momentum: 4

	 --------------------------------------------------------
	                 NBF =   602, NAUX =  1335
	 --------------------------------------------------------
	   CLASS    FOCC     OCC    AOCC    AVIR     VIR    FVIR
	   PAIRS       0       5       5     597     597       0
	 --------------------------------------------------------

	-----------------------------------------------------------
	 ==================> DF-MP2 Energies <==================== 
	-----------------------------------------------------------
	 Reference Energy          =     -76.0578495751876886 [Eh]
	 Singles Energy            =      -0.0000000000000000 [Eh]
	 Same-Spin Energy          =      -0.0686881279885112 [Eh]
	 Opposite-Spin Energy      =      -0.2166828902884989 [Eh]
	 Correlation Energy        =      -0.2853710182770101 [Eh]
	 Total Energy              =     -76.3432205934646930 [Eh]
	-----------------------------------------------------------
	 ================> DF-SCS-MP2 Energies <================== 
	-----------------------------------------------------------
	 SCS Same-Spin Scale       =       0.3333333333333333 [-]
	 SCS Opposite-Spin Scale   =       1.2000000000000000 [-]
	 SCS Same-Spin Energy      =      -0.0228960426628371 [Eh]
	 SCS Opposite-Spin Energy  =      -0.2600194683461987 [Eh]
	 SCS Correlation Energy    =      -0.2829155110090357 [Eh]
	 SCS Total Energy          =     -76.3407650861967255 [Eh]
	-----------------------------------------------------------


*** tstop() called on ddmfs1 at Mon Jan 22 21:10:01 2024
Module time:
	user time   =      35.55 seconds =       0.59 minutes
	system time =       2.16 seconds =       0.04 minutes
	total time  =          7 seconds =       0.12 minutes
Total time:
	user time   =     166.52 seconds =       2.78 minutes
	system time =       8.45 seconds =       0.14 minutes
	total time  =         16 seconds =       0.27 minutes

    Psi4 stopped on: Monday, 22 January 2024 09:10PM
    Psi4 wall time for execution: 0:00:15.48

*** Psi4 exiting successfully. Buy a developer a beer!
