
    -----------------------------------------------------------------------
          Psi4: An Open-Source Ab Initio Electronic Structure Package
                               Psi4 1.8.2 release

                         Git: Rev {} zzzzzzz 


    D. G. A. Smith, L. A. Burns, A. C. Simmonett, R. M. Parrish,
    M. C. Schieber, R. Galvelis, P. Kraus, H. Kruse, R. Di Remigio,
    A. Alenaizan, A. M. James, S. Lehtola, J. P. Misiewicz, M. Scheurer,
    R. A. Shaw, J. B. Schriber, Y. Xie, Z. L. Glick, D. A. Sirianni,
    J. S. O'Brien, J. M. Waldrop, A. Kumar, E. G. Hohenstein,
    B. P. Pritchard, B. R. Brooks, H. F. Schaefer III, A. Yu. Sokolov,
    K. Patkowski, A. E. DePrince III, U. Bozkaya, R. A. King,
    F. A. Evangelista, J. M. Turney, T. D. Crawford, C. D. Sherrill,
    J. Chem. Phys. 152(18) 184108 (2020). https://doi.org/10.1063/5.0006002

                            Additional Code Authors
    E. T. Seidl, C. L. Janssen, E. F. Valeev, M. L. Leininger,
    J. F. Gonthier, R. M. Richard, H. R. McAlexander, M. Saitow, X. Wang,
    P. Verma, M. H. Lechner, A. Jiang, S. Behnle, A. G. Heide,
    M. F. Herbst, and D. L. Poole

             Previous Authors, Complete List of Code Contributors,
                       and Citations for Specific Modules
    https://github.com/psi4/psi4/blob/master/codemeta.json
    https://github.com/psi4/psi4/graphs/contributors
    http://psicode.org/psi4manual/master/introduction.html#citing-psifour

    -----------------------------------------------------------------------


    Psi4 started on: Monday, 22 January 2024 07:33PM

    Process ID: 97671
    Host:       ddmfs1
    PSIDATADIR: /ddmfs1b/softs/psi4conda/share/psi4
    Memory:     500.0 MiB
    Threads:    20
    
  ==> Input File <==

--------------------------------------------------------------------------
MEMORY 60 GB

molecule dimer {
-1 1
Cl         0.000000     0.000000     0.000000
Gh(O)      1.774032    -1.212909    -2.452343
Gh(H)      1.305888    -0.738993    -1.732187
Gh(H)      2.508319    -1.629930    -2.012047
Gh(O)      2.186775     2.588737     0.277671
Gh(H)      1.476037     1.911683     0.339217
Gh(H)      3.009960     2.191670    -0.033394
Gh(O)     -1.686863     2.434953     1.365585
Gh(H)     -1.173488     2.559282     2.184309
Gh(H)     -1.383221     1.585374     0.970444
Gh(O)     -1.491886    -1.582103    -2.320471
Gh(H)     -1.016194    -0.998340    -1.638782
Gh(H)     -2.114507    -0.952675    -2.708062
Gh(O)     -0.791886     2.266519    -2.120884
Gh(H)     -1.711508     2.191897    -2.087996
Gh(H)     -0.411803     1.608549    -1.538367

units ang
no_reorient
no_com
symmetry c1
}

set {
basis        aug-cc-pVTZ
scf_type     df
}

energy("mp2")
--------------------------------------------------------------------------

  Memory set to  55.879 GiB by Python driver.

Scratch directory: /ddmfs1a/scratch/
   => Libint2 <=

    Primary   basis highest AM E, G, H:  5, 4, 3
    Auxiliary basis highest AM E, G, H:  6, 5, 4
    Onebody   basis highest AM E, G, H:  6, 5, 4
    Solid Harmonics ordering:            gaussian

*** tstart() called on ddmfs1
*** at Mon Jan 22 19:33:14 2024

   => Loading Basis Set <=

    Name: AUG-CC-PVTZ
    Role: ORBITAL
    Keyword: BASIS
    atoms 1                            entry CL         line   988 file /ddmfs1b/softs/psi4conda/share/psi4/basis/aug-cc-pvtz.gbs 
    atoms 2, 5, 8, 11, 14              entry O          line   331 file /ddmfs1b/softs/psi4conda/share/psi4/basis/aug-cc-pvtz.gbs 
    atoms 3-4, 6-7, 9-10, 12-13, 15-16 entry H          line    40 file /ddmfs1b/softs/psi4conda/share/psi4/basis/aug-cc-pvtz.gbs 


         ---------------------------------------------------------
                                   SCF
               by Justin Turney, Rob Parrish, Andy Simmonett
                          and Daniel G. A. Smith
                              RHF Reference
                       20 Threads,  57220 MiB Core
         ---------------------------------------------------------

  ==> Geometry <==

    Molecular point group: c1
    Full point group: C1

    Geometry (in Angstrom), charge = -1, multiplicity = 1:

       Center              X                  Y                   Z               Mass       
    ------------   -----------------  -----------------  -----------------  -----------------
         CL           0.000000000000     0.000000000000     0.000000000000    34.968852682000
      Gh(O)           1.774032000000    -1.212909000000    -2.452343000000    15.994914619570
      Gh(H)           1.305888000000    -0.738993000000    -1.732187000000     1.007825032230
      Gh(H)           2.508319000000    -1.629930000000    -2.012047000000     1.007825032230
      Gh(O)           2.186775000000     2.588737000000     0.277671000000    15.994914619570
      Gh(H)           1.476037000000     1.911683000000     0.339217000000     1.007825032230
      Gh(H)           3.009960000000     2.191670000000    -0.033394000000     1.007825032230
      Gh(O)          -1.686863000000     2.434953000000     1.365585000000    15.994914619570
      Gh(H)          -1.173488000000     2.559282000000     2.184309000000     1.007825032230
      Gh(H)          -1.383221000000     1.585374000000     0.970444000000     1.007825032230
      Gh(O)          -1.491886000000    -1.582103000000    -2.320471000000    15.994914619570
      Gh(H)          -1.016194000000    -0.998340000000    -1.638782000000     1.007825032230
      Gh(H)          -2.114507000000    -0.952675000000    -2.708062000000     1.007825032230
      Gh(O)          -0.791886000000     2.266519000000    -2.120884000000    15.994914619570
      Gh(H)          -1.711508000000     2.191897000000    -2.087996000000     1.007825032230
      Gh(H)          -0.411803000000     1.608549000000    -1.538367000000     1.007825032230

  Running in c1 symmetry.

  Rotational constants: A =      0.03460  B =      0.02449  C =      0.02375 [cm^-1]
  Rotational constants: A =   1037.38736  B =    734.30095  C =    712.13301 [MHz]
  Nuclear repulsion =    0.000000000000000

  Charge       = -1
  Multiplicity = 1
  Electrons    = 18
  Nalpha       = 9
  Nbeta        = 9

  ==> Algorithm <==

  SCF Algorithm Type is DF.
  DIIS enabled.
  MOM disabled.
  Fractional occupation disabled.
  Guess Type is SAD.
  Energy threshold   = 1.00e-08
  Density threshold  = 1.00e-08
  Integral threshold = 1.00e-12

  ==> Primary Basis <==

  Basis Set: AUG-CC-PVTZ
    Blend: AUG-CC-PVTZ
    Number of shells: 176
    Number of basis functions: 510
    Number of Cartesian functions: 584
    Spherical Harmonics?: true
    Max angular momentum: 3

   => Loading Basis Set <=

    Name: (AUG-CC-PVTZ AUX)
    Role: JKFIT
    Keyword: DF_BASIS_SCF
    atoms 1                            entry CL         line   816 file /ddmfs1b/softs/psi4conda/share/psi4/basis/aug-cc-pvtz-jkfit.gbs 
    atoms 2, 5, 8, 11, 14              entry O          line   286 file /ddmfs1b/softs/psi4conda/share/psi4/basis/aug-cc-pvtz-jkfit.gbs 
    atoms 3-4, 6-7, 9-10, 12-13, 15-16 entry H          line    70 file /ddmfs1b/softs/psi4conda/share/psi4/basis/aug-cc-pvtz-jkfit.gbs 

  ==> Integral Setup <==

  DFHelper Memory: AOs need 2.031 GiB; user supplied 41.910 GiB. 
  Using in-core AOs.

  ==> MemDFJK: Density-Fitted J/K Matrices <==

    J tasked:                   Yes
    K tasked:                   Yes
    wK tasked:                   No
    OpenMP threads:              20
    Memory [MiB]:             42915
    Algorithm:                 Core
    Schwarz Cutoff:           1E-12
    Mask sparsity (%):      11.5156
    Fitting Condition:        1E-10

   => Auxiliary Basis Set <=

  Basis Set: (AUG-CC-PVTZ AUX)
    Blend: AUG-CC-PVTZ-JKFIT
    Number of shells: 332
    Number of basis functions: 1126
    Number of Cartesian functions: 1385
    Spherical Harmonics?: true
    Max angular momentum: 4

  Minimum eigenvalue in the overlap matrix is 1.4341272174E-04.
  Reciprocal condition number of the overlap matrix is 1.1002160588E-05.
    Using symmetric orthogonalization.

  ==> Pre-Iterations <==

  SCF Guess: Superposition of Atomic Densities via on-the-fly atomic UHF (no occupation information).

   -------------------------
    Irrep   Nso     Nmo    
   -------------------------
     A        510     510 
   -------------------------
    Total     510     510
   -------------------------

  ==> Iterations <==

                           Total Energy        Delta E     RMS |[F,P]|

   @DF-RHF iter SAD:  -459.11248998845775   -4.59112e+02   0.00000e+00 
   @DF-RHF iter   1:  -459.51390126496921   -4.01411e-01   5.86047e-04 DIIS/ADIIS
   @DF-RHF iter   2:  -459.56482242240168   -5.09212e-02   3.00570e-04 DIIS/ADIIS
   @DF-RHF iter   3:  -459.57352231673406   -8.69989e-03   2.10599e-05 DIIS
   @DF-RHF iter   4:  -459.57358033484854   -5.80181e-05   4.11799e-06 DIIS
   @DF-RHF iter   5:  -459.57358394732836   -3.61248e-06   4.22256e-07 DIIS
   @DF-RHF iter   6:  -459.57358402988604   -8.25577e-08   3.89556e-08 DIIS
   @DF-RHF iter   7:  -459.57358403094628   -1.06024e-09   4.33412e-09 DIIS
  Energy and wave function converged.


  ==> Post-Iterations <==

    Orbital Energies [Eh]
    ---------------------

    Doubly Occupied:                                                      

       1A   -104.507377     2A    -10.230093     3A     -7.696163  
       4A     -7.696159     5A     -7.696130     6A     -0.733467  
       7A     -0.150309     8A     -0.150307     9A     -0.150304  

    Virtual:                                                              

      10A      0.120774    11A      0.127478    12A      0.128886  
      13A      0.138605    14A      0.142692    15A      0.161236  
      16A      0.170817    17A      0.175494    18A      0.183001  
      19A      0.190626    20A      0.224601    21A      0.240708  
      22A      0.251158    23A      0.253926    24A      0.262005  
      25A      0.262704    26A      0.266710    27A      0.268724  
      28A      0.272859    29A      0.279780    30A      0.291013  
      31A      0.297519    32A      0.302434    33A      0.306681  
      34A      0.315195    35A      0.321219    36A      0.324669  
      37A      0.334300    38A      0.341599    39A      0.351022  
      40A      0.357721    41A      0.367226    42A      0.369685  
      43A      0.395988    44A      0.399516    45A      0.405023  
      46A      0.429258    47A      0.430517    48A      0.438872  
      49A      0.451183    50A      0.457242    51A      0.464303  
      52A      0.470301    53A      0.476144    54A      0.483725  
      55A      0.488612    56A      0.495065    57A      0.498089  
      58A      0.502740    59A      0.510179    60A      0.512081  
      61A      0.517300    62A      0.520951    63A      0.529673  
      64A      0.539199    65A      0.545219    66A      0.555199  
      67A      0.559789    68A      0.571905    69A      0.580607  
      70A      0.582584    71A      0.596509    72A      0.608630  
      73A      0.617520    74A      0.638782    75A      0.647232  
      76A      0.654549    77A      0.664543    78A      0.682035  
      79A      0.692629    80A      0.709790    81A      0.718639  
      82A      0.730517    83A      0.739492    84A      0.764207  
      85A      0.782769    86A      0.799056    87A      0.806982  
      88A      0.814574    89A      0.838990    90A      0.849564  
      91A      0.854888    92A      0.867379    93A      0.884217  
      94A      0.885787    95A      0.902776    96A      0.905526  
      97A      0.907272    98A      0.919471    99A      0.924740  
     100A      0.929369   101A      0.942915   102A      0.943546  
     103A      0.947664   104A      0.957745   105A      0.963221  
     106A      0.969993   107A      0.977781   108A      0.979362  
     109A      0.985762   110A      0.988089   111A      0.995932  
     112A      1.004127   113A      1.010832   114A      1.013713  
     115A      1.018250   116A      1.024776   117A      1.028978  
     118A      1.037939   119A      1.039008   120A      1.054237  
     121A      1.063668   122A      1.068619   123A      1.074474  
     124A      1.083263   125A      1.084669   126A      1.087438  
     127A      1.096461   128A      1.101511   129A      1.109593  
     130A      1.121037   131A      1.129805   132A      1.134742  
     133A      1.139157   134A      1.147942   135A      1.154802  
     136A      1.159673   137A      1.162664   138A      1.174465  
     139A      1.176099   140A      1.182776   141A      1.193555  
     142A      1.198860   143A      1.205033   144A      1.221407  
     145A      1.223197   146A      1.227845   147A      1.236677  
     148A      1.240690   149A      1.247198   150A      1.264943  
     151A      1.276027   152A      1.282269   153A      1.299034  
     154A      1.304465   155A      1.310126   156A      1.320504  
     157A      1.331062   158A      1.332236   159A      1.350082  
     160A      1.354795   161A      1.362208   162A      1.370246  
     163A      1.380843   164A      1.397786   165A      1.410229  
     166A      1.417348   167A      1.427923   168A      1.440988  
     169A      1.441820   170A      1.462783   171A      1.476062  
     172A      1.489231   173A      1.490969   174A      1.502653  
     175A      1.510346   176A      1.526808   177A      1.533827  
     178A      1.546481   179A      1.568503   180A      1.573831  
     181A      1.582472   182A      1.588285   183A      1.604160  
     184A      1.612612   185A      1.620612   186A      1.667885  
     187A      1.682114   188A      1.693275   189A      1.717047  
     190A      1.738112   191A      1.754857   192A      1.777854  
     193A      1.791124   194A      1.799644   195A      1.808191  
     196A      1.831678   197A      1.837490   198A      1.862803  
     199A      1.876791   200A      1.882860   201A      1.891077  
     202A      1.911615   203A      1.912239   204A      1.921945  
     205A      1.928583   206A      1.934652   207A      1.941606  
     208A      1.952551   209A      1.956230   210A      1.967276  
     211A      1.974873   212A      1.994526   213A      2.010835  
     214A      2.011618   215A      2.027167   216A      2.038292  
     217A      2.052141   218A      2.054146   219A      2.059373  
     220A      2.072209   221A      2.088538   222A      2.102003  
     223A      2.118954   224A      2.132285   225A      2.144561  
     226A      2.153895   227A      2.175048   228A      2.201979  
     229A      2.228627   230A      2.238038   231A      2.255708  
     232A      2.272390   233A      2.295394   234A      2.319364  
     235A      2.341245   236A      2.365634   237A      2.414659  
     238A      2.426934   239A      2.503775   240A      2.605836  
     241A      2.610984   242A      2.619399   243A      2.626930  
     244A      2.639451   245A      2.662453   246A      2.674847  
     247A      2.675149   248A      2.692238   249A      2.697650  
     250A      2.705870   251A      2.712182   252A      2.738366  
     253A      2.751112   254A      2.757302   255A      2.778463  
     256A      2.784398   257A      2.790581   258A      2.798139  
     259A      2.804310   260A      2.808207   261A      2.815929  
     262A      2.830150   263A      2.837132   264A      2.861084  
     265A      2.869823   266A      2.876788   267A      2.883821  
     268A      2.890135   269A      2.896015   270A      2.917406  
     271A      2.924753   272A      2.935284   273A      2.952281  
     274A      2.955814   275A      2.980774   276A      3.000967  
     277A      3.016100   278A      3.037829   279A      3.079669  
     280A      3.094711   281A      3.115514   282A      3.136992  
     283A      3.141441   284A      3.168939   285A      3.178398  
     286A      3.218496   287A      3.231033   288A      3.281216  
     289A      3.340850   290A      3.344462   291A      3.349447  
     292A      3.360200   293A      3.374759   294A      3.379333  
     295A      3.389831   296A      3.409210   297A      3.425128  
     298A      3.439550   299A      3.455632   300A      3.464363  
     301A      3.473134   302A      3.497943   303A      3.505522  
     304A      3.536867   305A      3.570847   306A      3.571513  
     307A      3.584237   308A      3.611162   309A      3.626848  
     310A      3.637120   311A      3.649724   312A      3.660331  
     313A      3.688159   314A      3.714012   315A      3.736012  
     316A      3.748567   317A      3.762853   318A      3.774021  
     319A      3.785503   320A      3.803775   321A      3.819167  
     322A      3.837616   323A      3.860579   324A      3.871454  
     325A      3.877874   326A      3.917351   327A      3.949310  
     328A      3.970439   329A      3.976715   330A      3.996277  
     331A      4.038626   332A      4.074563   333A      4.104227  
     334A      4.155838   335A      4.528730   336A      4.560658  
     337A      4.592641   338A      4.623799   339A      4.630563  
     340A      4.637391   341A      4.652744   342A      4.662449  
     343A      4.690665   344A      4.708831   345A      4.721821  
     346A      4.758070   347A      4.759796   348A      4.774080  
     349A      4.807547   350A      4.816052   351A      4.823867  
     352A      4.826653   353A      4.849975   354A      4.855388  
     355A      4.864656   356A      4.883849   357A      4.892148  
     358A      4.924895   359A      4.926337   360A      4.997949  
     361A      5.021704   362A      5.044326   363A      5.057759  
     364A      5.063437   365A      5.069745   366A      5.082774  
     367A      5.095363   368A      5.125555   369A      5.137002  
     370A      5.158309   371A      5.183840   372A      5.209892  
     373A      5.219128   374A      5.236912   375A      5.253093  
     376A      5.303885   377A      5.326028   378A      5.342340  
     379A      5.358286   380A      5.398857   381A      5.414418  
     382A      5.431732   383A      5.493011   384A      5.521824  
     385A      5.636028   386A      5.649473   387A      5.687401  
     388A      5.723457   389A      5.740456   390A      5.749657  
     391A      5.767028   392A      5.785511   393A      5.791642  
     394A      5.807792   395A      5.818623   396A      5.831245  
     397A      5.837892   398A      5.917785   399A      5.951801  
     400A      5.961572   401A      6.008643   402A      6.052811  
     403A      6.111684   404A      6.118093   405A      6.306919  
     406A      6.327162   407A      6.346368   408A      6.374456  
     409A      6.431796   410A      6.515809   411A      6.542657  
     412A      6.573250   413A      6.647795   414A      6.720748  
     415A      6.759248   416A      6.825785   417A      6.858366  
     418A      6.929482   419A      7.043171   420A      7.160191  
     421A      7.197155   422A      7.233755   423A      7.267545  
     424A      7.410203   425A      7.781286   426A      7.851694  
     427A      7.881841   428A      7.910468   429A      7.914486  
     430A      7.926794   431A      7.969793   432A      7.978940  
     433A      8.014296   434A      8.032259   435A      8.055493  
     436A      8.190069   437A      8.230576   438A      8.236029  
     439A      8.254971   440A      8.318008   441A      8.358913  
     442A      8.375299   443A      8.384362   444A      8.419511  
     445A      8.435662   446A      8.449067   447A      8.463928  
     448A      8.473985   449A      8.529446   450A      8.548433  
     451A      8.876211   452A      8.884880   453A      8.892285  
     454A      8.979407   455A      9.015413   456A      9.029581  
     457A      9.111909   458A      9.117705   459A      9.163392  
     460A      9.360933   461A      9.844970   462A      9.858690  
     463A      9.865944   464A      9.876164   465A      9.985932  
     466A     10.010183   467A     10.040525   468A     10.049005  
     469A     10.094376   470A     10.113195   471A     10.231758  
     472A     10.243147   473A     10.248654   474A     10.273331  
     475A     10.321958   476A     10.434729   477A     10.450045  
     478A     10.491347   479A     10.526164   480A     10.544264  
     481A     11.235651   482A     11.250513   483A     11.272767  
     484A     11.382312   485A     11.506150   486A     11.856975  
     487A     11.894135   488A     11.920215   489A     11.952544  
     490A     12.049169   491A     12.099691   492A     12.153078  
     493A     12.223709   494A     12.324948   495A     12.618442  
     496A     13.683011   497A     13.705541   498A     13.711269  
     499A     13.802518   500A     13.979225   501A     14.125988  
     502A     14.135219   503A     14.145118   504A     14.167951  
     505A     14.233109   506A     64.990401   507A     65.246951  
     508A     65.756009   509A     66.283909   510A     68.679162  

    Final Occupation by Irrep:
              A 
    DOCC [     9 ]
    NA   [     9 ]
    NB   [     9 ]

  @DF-RHF Final Energy:  -459.57358403094628

   => Energetics <=

    Nuclear Repulsion Energy =              0.0000000000000000
    One-Electron Energy =                -641.1265620553160716
    Two-Electron Energy =                 181.5529780243698212
    Total Energy =                       -459.5735840309462219

Computation Completed


Properties will be evaluated at   0.000000,   0.000000,   0.000000 [a0]

Properties computed using the SCF density matrix


 Multipole Moments:

 ------------------------------------------------------------------------------------
     Multipole            Electronic (a.u.)      Nuclear  (a.u.)        Total (a.u.)
 ------------------------------------------------------------------------------------

 L = 1.  Multiply by 2.5417464519 to convert [e a0] to [Debye]
 Dipole X            :          0.0000360            0.0000000            0.0000360
 Dipole Y            :          0.0002654            0.0000000            0.0002654
 Dipole Z            :         -0.0004366            0.0000000           -0.0004366
 Magnitude           :                                                    0.0005122

 ------------------------------------------------------------------------------------

*** tstop() called on ddmfs1 at Mon Jan 22 19:33:20 2024
Module time:
	user time   =      92.91 seconds =       1.55 minutes
	system time =       5.77 seconds =       0.10 minutes
	total time  =          6 seconds =       0.10 minutes
Total time:
	user time   =      92.91 seconds =       1.55 minutes
	system time =       5.77 seconds =       0.10 minutes
	total time  =          6 seconds =       0.10 minutes

*** tstart() called on ddmfs1
*** at Mon Jan 22 19:33:20 2024


  //>>>>>>>>>>>>>>>>>>>>>>>>>>>>>>>>>>>//
  //               DFMP2               //
  //<<<<<<<<<<<<<<<<<<<<<<<<<<<<<<<<<<<//

   => Loading Basis Set <=

    Name: (AUG-CC-PVTZ AUX)
    Role: RIFIT
    Keyword: DF_BASIS_MP2
    atoms 1                            entry CL         line   742 file /ddmfs1b/softs/psi4conda/share/psi4/basis/aug-cc-pvtz-ri.gbs 
    atoms 2, 5, 8, 11, 14              entry O          line   264 file /ddmfs1b/softs/psi4conda/share/psi4/basis/aug-cc-pvtz-ri.gbs 
    atoms 3-4, 6-7, 9-10, 12-13, 15-16 entry H          line    30 file /ddmfs1b/softs/psi4conda/share/psi4/basis/aug-cc-pvtz-ri.gbs 

	 --------------------------------------------------------
	                          DF-MP2                         
	      2nd-Order Density-Fitted Moller-Plesset Theory     
	              RMP2 Wavefunction,  20 Threads             
	                                                         
	        Rob Parrish, Justin Turney, Andy Simmonett,      
	           Ed Hohenstein, and C. David Sherrill          
	 --------------------------------------------------------

   => Auxiliary Basis Set <=

  Basis Set: (AUG-CC-PVTZ AUX)
    Blend: AUG-CC-PVTZ-RI
    Number of shells: 317
    Number of basis functions: 1137
    Number of Cartesian functions: 1421
    Spherical Harmonics?: true
    Max angular momentum: 4

	 --------------------------------------------------------
	                 NBF =   510, NAUX =  1137
	 --------------------------------------------------------
	   CLASS    FOCC     OCC    AOCC    AVIR     VIR    FVIR
	   PAIRS       0       9       9     501     501       0
	 --------------------------------------------------------

	-----------------------------------------------------------
	 ==================> DF-MP2 Energies <==================== 
	-----------------------------------------------------------
	 Reference Energy          =    -459.5735840309462787 [Eh]
	 Singles Energy            =      -0.0000000000000000 [Eh]
	 Same-Spin Energy          =      -0.0636470333684506 [Eh]
	 Opposite-Spin Energy      =      -0.1842773061872167 [Eh]
	 Correlation Energy        =      -0.2479243395556673 [Eh]
	 Total Energy              =    -459.8215083705019310 [Eh]
	-----------------------------------------------------------
	 ================> DF-SCS-MP2 Energies <================== 
	-----------------------------------------------------------
	 SCS Same-Spin Scale       =       0.3333333333333333 [-]
	 SCS Opposite-Spin Scale   =       1.2000000000000000 [-]
	 SCS Same-Spin Energy      =      -0.0212156777894835 [Eh]
	 SCS Opposite-Spin Energy  =      -0.2211327674246601 [Eh]
	 SCS Correlation Energy    =      -0.2423484452141436 [Eh]
	 SCS Total Energy          =    -459.8159324761604125 [Eh]
	-----------------------------------------------------------


*** tstop() called on ddmfs1 at Mon Jan 22 19:33:25 2024
Module time:
	user time   =      28.25 seconds =       0.47 minutes
	system time =       1.66 seconds =       0.03 minutes
	total time  =          5 seconds =       0.08 minutes
Total time:
	user time   =     121.18 seconds =       2.02 minutes
	system time =       7.43 seconds =       0.12 minutes
	total time  =         11 seconds =       0.18 minutes

    Psi4 stopped on: Monday, 22 January 2024 07:33PM
    Psi4 wall time for execution: 0:00:11.23

*** Psi4 exiting successfully. Buy a developer a beer!
