
    -----------------------------------------------------------------------
          Psi4: An Open-Source Ab Initio Electronic Structure Package
                               Psi4 1.8.2 release

                         Git: Rev {} zzzzzzz 


    D. G. A. Smith, L. A. Burns, A. C. Simmonett, R. M. Parrish,
    M. C. Schieber, R. Galvelis, P. Kraus, H. Kruse, R. Di Remigio,
    A. Alenaizan, A. M. James, S. Lehtola, J. P. Misiewicz, M. Scheurer,
    R. A. Shaw, J. B. Schriber, Y. Xie, Z. L. Glick, D. A. Sirianni,
    J. S. O'Brien, J. M. Waldrop, A. Kumar, E. G. Hohenstein,
    B. P. Pritchard, B. R. Brooks, H. F. Schaefer III, A. Yu. Sokolov,
    K. Patkowski, A. E. DePrince III, U. Bozkaya, R. A. King,
    F. A. Evangelista, J. M. Turney, T. D. Crawford, C. D. Sherrill,
    J. Chem. Phys. 152(18) 184108 (2020). https://doi.org/10.1063/5.0006002

                            Additional Code Authors
    E. T. Seidl, C. L. Janssen, E. F. Valeev, M. L. Leininger,
    J. F. Gonthier, R. M. Richard, H. R. McAlexander, M. Saitow, X. Wang,
    P. Verma, M. H. Lechner, A. Jiang, S. Behnle, A. G. Heide,
    M. F. Herbst, and D. L. Poole

             Previous Authors, Complete List of Code Contributors,
                       and Citations for Specific Modules
    https://github.com/psi4/psi4/blob/master/codemeta.json
    https://github.com/psi4/psi4/graphs/contributors
    http://psicode.org/psi4manual/master/introduction.html#citing-psifour

    -----------------------------------------------------------------------


    Psi4 started on: Monday, 22 January 2024 09:07PM

    Process ID: 107421
    Host:       ddmfs1
    PSIDATADIR: /ddmfs1b/softs/psi4conda/share/psi4
    Memory:     500.0 MiB
    Threads:    20
    
  ==> Input File <==

--------------------------------------------------------------------------
MEMORY 60 GB

molecule dimer {
0 1
Gh(Cl)     0.000000     0.000000     0.000000
O          0.601726    -2.589847     1.985255
H          0.625102    -1.734398     1.410853
H          0.202443    -2.311978     2.805266
Gh(O)      1.654373     2.108704     2.134861
Gh(H)      1.639621     3.020507     1.745273
Gh(H)      1.118820     1.502198     1.596433
Gh(O)     -1.660561     0.569143     2.400854
Gh(H)     -1.309075     0.235507     1.599810
Gh(H)     -1.163770     0.257029     3.177412
Gh(O)     -1.490632    -2.685195    -0.853034
Gh(H)     -1.987793    -3.157702    -0.165193
Gh(H)     -0.816107    -2.123214    -0.480627
Gh(O)      3.208264     0.379661    -0.437533
Gh(H)      3.780426     0.542681     0.324217
Gh(H)      2.259776     0.321939    -0.255342

units ang
no_reorient
no_com
symmetry c1
}

set {
basis        aug-cc-pVTZ
scf_type     df
}

energy("mp2")
--------------------------------------------------------------------------

  Memory set to  55.879 GiB by Python driver.

Scratch directory: /ddmfs1a/scratch/
   => Libint2 <=

    Primary   basis highest AM E, G, H:  5, 4, 3
    Auxiliary basis highest AM E, G, H:  6, 5, 4
    Onebody   basis highest AM E, G, H:  6, 5, 4
    Solid Harmonics ordering:            gaussian

*** tstart() called on ddmfs1
*** at Mon Jan 22 21:07:42 2024

   => Loading Basis Set <=

    Name: AUG-CC-PVTZ
    Role: ORBITAL
    Keyword: BASIS
    atoms 1                            entry CL         line   988 file /ddmfs1b/softs/psi4conda/share/psi4/basis/aug-cc-pvtz.gbs 
    atoms 2, 5, 8, 11, 14              entry O          line   331 file /ddmfs1b/softs/psi4conda/share/psi4/basis/aug-cc-pvtz.gbs 
    atoms 3-4, 6-7, 9-10, 12-13, 15-16 entry H          line    40 file /ddmfs1b/softs/psi4conda/share/psi4/basis/aug-cc-pvtz.gbs 


         ---------------------------------------------------------
                                   SCF
               by Justin Turney, Rob Parrish, Andy Simmonett
                          and Daniel G. A. Smith
                              RHF Reference
                       20 Threads,  57220 MiB Core
         ---------------------------------------------------------

  ==> Geometry <==

    Molecular point group: c1
    Full point group: C1

    Geometry (in Angstrom), charge = 0, multiplicity = 1:

       Center              X                  Y                   Z               Mass       
    ------------   -----------------  -----------------  -----------------  -----------------
      Gh(CL)          0.000000000000     0.000000000000     0.000000000000    34.968852682000
         O            0.601726000000    -2.589847000000     1.985255000000    15.994914619570
         H            0.625102000000    -1.734398000000     1.410853000000     1.007825032230
         H            0.202443000000    -2.311978000000     2.805266000000     1.007825032230
      Gh(O)           1.654373000000     2.108704000000     2.134861000000    15.994914619570
      Gh(H)           1.639621000000     3.020507000000     1.745273000000     1.007825032230
      Gh(H)           1.118820000000     1.502198000000     1.596433000000     1.007825032230
      Gh(O)          -1.660561000000     0.569143000000     2.400854000000    15.994914619570
      Gh(H)          -1.309075000000     0.235507000000     1.599810000000     1.007825032230
      Gh(H)          -1.163770000000     0.257029000000     3.177412000000     1.007825032230
      Gh(O)          -1.490632000000    -2.685195000000    -0.853034000000    15.994914619570
      Gh(H)          -1.987793000000    -3.157702000000    -0.165193000000     1.007825032230
      Gh(H)          -0.816107000000    -2.123214000000    -0.480627000000     1.007825032230
      Gh(O)           3.208264000000     0.379661000000    -0.437533000000    15.994914619570
      Gh(H)           3.780426000000     0.542681000000     0.324217000000     1.007825032230
      Gh(H)           2.259776000000     0.321939000000    -0.255342000000     1.007825032230

  Running in c1 symmetry.

  Rotational constants: A =      0.03527  B =      0.02549  C =      0.02317 [cm^-1]
  Rotational constants: A =   1057.30612  B =    764.16267  C =    694.76540 [MHz]
  Nuclear repulsion =    8.885202776809809

  Charge       = 0
  Multiplicity = 1
  Electrons    = 10
  Nalpha       = 5
  Nbeta        = 5

  ==> Algorithm <==

  SCF Algorithm Type is DF.
  DIIS enabled.
  MOM disabled.
  Fractional occupation disabled.
  Guess Type is SAD.
  Energy threshold   = 1.00e-08
  Density threshold  = 1.00e-08
  Integral threshold = 1.00e-12

  ==> Primary Basis <==

  Basis Set: AUG-CC-PVTZ
    Blend: AUG-CC-PVTZ
    Number of shells: 176
    Number of basis functions: 510
    Number of Cartesian functions: 584
    Spherical Harmonics?: true
    Max angular momentum: 3

   => Loading Basis Set <=

    Name: (AUG-CC-PVTZ AUX)
    Role: JKFIT
    Keyword: DF_BASIS_SCF
    atoms 1                            entry CL         line   816 file /ddmfs1b/softs/psi4conda/share/psi4/basis/aug-cc-pvtz-jkfit.gbs 
    atoms 2, 5, 8, 11, 14              entry O          line   286 file /ddmfs1b/softs/psi4conda/share/psi4/basis/aug-cc-pvtz-jkfit.gbs 
    atoms 3-4, 6-7, 9-10, 12-13, 15-16 entry H          line    70 file /ddmfs1b/softs/psi4conda/share/psi4/basis/aug-cc-pvtz-jkfit.gbs 

  ==> Integral Setup <==

  DFHelper Memory: AOs need 2.026 GiB; user supplied 41.910 GiB. 
  Using in-core AOs.

  ==> MemDFJK: Density-Fitted J/K Matrices <==

    J tasked:                   Yes
    K tasked:                   Yes
    wK tasked:                   No
    OpenMP threads:              20
    Memory [MiB]:             42915
    Algorithm:                 Core
    Schwarz Cutoff:           1E-12
    Mask sparsity (%):      11.7609
    Fitting Condition:        1E-10

   => Auxiliary Basis Set <=

  Basis Set: (AUG-CC-PVTZ AUX)
    Blend: AUG-CC-PVTZ-JKFIT
    Number of shells: 332
    Number of basis functions: 1126
    Number of Cartesian functions: 1385
    Spherical Harmonics?: true
    Max angular momentum: 4

  Minimum eigenvalue in the overlap matrix is 1.5652832093E-04.
  Reciprocal condition number of the overlap matrix is 1.1970165041E-05.
    Using symmetric orthogonalization.

  ==> Pre-Iterations <==

  SCF Guess: Superposition of Atomic Densities via on-the-fly atomic UHF (no occupation information).

   -------------------------
    Irrep   Nso     Nmo    
   -------------------------
     A        510     510 
   -------------------------
    Total     510     510
   -------------------------

  ==> Iterations <==

                           Total Energy        Delta E     RMS |[F,P]|

   @DF-RHF iter SAD:   -75.43628744466596   -7.54363e+01   0.00000e+00 
   @DF-RHF iter   1:   -75.96711835824951   -5.30831e-01   9.17260e-04 ADIIS/DIIS
   @DF-RHF iter   2:   -76.01892713367010   -5.18088e-02   6.49882e-04 ADIIS/DIIS
   @DF-RHF iter   3:   -76.05334994416349   -3.44228e-02   4.45714e-05 DIIS
   @DF-RHF iter   4:   -76.05380186745444   -4.51923e-04   1.15650e-05 DIIS
   @DF-RHF iter   5:   -76.05383598291461   -3.41155e-05   2.76062e-06 DIIS
   @DF-RHF iter   6:   -76.05383902070017   -3.03779e-06   6.12262e-07 DIIS
   @DF-RHF iter   7:   -76.05383918086845   -1.60168e-07   1.06895e-07 DIIS
   @DF-RHF iter   8:   -76.05383918505251   -4.18406e-09   1.91678e-08 DIIS
   @DF-RHF iter   9:   -76.05383918516610   -1.13587e-10   5.23866e-09 DIIS
  Energy and wave function converged.


  ==> Post-Iterations <==

    Orbital Energies [Eh]
    ---------------------

    Doubly Occupied:                                                      

       1A    -20.572882     2A     -1.337736     3A     -0.699313  
       4A     -0.578024     5A     -0.507775  

    Virtual:                                                              

       6A      0.014794     7A      0.032756     8A      0.035738  
       9A      0.041380    10A      0.051508    11A      0.057531  
      12A      0.062255    13A      0.063833    14A      0.074412  
      15A      0.081264    16A      0.100938    17A      0.111887  
      18A      0.118444    19A      0.120588    20A      0.135116  
      21A      0.140476    22A      0.144604    23A      0.146075  
      24A      0.157872    25A      0.162495    26A      0.167219  
      27A      0.172665    28A      0.175678    29A      0.184719  
      30A      0.191011    31A      0.192693    32A      0.202557  
      33A      0.203875    34A      0.212114    35A      0.219429  
      36A      0.228734    37A      0.231838    38A      0.239936  
      39A      0.247951    40A      0.255834    41A      0.266500  
      42A      0.278992    43A      0.283529    44A      0.289275  
      45A      0.295881    46A      0.301091    47A      0.318158  
      48A      0.320214    49A      0.328426    50A      0.337168  
      51A      0.346890    52A      0.351658    53A      0.353241  
      54A      0.359565    55A      0.362399    56A      0.366491  
      57A      0.374305    58A      0.379902    59A      0.384503  
      60A      0.392607    61A      0.398368    62A      0.406436  
      63A      0.415128    64A      0.418137    65A      0.421821  
      66A      0.435715    67A      0.446642    68A      0.457742  
      69A      0.462912    70A      0.471412    71A      0.476547  
      72A      0.477109    73A      0.496632    74A      0.505962  
      75A      0.516178    76A      0.519616    77A      0.528386  
      78A      0.553366    79A      0.568570    80A      0.601758  
      81A      0.607675    82A      0.630314    83A      0.638601  
      84A      0.644165    85A      0.648986    86A      0.660264  
      87A      0.668981    88A      0.691860    89A      0.703475  
      90A      0.712362    91A      0.716516    92A      0.720429  
      93A      0.728129    94A      0.735468    95A      0.755364  
      96A      0.764091    97A      0.766048    98A      0.773131  
      99A      0.783266   100A      0.785018   101A      0.787931  
     102A      0.803598   103A      0.807798   104A      0.812058  
     105A      0.812755   106A      0.822441   107A      0.829665  
     108A      0.832021   109A      0.839202   110A      0.846912  
     111A      0.858194   112A      0.860858   113A      0.868360  
     114A      0.875084   115A      0.881426   116A      0.883865  
     117A      0.890158   118A      0.896810   119A      0.901663  
     120A      0.913795   121A      0.915295   122A      0.927725  
     123A      0.930898   124A      0.940915   125A      0.951432  
     126A      0.952652   127A      0.961420   128A      0.963427  
     129A      0.967254   130A      0.973569   131A      0.982892  
     132A      0.987895   133A      0.993904   134A      0.999414  
     135A      1.014795   136A      1.022777   137A      1.029576  
     138A      1.038081   139A      1.047430   140A      1.053135  
     141A      1.068612   142A      1.071200   143A      1.073121  
     144A      1.085835   145A      1.088098   146A      1.100823  
     147A      1.106540   148A      1.127896   149A      1.133212  
     150A      1.135126   151A      1.144347   152A      1.159602  
     153A      1.162712   154A      1.164753   155A      1.168975  
     156A      1.178851   157A      1.188399   158A      1.201233  
     159A      1.216420   160A      1.230674   161A      1.236023  
     162A      1.253375   163A      1.270869   164A      1.279812  
     165A      1.285973   166A      1.294919   167A      1.306631  
     168A      1.314127   169A      1.323862   170A      1.326238  
     171A      1.352994   172A      1.360029   173A      1.385049  
     174A      1.389257   175A      1.399571   176A      1.410592  
     177A      1.421802   178A      1.442469   179A      1.452360  
     180A      1.465760   181A      1.468789   182A      1.479539  
     183A      1.489555   184A      1.507629   185A      1.513308  
     186A      1.518285   187A      1.529502   188A      1.545080  
     189A      1.565522   190A      1.570022   191A      1.606664  
     192A      1.629500   193A      1.638393   194A      1.648581  
     195A      1.669909   196A      1.682623   197A      1.689335  
     198A      1.712808   199A      1.726940   200A      1.740583  
     201A      1.743143   202A      1.752168   203A      1.759830  
     204A      1.768993   205A      1.775632   206A      1.794066  
     207A      1.797034   208A      1.800797   209A      1.812259  
     210A      1.829465   211A      1.835110   212A      1.858778  
     213A      1.871226   214A      1.878222   215A      1.888161  
     216A      1.896392   217A      1.913585   218A      1.919185  
     219A      1.943139   220A      1.946971   221A      1.963425  
     222A      1.984770   223A      1.992201   224A      2.008560  
     225A      2.016022   226A      2.022687   227A      2.050150  
     228A      2.072521   229A      2.085830   230A      2.103148  
     231A      2.109615   232A      2.153764   233A      2.159477  
     234A      2.171840   235A      2.190254   236A      2.210923  
     237A      2.239572   238A      2.319196   239A      2.360765  
     240A      2.428163   241A      2.434245   242A      2.449041  
     243A      2.464462   244A      2.475034   245A      2.492840  
     246A      2.499238   247A      2.506522   248A      2.512979  
     249A      2.527798   250A      2.537524   251A      2.541755  
     252A      2.561145   253A      2.582617   254A      2.598542  
     255A      2.600643   256A      2.621825   257A      2.626554  
     258A      2.647769   259A      2.655440   260A      2.661926  
     261A      2.663474   262A      2.685778   263A      2.695390  
     264A      2.709047   265A      2.714710   266A      2.727548  
     267A      2.740550   268A      2.747381   269A      2.768833  
     270A      2.774940   271A      2.786471   272A      2.814456  
     273A      2.827231   274A      2.832317   275A      2.847987  
     276A      2.864586   277A      2.893528   278A      2.904326  
     279A      2.913536   280A      2.947646   281A      2.968877  
     282A      2.996247   283A      3.032473   284A      3.056443  
     285A      3.063265   286A      3.068191   287A      3.105447  
     288A      3.174400   289A      3.198215   290A      3.206574  
     291A      3.218446   292A      3.224341   293A      3.227818  
     294A      3.236502   295A      3.250994   296A      3.309772  
     297A      3.321621   298A      3.330776   299A      3.340658  
     300A      3.376710   301A      3.394401   302A      3.427998  
     303A      3.436943   304A      3.501055   305A      3.524435  
     306A      3.529037   307A      3.548067   308A      3.620844  
     309A      3.623640   310A      3.646641   311A      3.660992  
     312A      3.794490   313A      3.804581   314A      3.825029  
     315A      3.846136   316A      3.858144   317A      3.931323  
     318A      4.120233   319A      4.159032   320A      4.189687  
     321A      4.236630   322A      4.266666   323A      4.267234  
     324A      4.300564   325A      4.304159   326A      4.308960  
     327A      4.351543   328A      4.360219   329A      4.376654  
     330A      4.380476   331A      4.398949   332A      4.415591  
     333A      4.429948   334A      4.447015   335A      4.457951  
     336A      4.464828   337A      4.466386   338A      4.483498  
     339A      4.496268   340A      4.507806   341A      4.514076  
     342A      4.537125   343A      4.559829   344A      4.568018  
     345A      4.574125   346A      4.605309   347A      4.617342  
     348A      4.620767   349A      4.624854   350A      4.660893  
     351A      4.663830   352A      4.668340   353A      4.672495  
     354A      4.684734   355A      4.711817   356A      4.725683  
     357A      4.779053   358A      4.789932   359A      4.809585  
     360A      4.834086   361A      4.849984   362A      4.875530  
     363A      4.876362   364A      4.904635   365A      4.911819  
     366A      4.922247   367A      4.929128   368A      4.937999  
     369A      4.977405   370A      4.996840   371A      5.002926  
     372A      5.026642   373A      5.028623   374A      5.061218  
     375A      5.109055   376A      5.119656   377A      5.136303  
     378A      5.141407   379A      5.143970   380A      5.170739  
     381A      5.196615   382A      5.209750   383A      5.221272  
     384A      5.265495   385A      5.313679   386A      5.340815  
     387A      5.361079   388A      5.431111   389A      5.497204  
     390A      5.503472   391A      5.511560   392A      5.537060  
     393A      5.552645   394A      5.559099   395A      5.583740  
     396A      5.587822   397A      5.611855   398A      5.654450  
     399A      5.703395   400A      5.715973   401A      5.739805  
     402A      5.751256   403A      5.770442   404A      5.805798  
     405A      5.811186   406A      5.850252   407A      6.155291  
     408A      6.182190   409A      6.184254   410A      6.219099  
     411A      6.252368   412A      6.304401   413A      6.349371  
     414A      6.394562   415A      6.434122   416A      6.598590  
     417A      6.757528   418A      6.813077   419A      6.842688  
     420A      6.873724   421A      6.909356   422A      6.934494  
     423A      7.046120   424A      7.106885   425A      7.130425  
     426A      7.142320   427A      7.193296   428A      7.312851  
     429A      7.325834   430A      7.353196   431A      7.402142  
     432A      7.484126   433A      7.660440   434A      7.697256  
     435A      7.711050   436A      7.725090   437A      7.732262  
     438A      7.747935   439A      7.771845   440A      7.787705  
     441A      7.798952   442A      7.916371   443A      7.959851  
     444A      8.075012   445A      8.149886   446A      8.164387  
     447A      8.184432   448A      8.217653   449A      8.256221  
     450A      8.269755   451A      8.274792   452A      8.318823  
     453A      8.358120   454A      8.379008   455A      8.391564  
     456A      8.682715   457A      8.684783   458A      8.736188  
     459A      8.784072   460A      8.812280   461A      8.968518  
     462A      9.029123   463A      9.077028   464A      9.160092  
     465A      9.749632   466A      9.760767   467A      9.769739  
     468A      9.810252   469A      9.841310   470A      9.859774  
     471A      9.868460   472A      9.881835   473A     10.087055  
     474A     10.097409   475A     10.100189   476A     10.115444  
     477A     10.234693   478A     10.257235   479A     10.301075  
     480A     10.304800   481A     11.028897   482A     11.061312  
     483A     11.141601   484A     11.154031   485A     11.719603  
     486A     11.744250   487A     11.817094   488A     11.858830  
     489A     12.020323   490A     12.169339   491A     12.191071  
     492A     12.336560   493A     13.489309   494A     13.567039  
     495A     13.591516   496A     13.714049   497A     13.963880  
     498A     13.994968   499A     14.007208   500A     14.041836  
     501A     15.543460   502A     16.240458   503A     28.228267  
     504A     28.384680   505A     28.514184   506A     65.519430  
     507A     66.260817   508A     66.584211   509A     67.636660  
     510A    160.968869  

    Final Occupation by Irrep:
              A 
    DOCC [     5 ]
    NA   [     5 ]
    NB   [     5 ]

  @DF-RHF Final Energy:   -76.05383918516610

   => Energetics <=

    Nuclear Repulsion Energy =              8.8852027768098090
    One-Electron Energy =                -122.4866209570959654
    Two-Electron Energy =                  37.5475789951200554
    Total Energy =                        -76.0538391851661117

Computation Completed


Properties will be evaluated at   0.000000,   0.000000,   0.000000 [a0]

Properties computed using the SCF density matrix


 Multipole Moments:

 ------------------------------------------------------------------------------------
     Multipole            Electronic (a.u.)      Nuclear  (a.u.)        Total (a.u.)
 ------------------------------------------------------------------------------------

 L = 1.  Multiply by 2.5417464519 to convert [e a0] to [Debye]
 Dipole X            :        -10.9086082           10.6606121           -0.2479961
 Dipole Y            :         47.5323700          -46.7993547            0.7330153
 Dipole Z            :        -37.8083365           37.9800161            0.1716797
 Magnitude           :                                                    0.7926458

 ------------------------------------------------------------------------------------

*** tstop() called on ddmfs1 at Mon Jan 22 21:07:48 2024
Module time:
	user time   =      91.77 seconds =       1.53 minutes
	system time =       4.85 seconds =       0.08 minutes
	total time  =          6 seconds =       0.10 minutes
Total time:
	user time   =      91.77 seconds =       1.53 minutes
	system time =       4.85 seconds =       0.08 minutes
	total time  =          6 seconds =       0.10 minutes

*** tstart() called on ddmfs1
*** at Mon Jan 22 21:07:48 2024


  //>>>>>>>>>>>>>>>>>>>>>>>>>>>>>>>>>>>//
  //               DFMP2               //
  //<<<<<<<<<<<<<<<<<<<<<<<<<<<<<<<<<<<//

   => Loading Basis Set <=

    Name: (AUG-CC-PVTZ AUX)
    Role: RIFIT
    Keyword: DF_BASIS_MP2
    atoms 1                            entry CL         line   742 file /ddmfs1b/softs/psi4conda/share/psi4/basis/aug-cc-pvtz-ri.gbs 
    atoms 2, 5, 8, 11, 14              entry O          line   264 file /ddmfs1b/softs/psi4conda/share/psi4/basis/aug-cc-pvtz-ri.gbs 
    atoms 3-4, 6-7, 9-10, 12-13, 15-16 entry H          line    30 file /ddmfs1b/softs/psi4conda/share/psi4/basis/aug-cc-pvtz-ri.gbs 

	 --------------------------------------------------------
	                          DF-MP2                         
	      2nd-Order Density-Fitted Moller-Plesset Theory     
	              RMP2 Wavefunction,  20 Threads             
	                                                         
	        Rob Parrish, Justin Turney, Andy Simmonett,      
	           Ed Hohenstein, and C. David Sherrill          
	 --------------------------------------------------------

   => Auxiliary Basis Set <=

  Basis Set: (AUG-CC-PVTZ AUX)
    Blend: AUG-CC-PVTZ-RI
    Number of shells: 317
    Number of basis functions: 1137
    Number of Cartesian functions: 1421
    Spherical Harmonics?: true
    Max angular momentum: 4

	 --------------------------------------------------------
	                 NBF =   510, NAUX =  1137
	 --------------------------------------------------------
	   CLASS    FOCC     OCC    AOCC    AVIR     VIR    FVIR
	   PAIRS       0       5       5     505     505       0
	 --------------------------------------------------------

	-----------------------------------------------------------
	 ==================> DF-MP2 Energies <==================== 
	-----------------------------------------------------------
	 Reference Energy          =     -76.0538391851660975 [Eh]
	 Singles Energy            =      -0.0000000000000000 [Eh]
	 Same-Spin Energy          =      -0.0689901346919533 [Eh]
	 Opposite-Spin Energy      =      -0.2177917221761578 [Eh]
	 Correlation Energy        =      -0.2867818568681111 [Eh]
	 Total Energy              =     -76.3406210420342148 [Eh]
	-----------------------------------------------------------
	 ================> DF-SCS-MP2 Energies <================== 
	-----------------------------------------------------------
	 SCS Same-Spin Scale       =       0.3333333333333333 [-]
	 SCS Opposite-Spin Scale   =       1.2000000000000000 [-]
	 SCS Same-Spin Energy      =      -0.0229967115639844 [Eh]
	 SCS Opposite-Spin Energy  =      -0.2613500666113894 [Eh]
	 SCS Correlation Energy    =      -0.2843467781753738 [Eh]
	 SCS Total Energy          =     -76.3381859633414734 [Eh]
	-----------------------------------------------------------


*** tstop() called on ddmfs1 at Mon Jan 22 21:07:53 2024
Module time:
	user time   =      26.45 seconds =       0.44 minutes
	system time =       1.63 seconds =       0.03 minutes
	total time  =          5 seconds =       0.08 minutes
Total time:
	user time   =     118.23 seconds =       1.97 minutes
	system time =       6.48 seconds =       0.11 minutes
	total time  =         11 seconds =       0.18 minutes

    Psi4 stopped on: Monday, 22 January 2024 09:07PM
    Psi4 wall time for execution: 0:00:11.01

*** Psi4 exiting successfully. Buy a developer a beer!
