
    -----------------------------------------------------------------------
          Psi4: An Open-Source Ab Initio Electronic Structure Package
                               Psi4 1.8.2 release

                         Git: Rev {} zzzzzzz 


    D. G. A. Smith, L. A. Burns, A. C. Simmonett, R. M. Parrish,
    M. C. Schieber, R. Galvelis, P. Kraus, H. Kruse, R. Di Remigio,
    A. Alenaizan, A. M. James, S. Lehtola, J. P. Misiewicz, M. Scheurer,
    R. A. Shaw, J. B. Schriber, Y. Xie, Z. L. Glick, D. A. Sirianni,
    J. S. O'Brien, J. M. Waldrop, A. Kumar, E. G. Hohenstein,
    B. P. Pritchard, B. R. Brooks, H. F. Schaefer III, A. Yu. Sokolov,
    K. Patkowski, A. E. DePrince III, U. Bozkaya, R. A. King,
    F. A. Evangelista, J. M. Turney, T. D. Crawford, C. D. Sherrill,
    J. Chem. Phys. 152(18) 184108 (2020). https://doi.org/10.1063/5.0006002

                            Additional Code Authors
    E. T. Seidl, C. L. Janssen, E. F. Valeev, M. L. Leininger,
    J. F. Gonthier, R. M. Richard, H. R. McAlexander, M. Saitow, X. Wang,
    P. Verma, M. H. Lechner, A. Jiang, S. Behnle, A. G. Heide,
    M. F. Herbst, and D. L. Poole

             Previous Authors, Complete List of Code Contributors,
                       and Citations for Specific Modules
    https://github.com/psi4/psi4/blob/master/codemeta.json
    https://github.com/psi4/psi4/graphs/contributors
    http://psicode.org/psi4manual/master/introduction.html#citing-psifour

    -----------------------------------------------------------------------


    Psi4 started on: Monday, 22 January 2024 08:08PM

    Process ID: 101742
    Host:       ddmfs1
    PSIDATADIR: /ddmfs1b/softs/psi4conda/share/psi4
    Memory:     500.0 MiB
    Threads:    20
    
  ==> Input File <==

--------------------------------------------------------------------------
MEMORY 60 GB

molecule dimer {
0 1
Gh(Cl)     0.000000     0.000000     0.000000
Gh(O)      1.242748     0.373838    -2.862966
Gh(H)      1.138454     0.351436    -1.908457
Gh(H)      2.040450     0.897382    -2.964663
Gh(O)      0.276420     3.153674    -0.747807
Gh(H)      0.355701     2.306751    -0.429567
Gh(H)     -0.187972     3.065629    -1.574720
Gh(O)      0.006494     0.560028     2.997778
Gh(H)      0.008803     0.499540     2.013278
Gh(H)      0.769493     0.188003     3.383861
O          3.047364     0.861757     0.211652
H          2.118883     0.732903     0.199202
H          3.204150     1.194867    -0.687368
Gh(O)      2.269934    -2.438292    -1.028284
Gh(H)      2.047839    -1.483943    -0.900356
Gh(H)      1.445497    -2.891753    -0.787702

units ang
no_reorient
no_com
symmetry c1
}

set {
basis        aug-cc-pVTZ
scf_type     df
}

energy("mp2")
--------------------------------------------------------------------------

  Memory set to  55.879 GiB by Python driver.

Scratch directory: /ddmfs1a/scratch/
   => Libint2 <=

    Primary   basis highest AM E, G, H:  5, 4, 3
    Auxiliary basis highest AM E, G, H:  6, 5, 4
    Onebody   basis highest AM E, G, H:  6, 5, 4
    Solid Harmonics ordering:            gaussian

*** tstart() called on ddmfs1
*** at Mon Jan 22 20:08:12 2024

   => Loading Basis Set <=

    Name: AUG-CC-PVTZ
    Role: ORBITAL
    Keyword: BASIS
    atoms 1                            entry CL         line   988 file /ddmfs1b/softs/psi4conda/share/psi4/basis/aug-cc-pvtz.gbs 
    atoms 2, 5, 8, 11, 14              entry O          line   331 file /ddmfs1b/softs/psi4conda/share/psi4/basis/aug-cc-pvtz.gbs 
    atoms 3-4, 6-7, 9-10, 12-13, 15-16 entry H          line    40 file /ddmfs1b/softs/psi4conda/share/psi4/basis/aug-cc-pvtz.gbs 


         ---------------------------------------------------------
                                   SCF
               by Justin Turney, Rob Parrish, Andy Simmonett
                          and Daniel G. A. Smith
                              RHF Reference
                       20 Threads,  57220 MiB Core
         ---------------------------------------------------------

  ==> Geometry <==

    Molecular point group: c1
    Full point group: C1

    Geometry (in Angstrom), charge = 0, multiplicity = 1:

       Center              X                  Y                   Z               Mass       
    ------------   -----------------  -----------------  -----------------  -----------------
      Gh(CL)          0.000000000000     0.000000000000     0.000000000000    34.968852682000
      Gh(O)           1.242748000000     0.373838000000    -2.862966000000    15.994914619570
      Gh(H)           1.138454000000     0.351436000000    -1.908457000000     1.007825032230
      Gh(H)           2.040450000000     0.897382000000    -2.964663000000     1.007825032230
      Gh(O)           0.276420000000     3.153674000000    -0.747807000000    15.994914619570
      Gh(H)           0.355701000000     2.306751000000    -0.429567000000     1.007825032230
      Gh(H)          -0.187972000000     3.065629000000    -1.574720000000     1.007825032230
      Gh(O)           0.006494000000     0.560028000000     2.997778000000    15.994914619570
      Gh(H)           0.008803000000     0.499540000000     2.013278000000     1.007825032230
      Gh(H)           0.769493000000     0.188003000000     3.383861000000     1.007825032230
         O            3.047364000000     0.861757000000     0.211652000000    15.994914619570
         H            2.118883000000     0.732903000000     0.199202000000     1.007825032230
         H            3.204150000000     1.194867000000    -0.687368000000     1.007825032230
      Gh(O)           2.269934000000    -2.438292000000    -1.028284000000    15.994914619570
      Gh(H)           2.047839000000    -1.483943000000    -0.900356000000     1.007825032230
      Gh(H)           1.445497000000    -2.891753000000    -0.787702000000     1.007825032230

  Running in c1 symmetry.

  Rotational constants: A =      0.03331  B =      0.02712  C =      0.02363 [cm^-1]
  Rotational constants: A =    998.56317  B =    813.06376  C =    708.39413 [MHz]
  Nuclear repulsion =    9.232141901719443

  Charge       = 0
  Multiplicity = 1
  Electrons    = 10
  Nalpha       = 5
  Nbeta        = 5

  ==> Algorithm <==

  SCF Algorithm Type is DF.
  DIIS enabled.
  MOM disabled.
  Fractional occupation disabled.
  Guess Type is SAD.
  Energy threshold   = 1.00e-08
  Density threshold  = 1.00e-08
  Integral threshold = 1.00e-12

  ==> Primary Basis <==

  Basis Set: AUG-CC-PVTZ
    Blend: AUG-CC-PVTZ
    Number of shells: 176
    Number of basis functions: 510
    Number of Cartesian functions: 584
    Spherical Harmonics?: true
    Max angular momentum: 3

   => Loading Basis Set <=

    Name: (AUG-CC-PVTZ AUX)
    Role: JKFIT
    Keyword: DF_BASIS_SCF
    atoms 1                            entry CL         line   816 file /ddmfs1b/softs/psi4conda/share/psi4/basis/aug-cc-pvtz-jkfit.gbs 
    atoms 2, 5, 8, 11, 14              entry O          line   286 file /ddmfs1b/softs/psi4conda/share/psi4/basis/aug-cc-pvtz-jkfit.gbs 
    atoms 3-4, 6-7, 9-10, 12-13, 15-16 entry H          line    70 file /ddmfs1b/softs/psi4conda/share/psi4/basis/aug-cc-pvtz-jkfit.gbs 

  ==> Integral Setup <==

  DFHelper Memory: AOs need 2.068 GiB; user supplied 41.910 GiB. 
  Using in-core AOs.

  ==> MemDFJK: Density-Fitted J/K Matrices <==

    J tasked:                   Yes
    K tasked:                   Yes
    wK tasked:                   No
    OpenMP threads:              20
    Memory [MiB]:             42915
    Algorithm:                 Core
    Schwarz Cutoff:           1E-12
    Mask sparsity (%):       9.8539
    Fitting Condition:        1E-10

   => Auxiliary Basis Set <=

  Basis Set: (AUG-CC-PVTZ AUX)
    Blend: AUG-CC-PVTZ-JKFIT
    Number of shells: 332
    Number of basis functions: 1126
    Number of Cartesian functions: 1385
    Spherical Harmonics?: true
    Max angular momentum: 4

  Minimum eigenvalue in the overlap matrix is 8.7699529875E-05.
  Reciprocal condition number of the overlap matrix is 6.1000803391E-06.
    Using symmetric orthogonalization.

  ==> Pre-Iterations <==

  SCF Guess: Superposition of Atomic Densities via on-the-fly atomic UHF (no occupation information).

   -------------------------
    Irrep   Nso     Nmo    
   -------------------------
     A        510     510 
   -------------------------
    Total     510     510
   -------------------------

  ==> Iterations <==

                           Total Energy        Delta E     RMS |[F,P]|

   @DF-RHF iter SAD:   -75.48437172686729   -7.54844e+01   0.00000e+00 
   @DF-RHF iter   1:   -75.97510802407747   -4.90736e-01   9.20691e-04 DIIS/ADIIS
   @DF-RHF iter   2:   -76.02797943477812   -5.28714e-02   6.26263e-04 DIIS/ADIIS
   @DF-RHF iter   3:   -76.05937315810706   -3.13937e-02   4.24730e-05 DIIS
   @DF-RHF iter   4:   -76.05975536914040   -3.82211e-04   1.00854e-05 DIIS
   @DF-RHF iter   5:   -76.05977905293153   -2.36838e-05   2.31392e-06 DIIS
   @DF-RHF iter   6:   -76.05978101039844   -1.95747e-06   5.03275e-07 DIIS
   @DF-RHF iter   7:   -76.05978111173511   -1.01337e-07   8.82056e-08 DIIS
   @DF-RHF iter   8:   -76.05978111445992   -2.72482e-09   1.46426e-08 DIIS
   @DF-RHF iter   9:   -76.05978111451775   -5.78240e-11   3.50070e-09 DIIS
  Energy and wave function converged.


  ==> Post-Iterations <==

    Orbital Energies [Eh]
    ---------------------

    Doubly Occupied:                                                      

       1A    -20.567919     2A     -1.357664     3A     -0.712805  
       4A     -0.591772     5A     -0.511522  

    Virtual:                                                              

       6A      0.015352     7A      0.033209     8A      0.035740  
       9A      0.041809    10A      0.056004    11A      0.057321  
      12A      0.063635    13A      0.070127    14A      0.071976  
      15A      0.082688    16A      0.104138    17A      0.107411  
      18A      0.115366    19A      0.124511    20A      0.130746  
      21A      0.141872    22A      0.146177    23A      0.152281  
      24A      0.162117    25A      0.162544    26A      0.165456  
      27A      0.177756    28A      0.180274    29A      0.189896  
      30A      0.192378    31A      0.194616    32A      0.201005  
      33A      0.208286    34A      0.213987    35A      0.218792  
      36A      0.233199    37A      0.240176    38A      0.246849  
      39A      0.253291    40A      0.263189    41A      0.274255  
      42A      0.282487    43A      0.286396    44A      0.297006  
      45A      0.304912    46A      0.315194    47A      0.319468  
      48A      0.323529    49A      0.328723    50A      0.336122  
      51A      0.342384    52A      0.350869    53A      0.353899  
      54A      0.362866    55A      0.368125    56A      0.379728  
      57A      0.384939    58A      0.386892    59A      0.392054  
      60A      0.399612    61A      0.402971    62A      0.419076  
      63A      0.420616    64A      0.430721    65A      0.444396  
      66A      0.447428    67A      0.451439    68A      0.467994  
      69A      0.470293    70A      0.482404    71A      0.493605  
      72A      0.494786    73A      0.507718    74A      0.522193  
      75A      0.536918    76A      0.537830    77A      0.552205  
      78A      0.563688    79A      0.577363    80A      0.585013  
      81A      0.601289    82A      0.631970    83A      0.637352  
      84A      0.644783    85A      0.649030    86A      0.654301  
      87A      0.693767    88A      0.697194    89A      0.712250  
      90A      0.724886    91A      0.729398    92A      0.738205  
      93A      0.744295    94A      0.752758    95A      0.761597  
      96A      0.769249    97A      0.772881    98A      0.790464  
      99A      0.798957   100A      0.799388   101A      0.802143  
     102A      0.812763   103A      0.816711   104A      0.825192  
     105A      0.833858   106A      0.838884   107A      0.842113  
     108A      0.851624   109A      0.855039   110A      0.859248  
     111A      0.865794   112A      0.868432   113A      0.874486  
     114A      0.881890   115A      0.888564   116A      0.899495  
     117A      0.911079   118A      0.913405   119A      0.916797  
     120A      0.929923   121A      0.932278   122A      0.940689  
     123A      0.951045   124A      0.960091   125A      0.965605  
     126A      0.970599   127A      0.974944   128A      0.989799  
     129A      0.994864   130A      1.003080   131A      1.013792  
     132A      1.019620   133A      1.026489   134A      1.031095  
     135A      1.034578   136A      1.045933   137A      1.053604  
     138A      1.054976   139A      1.065994   140A      1.069216  
     141A      1.076764   142A      1.092274   143A      1.101129  
     144A      1.106672   145A      1.118334   146A      1.125268  
     147A      1.130885   148A      1.137951   149A      1.148291  
     150A      1.167646   151A      1.168846   152A      1.179012  
     153A      1.191009   154A      1.198357   155A      1.205881  
     156A      1.214972   157A      1.219600   158A      1.249022  
     159A      1.258675   160A      1.265149   161A      1.282824  
     162A      1.288652   163A      1.292453   164A      1.313291  
     165A      1.319804   166A      1.332505   167A      1.350651  
     168A      1.360028   169A      1.362763   170A      1.371031  
     171A      1.386788   172A      1.397239   173A      1.402247  
     174A      1.413307   175A      1.441971   176A      1.445336  
     177A      1.460679   178A      1.466980   179A      1.481266  
     180A      1.495076   181A      1.505454   182A      1.522613  
     183A      1.540387   184A      1.546436   185A      1.560457  
     186A      1.569889   187A      1.598572   188A      1.603090  
     189A      1.606666   190A      1.626588   191A      1.633937  
     192A      1.658888   193A      1.667497   194A      1.684207  
     195A      1.697104   196A      1.710710   197A      1.729256  
     198A      1.739476   199A      1.747943   200A      1.750948  
     201A      1.759039   202A      1.767996   203A      1.778297  
     204A      1.782638   205A      1.787876   206A      1.807200  
     207A      1.812233   208A      1.823519   209A      1.846024  
     210A      1.853276   211A      1.869180   212A      1.882874  
     213A      1.891735   214A      1.898277   215A      1.906512  
     216A      1.925530   217A      1.935112   218A      1.944895  
     219A      1.976308   220A      1.982812   221A      1.993908  
     222A      2.009189   223A      2.017452   224A      2.038850  
     225A      2.053815   226A      2.069853   227A      2.080995  
     228A      2.100264   229A      2.117397   230A      2.130075  
     231A      2.171559   232A      2.183311   233A      2.224376  
     234A      2.226285   235A      2.263211   236A      2.281627  
     237A      2.316676   238A      2.344885   239A      2.448975  
     240A      2.464872   241A      2.468379   242A      2.481420  
     243A      2.488190   244A      2.498690   245A      2.511976  
     246A      2.518305   247A      2.531272   248A      2.542278  
     249A      2.561641   250A      2.571859   251A      2.577816  
     252A      2.620074   253A      2.625486   254A      2.632570  
     255A      2.643632   256A      2.656988   257A      2.675579  
     258A      2.679211   259A      2.692316   260A      2.697363  
     261A      2.712091   262A      2.723564   263A      2.728124  
     264A      2.746720   265A      2.755215   266A      2.763948  
     267A      2.781593   268A      2.789442   269A      2.803053  
     270A      2.807570   271A      2.824976   272A      2.829938  
     273A      2.845723   274A      2.863476   275A      2.875647  
     276A      2.889792   277A      2.928929   278A      2.947926  
     279A      2.963693   280A      2.986504   281A      3.016575  
     282A      3.017382   283A      3.037711   284A      3.081251  
     285A      3.119171   286A      3.128673   287A      3.151900  
     288A      3.200172   289A      3.211170   290A      3.222151  
     291A      3.234343   292A      3.243256   293A      3.245240  
     294A      3.253055   295A      3.263275   296A      3.315594  
     297A      3.324553   298A      3.330124   299A      3.410589  
     300A      3.431646   301A      3.457017   302A      3.479830  
     303A      3.534028   304A      3.547735   305A      3.561225  
     306A      3.609724   307A      3.630098   308A      3.644427  
     309A      3.672095   310A      3.675054   311A      3.719168  
     312A      3.791361   313A      3.810551   314A      3.872790  
     315A      3.885457   316A      3.904038   317A      4.082959  
     318A      4.130441   319A      4.183181   320A      4.212662  
     321A      4.224068   322A      4.248646   323A      4.291097  
     324A      4.299011   325A      4.344922   326A      4.356324  
     327A      4.373514   328A      4.389770   329A      4.400000  
     330A      4.420023   331A      4.433195   332A      4.454474  
     333A      4.469316   334A      4.482321   335A      4.487432  
     336A      4.492793   337A      4.506991   338A      4.520535  
     339A      4.527627   340A      4.539429   341A      4.554728  
     342A      4.564014   343A      4.575505   344A      4.590368  
     345A      4.602242   346A      4.610986   347A      4.622494  
     348A      4.639328   349A      4.659052   350A      4.680357  
     351A      4.696438   352A      4.706416   353A      4.725724  
     354A      4.745418   355A      4.751674   356A      4.766438  
     357A      4.809713   358A      4.819890   359A      4.849637  
     360A      4.863250   361A      4.880449   362A      4.886820  
     363A      4.893550   364A      4.899711   365A      4.916441  
     366A      4.926638   367A      4.957669   368A      4.967809  
     369A      4.980780   370A      4.993365   371A      5.015775  
     372A      5.019856   373A      5.058610   374A      5.062370  
     375A      5.107411   376A      5.125320   377A      5.155623  
     378A      5.166089   379A      5.204600   380A      5.221483  
     381A      5.249153   382A      5.276460   383A      5.315612  
     384A      5.344569   385A      5.375201   386A      5.401267  
     387A      5.496189   388A      5.523275   389A      5.541421  
     390A      5.562213   391A      5.570203   392A      5.596186  
     393A      5.614930   394A      5.648565   395A      5.663777  
     396A      5.678487   397A      5.688328   398A      5.719133  
     399A      5.743089   400A      5.763502   401A      5.806296  
     402A      5.864217   403A      5.872973   404A      5.884466  
     405A      5.976478   406A      5.981524   407A      6.160851  
     408A      6.190307   409A      6.215208   410A      6.227086  
     411A      6.393251   412A      6.412705   413A      6.435492  
     414A      6.518590   415A      6.589890   416A      6.594951  
     417A      6.603792   418A      6.739423   419A      6.818334  
     420A      6.875667   421A      6.892754   422A      7.025493  
     423A      7.090020   424A      7.144174   425A      7.163475  
     426A      7.232983   427A      7.309029   428A      7.351678  
     429A      7.402703   430A      7.439890   431A      7.517932  
     432A      7.566603   433A      7.710194   434A      7.750407  
     435A      7.767820   436A      7.781774   437A      7.796881  
     438A      7.827098   439A      7.876540   440A      7.900455  
     441A      7.932654   442A      7.999948   443A      8.045987  
     444A      8.084321   445A      8.098780   446A      8.158223  
     447A      8.158701   448A      8.210276   449A      8.263782  
     450A      8.283988   451A      8.289393   452A      8.326782  
     453A      8.360430   454A      8.380815   455A      8.394825  
     456A      8.730199   457A      8.806223   458A      8.839784  
     459A      8.892028   460A      8.920789   461A      8.954891  
     462A      9.030006   463A      9.077267   464A      9.295136  
     465A      9.704519   466A      9.752807   467A      9.812380  
     468A      9.841867   469A      9.867668   470A      9.891389  
     471A      9.916596   472A      9.934531   473A     10.096931  
     474A     10.100697   475A     10.112402   476A     10.159270  
     477A     10.309795   478A     10.348887   479A     10.372681  
     480A     10.435779   481A     11.133148   482A     11.147270  
     483A     11.272815   484A     11.386774   485A     11.767535  
     486A     11.790449   487A     11.821504   488A     11.914537  
     489A     11.963977   490A     12.246549   491A     12.311084  
     492A     12.562590   493A     13.518583   494A     13.664641  
     495A     13.706294   496A     13.816026   497A     13.949540  
     498A     13.976947   499A     14.012104   500A     14.181312  
     501A     16.639149   502A     17.479664   503A     28.260814  
     504A     28.336667   505A     28.647951   506A     64.919933  
     507A     67.036638   508A     67.170089   509A     69.451698  
     510A    161.022012  

    Final Occupation by Irrep:
              A 
    DOCC [     5 ]
    NA   [     5 ]
    NB   [     5 ]

  @DF-RHF Final Energy:   -76.05978111451775

   => Energetics <=

    Nuclear Repulsion Energy =              9.2321419017194426
    One-Electron Energy =                -123.1004793657479581
    Two-Electron Energy =                  37.8085563495107735
    Total Energy =                        -76.0597811145177332

Computation Completed


Properties will be evaluated at   0.000000,   0.000000,   0.000000 [a0]

Properties computed using the SCF density matrix


 Multipole Moments:

 ------------------------------------------------------------------------------------
     Multipole            Electronic (a.u.)      Nuclear  (a.u.)        Total (a.u.)
 ------------------------------------------------------------------------------------

 L = 1.  Multiply by 2.5417464519 to convert [e a0] to [Debye]
 Dipole X            :        -56.6429628           56.1285414           -0.5144213
 Dipole Y            :        -16.5380606           16.6708351            0.1327744
 Dipole Z            :         -2.8748054            2.2772145           -0.5975909
 Magnitude           :                                                    0.7996082

 ------------------------------------------------------------------------------------

*** tstop() called on ddmfs1 at Mon Jan 22 20:08:18 2024
Module time:
	user time   =      92.85 seconds =       1.55 minutes
	system time =       4.88 seconds =       0.08 minutes
	total time  =          6 seconds =       0.10 minutes
Total time:
	user time   =      92.85 seconds =       1.55 minutes
	system time =       4.88 seconds =       0.08 minutes
	total time  =          6 seconds =       0.10 minutes

*** tstart() called on ddmfs1
*** at Mon Jan 22 20:08:18 2024


  //>>>>>>>>>>>>>>>>>>>>>>>>>>>>>>>>>>>//
  //               DFMP2               //
  //<<<<<<<<<<<<<<<<<<<<<<<<<<<<<<<<<<<//

   => Loading Basis Set <=

    Name: (AUG-CC-PVTZ AUX)
    Role: RIFIT
    Keyword: DF_BASIS_MP2
    atoms 1                            entry CL         line   742 file /ddmfs1b/softs/psi4conda/share/psi4/basis/aug-cc-pvtz-ri.gbs 
    atoms 2, 5, 8, 11, 14              entry O          line   264 file /ddmfs1b/softs/psi4conda/share/psi4/basis/aug-cc-pvtz-ri.gbs 
    atoms 3-4, 6-7, 9-10, 12-13, 15-16 entry H          line    30 file /ddmfs1b/softs/psi4conda/share/psi4/basis/aug-cc-pvtz-ri.gbs 

	 --------------------------------------------------------
	                          DF-MP2                         
	      2nd-Order Density-Fitted Moller-Plesset Theory     
	              RMP2 Wavefunction,  20 Threads             
	                                                         
	        Rob Parrish, Justin Turney, Andy Simmonett,      
	           Ed Hohenstein, and C. David Sherrill          
	 --------------------------------------------------------

   => Auxiliary Basis Set <=

  Basis Set: (AUG-CC-PVTZ AUX)
    Blend: AUG-CC-PVTZ-RI
    Number of shells: 317
    Number of basis functions: 1137
    Number of Cartesian functions: 1421
    Spherical Harmonics?: true
    Max angular momentum: 4

	 --------------------------------------------------------
	                 NBF =   510, NAUX =  1137
	 --------------------------------------------------------
	   CLASS    FOCC     OCC    AOCC    AVIR     VIR    FVIR
	   PAIRS       0       5       5     505     505       0
	 --------------------------------------------------------

	-----------------------------------------------------------
	 ==================> DF-MP2 Energies <==================== 
	-----------------------------------------------------------
	 Reference Energy          =     -76.0597811145177474 [Eh]
	 Singles Energy            =      -0.0000000000000000 [Eh]
	 Same-Spin Energy          =      -0.0684451541426335 [Eh]
	 Opposite-Spin Energy      =      -0.2163046729402170 [Eh]
	 Correlation Energy        =      -0.2847498270828505 [Eh]
	 Total Energy              =     -76.3445309416005955 [Eh]
	-----------------------------------------------------------
	 ================> DF-SCS-MP2 Energies <================== 
	-----------------------------------------------------------
	 SCS Same-Spin Scale       =       0.3333333333333333 [-]
	 SCS Opposite-Spin Scale   =       1.2000000000000000 [-]
	 SCS Same-Spin Energy      =      -0.0228150513808778 [Eh]
	 SCS Opposite-Spin Energy  =      -0.2595656075282604 [Eh]
	 SCS Correlation Energy    =      -0.2823806589091382 [Eh]
	 SCS Total Energy          =     -76.3421617734268807 [Eh]
	-----------------------------------------------------------


*** tstop() called on ddmfs1 at Mon Jan 22 20:08:23 2024
Module time:
	user time   =      26.20 seconds =       0.44 minutes
	system time =       1.63 seconds =       0.03 minutes
	total time  =          5 seconds =       0.08 minutes
Total time:
	user time   =     119.07 seconds =       1.98 minutes
	system time =       6.51 seconds =       0.11 minutes
	total time  =         11 seconds =       0.18 minutes

    Psi4 stopped on: Monday, 22 January 2024 08:08PM
    Psi4 wall time for execution: 0:00:11.02

*** Psi4 exiting successfully. Buy a developer a beer!
