
    -----------------------------------------------------------------------
          Psi4: An Open-Source Ab Initio Electronic Structure Package
                               Psi4 1.9 release

                         Git: Rev {} zzzzzzz 


    D. G. A. Smith, L. A. Burns, A. C. Simmonett, R. M. Parrish,
    M. C. Schieber, R. Galvelis, P. Kraus, H. Kruse, R. Di Remigio,
    A. Alenaizan, A. M. James, S. Lehtola, J. P. Misiewicz, M. Scheurer,
    R. A. Shaw, J. B. Schriber, Y. Xie, Z. L. Glick, D. A. Sirianni,
    J. S. O'Brien, J. M. Waldrop, A. Kumar, E. G. Hohenstein,
    B. P. Pritchard, B. R. Brooks, H. F. Schaefer III, A. Yu. Sokolov,
    K. Patkowski, A. E. DePrince III, U. Bozkaya, R. A. King,
    F. A. Evangelista, J. M. Turney, T. D. Crawford, C. D. Sherrill,
    J. Chem. Phys. 152(18) 184108 (2020). https://doi.org/10.1063/5.0006002

                            Additional Code Authors
    E. T. Seidl, C. L. Janssen, E. F. Valeev, M. L. Leininger,
    J. F. Gonthier, R. M. Richard, H. R. McAlexander, M. Saitow, X. Wang,
    P. Verma, M. H. Lechner, A. Jiang, S. Behnle, A. G. Heide,
    M. F. Herbst, and D. L. Poole

             Previous Authors, Complete List of Code Contributors,
                       and Citations for Specific Modules
    https://github.com/psi4/psi4/blob/master/codemeta.json
    https://github.com/psi4/psi4/graphs/contributors
    http://psicode.org/psi4manual/master/introduction.html#citing-psifour

    -----------------------------------------------------------------------


    Psi4 started on: Saturday, 06 January 2024 11:15PM

    Process ID: 559816
    Host:       moses-razer
    PSIDATADIR: /home/kchung25/anaconda3/envs/psi4_19/share/psi4
    Memory:     500.0 MiB
    Threads:    6
    
  ==> Input File <==

--------------------------------------------------------------------------
MEMORY 60 GB

molecule dimer {
-1 1
Cl     0.000000     0.000000     0.000000
--
0 1
O      2.004466    -0.496177     2.546536
H      2.585244    -1.154785     2.189831
H      1.363421    -0.266412     1.830507
O      2.479580    -1.598125    -1.227379
H      1.827334    -1.093465    -0.781736
H      2.036467    -2.371329    -1.587810
O     -2.771537     0.837457     1.822875
H     -3.237440     0.820329     0.989508
H     -2.323566     0.003383     1.867055
O     -0.416174    -1.379225    -3.003309
H     -0.168991    -0.896023    -2.169454
H      0.155754    -2.140456    -3.062651

units ang
no_reorient
no_com
symmetry c1
}

set {
basis        aug-cc-pVTZ
scf_type     df
}

energy("mp2", bsse_type="cp")
--------------------------------------------------------------------------

  Memory set to  55.879 GiB by Python driver.

Scratch directory: /scratch/

  //>>>>>>>>>>>>>>>>>>>>>>>>>>>>>>>>>>>>>//
  // ManyBody Setup: N-Body Levels [1, 2]//
  //<<<<<<<<<<<<<<<<<<<<<<<<<<<<<<<<<<<<<//

        Number of 1-body computations:     2
        Number of 2-body computations:     1

    -----------------------------------------------------------------------
          Psi4: An Open-Source Ab Initio Electronic Structure Package
                               Psi4 1.9 release

                         Git: Rev {} zzzzzzz 


    D. G. A. Smith, L. A. Burns, A. C. Simmonett, R. M. Parrish,
    M. C. Schieber, R. Galvelis, P. Kraus, H. Kruse, R. Di Remigio,
    A. Alenaizan, A. M. James, S. Lehtola, J. P. Misiewicz, M. Scheurer,
    R. A. Shaw, J. B. Schriber, Y. Xie, Z. L. Glick, D. A. Sirianni,
    J. S. O'Brien, J. M. Waldrop, A. Kumar, E. G. Hohenstein,
    B. P. Pritchard, B. R. Brooks, H. F. Schaefer III, A. Yu. Sokolov,
    K. Patkowski, A. E. DePrince III, U. Bozkaya, R. A. King,
    F. A. Evangelista, J. M. Turney, T. D. Crawford, C. D. Sherrill,
    J. Chem. Phys. 152(18) 184108 (2020). https://doi.org/10.1063/5.0006002

                            Additional Code Authors
    E. T. Seidl, C. L. Janssen, E. F. Valeev, M. L. Leininger,
    J. F. Gonthier, R. M. Richard, H. R. McAlexander, M. Saitow, X. Wang,
    P. Verma, M. H. Lechner, A. Jiang, S. Behnle, A. G. Heide,
    M. F. Herbst, and D. L. Poole

             Previous Authors, Complete List of Code Contributors,
                       and Citations for Specific Modules
    https://github.com/psi4/psi4/blob/master/codemeta.json
    https://github.com/psi4/psi4/graphs/contributors
    http://psicode.org/psi4manual/master/introduction.html#citing-psifour

    -----------------------------------------------------------------------


    Psi4 started on: Saturday, 06 January 2024 11:15PM

    Process ID: 559816
    Host:       moses-razer
    PSIDATADIR: /home/kchung25/anaconda3/envs/psi4_19/share/psi4
    Memory:     55.9 GiB
    Threads:    6
    
  ==> Input QCSchema <==

--------------------------------------------------------------------------
{'driver': 'energy',
 'extras': {'psiapi': True, 'wfn_qcvars_only': True},
 'id': None,
 'keywords': {'SCF_TYPE': 'DF', 'function_kwargs': {}},
 'model': {'basis': 'aug-cc-pvtz', 'method': 'mp2'},
 'molecule': {'atom_labels': ['', '', '', '', '', '', '', '', '', '', '', '', ''],
              'atomic_numbers': [17, 8, 1, 1, 8, 1, 1, 8, 1, 1, 8, 1, 1],
              'extras': {},
              'fix_com': True,
              'fix_orientation': True,
              'fix_symmetry': 'c1',
              'fragment_charges': [0.0, 0.0],
              'fragment_multiplicities': [1, 1],
              'fragments': [[0], [1, 2, 3, 4, 5, 6, 7, 8, 9, 10, 11, 12]],
              'geometry': [0.0, 0.0, 0.0, 3.7878917677919506, -0.9376386397512888, 4.812255608618876, 4.885403127483097,
                           -2.182227383786818, 4.138180851037441, 2.5764922836978377, -0.5034457165354709,
                           3.459156900733433, 4.685727106162721, -3.0200185642472914, -2.3194101621383036,
                           3.453160799737355, -2.066349377773744, -1.4772669424109004, 3.848364893532727,
                           -4.481162363355786, -3.000526039263194, -5.2374458765730125, 1.5825643718475364,
                           3.4447345109439387, -6.117874947602191, 1.5501971427706946, 1.8698991189495247,
                           -4.390903374425544, 0.006392943482423832, 3.5282226111666652, -0.7864548805362861,
                           -2.606357515384573, -5.675431480122624, -0.3193467076672438, -1.6932380721110996,
                           -4.099673901778987, 0.2943324029445586, -4.044875623592961, -5.787571607859541],
              'mass_numbers': [35, 16, 1, 1, 16, 1, 1, 16, 1, 1, 16, 1, 1],
              'masses': [34.968852682, 15.99491461957, 1.00782503223, 1.00782503223, 15.99491461957, 1.00782503223,
                         1.00782503223, 15.99491461957, 1.00782503223, 1.00782503223, 15.99491461957, 1.00782503223,
                         1.00782503223],
              'molecular_charge': 0.0,
              'molecular_multiplicity': 1,
              'name': 'dimer',
              'provenance': {'creator': 'QCElemental',
                             'routine': 'qcelemental.molparse.from_string',
                             'version': '0.27.1'},
              'real': [False, True, True, True, True, True, True, True, True, True, True, True, True],
              'schema_name': 'qcschema_molecule',
              'schema_version': 2,
              'symbols': ['Cl', 'O', 'H', 'H', 'O', 'H', 'H', 'O', 'H', 'H', 'O', 'H', 'H'],
              'validated': True},
 'protocols': {'stdout': True},
 'provenance': {'creator': 'QCElemental', 'routine': 'qcelemental.models.results', 'version': '0.27.1'},
 'schema_name': 'qcschema_input',
 'schema_version': 1}
--------------------------------------------------------------------------

Scratch directory: /scratch/
   => Libint2 <=

    Primary   basis highest AM E, G, H:  5, 4, 3
    Auxiliary basis highest AM E, G, H:  6, 5, 4
    Onebody   basis highest AM E, G, H:  6, 5, 4
    Solid Harmonics ordering:            gaussian

*** tstart() called on moses-razer
*** at Sat Jan  6 23:15:04 2024

   => Loading Basis Set <=

    Name: AUG-CC-PVTZ
    Role: ORBITAL
    Keyword: BASIS
    atoms 1                     entry CL         line   988 file /home/kchung25/anaconda3/envs/p415env/share/psi4/basis/aug-cc-pvtz.gbs 
    atoms 2, 5, 8, 11           entry O          line   331 file /home/kchung25/anaconda3/envs/p415env/share/psi4/basis/aug-cc-pvtz.gbs 
    atoms 3-4, 6-7, 9-10, 12-13 entry H          line    40 file /home/kchung25/anaconda3/envs/p415env/share/psi4/basis/aug-cc-pvtz.gbs 


         ---------------------------------------------------------
                                   SCF
               by Justin Turney, Rob Parrish, Andy Simmonett
                          and Daniel G. A. Smith
                              RHF Reference
                        6 Threads,  57220 MiB Core
         ---------------------------------------------------------

  ==> Geometry <==

    Molecular point group: c1
    Full point group: C1

    Geometry (in Bohr), charge = 0, multiplicity = 1:

       Center              X                  Y                   Z               Mass       
    ------------   -----------------  -----------------  -----------------  -----------------
      Gh(CL)          0.000000000000     0.000000000000     0.000000000000    34.968852682000
         O            3.787891767792    -0.937638639751     4.812255608619    15.994914619570
         H            4.885403127483    -2.182227383787     4.138180851037     1.007825032230
         H            2.576492283698    -0.503445716535     3.459156900733     1.007825032230
         O            4.685727106163    -3.020018564247    -2.319410162138    15.994914619570
         H            3.453160799737    -2.066349377774    -1.477266942411     1.007825032230
         H            3.848364893533    -4.481162363356    -3.000526039263     1.007825032230
         O           -5.237445876573     1.582564371848     3.444734510944    15.994914619570
         H           -6.117874947602     1.550197142771     1.869899118950     1.007825032230
         H           -4.390903374426     0.006392943482     3.528222611167     1.007825032230
         O           -0.786454880536    -2.606357515385    -5.675431480123    15.994914619570
         H           -0.319346707667    -1.693238072111    -4.099673901779     1.007825032230
         H            0.294332402945    -4.044875623593    -5.787571607860     1.007825032230

  Running in c1 symmetry.

  Rotational constants: A =      0.05153  B =      0.03575  C =      0.02234 [cm^-1]
  Rotational constants: A =   1544.92618  B =   1071.90344  C =    669.76071 [MHz]
  Nuclear repulsion =  103.980819221351908

  Charge       = 0
  Multiplicity = 1
  Electrons    = 40
  Nalpha       = 20
  Nbeta        = 20

  ==> Algorithm <==

  SCF Algorithm Type is DF.
  DIIS enabled.
  MOM disabled.
  Fractional occupation disabled.
  Guess Type is SAD.
  Energy threshold   = 1.00e-08
  Density threshold  = 1.00e-08
  Integral threshold = 1.00e-12

  ==> Primary Basis <==

  Basis Set: AUG-CC-PVTZ
    Blend: AUG-CC-PVTZ
    Number of shells: 144
    Number of basis functions: 418
    Number of Cartesian functions: 479
    Spherical Harmonics?: true
    Max angular momentum: 3

   => Loading Basis Set <=

    Name: (AUG-CC-PVTZ AUX)
    Role: JKFIT
    Keyword: DF_BASIS_SCF
    atoms 1                     entry CL         line   816 file /home/kchung25/anaconda3/envs/p415env/share/psi4/basis/aug-cc-pvtz-jkfit.gbs 
    atoms 2, 5, 8, 11           entry O          line   286 file /home/kchung25/anaconda3/envs/p415env/share/psi4/basis/aug-cc-pvtz-jkfit.gbs 
    atoms 3-4, 6-7, 9-10, 12-13 entry H          line    70 file /home/kchung25/anaconda3/envs/p415env/share/psi4/basis/aug-cc-pvtz-jkfit.gbs 

  ==> Integral Setup <==

  DFHelper Memory: AOs need 1.091 GiB; user supplied 41.910 GiB. 
  Using in-core AOs.

  ==> MemDFJK: Density-Fitted J/K Matrices <==

    J tasked:                   Yes
    K tasked:                   Yes
    wK tasked:                   No
    OpenMP threads:               6
    Memory [MiB]:             42915
    Algorithm:                 Core
    Schwarz Cutoff:           1E-12
    Mask sparsity (%):      13.9466
    Fitting Condition:        1E-10

   => Auxiliary Basis Set <=

  Basis Set: (AUG-CC-PVTZ AUX)
    Blend: AUG-CC-PVTZ-JKFIT
    Number of shells: 274
    Number of basis functions: 930
    Number of Cartesian functions: 1144
    Spherical Harmonics?: true
    Max angular momentum: 4

  Minimum eigenvalue in the overlap matrix is 1.8465007632E-04.
  Reciprocal condition number of the overlap matrix is 1.6765579556E-05.
    Using symmetric orthogonalization.

  ==> Pre-Iterations <==

  SCF Guess: Superposition of Atomic Densities via on-the-fly atomic UHF (no occupation information).

   -------------------------
    Irrep   Nso     Nmo    
   -------------------------
     A        418     418 
   -------------------------
    Total     418     418
   -------------------------

  ==> Iterations <==

                           Total Energy        Delta E     RMS |[F,P]|

   @DF-RHF iter SAD:  -301.95475737197165   -3.01955e+02   0.00000e+00 
   @DF-RHF iter   1:  -303.89327463604610   -1.93852e+00   2.23952e-03 DIIS/ADIIS
   @DF-RHF iter   2:  -304.10362190564973   -2.10347e-01   1.52839e-03 DIIS/ADIIS
   @DF-RHF iter   3:  -304.23020882246499   -1.26587e-01   1.06660e-04 DIIS/ADIIS
   @DF-RHF iter   4:  -304.23187630384820   -1.66748e-03   2.63026e-05 DIIS
   @DF-RHF iter   5:  -304.23197932624817   -1.03022e-04   7.67499e-06 DIIS
   @DF-RHF iter   6:  -304.23198869326046   -9.36701e-06   3.47065e-06 DIIS
   @DF-RHF iter   7:  -304.23199000651022   -1.31325e-06   7.40053e-07 DIIS
   @DF-RHF iter   8:  -304.23199014187168   -1.35361e-07   1.31094e-07 DIIS
   @DF-RHF iter   9:  -304.23199014589215   -4.02048e-09   2.55486e-08 DIIS
   @DF-RHF iter  10:  -304.23199014600374   -1.11584e-10   1.12993e-08 DIIS
   @DF-RHF iter  11:  -304.23199014601886   -1.51203e-11   3.79018e-09 DIIS
  Energy and wave function converged.


  ==> Post-Iterations <==

    Orbital Energies [Eh]
    ---------------------

    Doubly Occupied:                                                      

       1A    -20.595679     2A    -20.589536     3A    -20.577626  
       4A    -20.574314     5A     -1.387715     6A     -1.364713  
       7A     -1.364111     8A     -1.356394     9A     -0.758650  
      10A     -0.733174    11A     -0.729786    12A     -0.725347  
      13A     -0.616495    14A     -0.593551    15A     -0.593311  
      16A     -0.587654    17A     -0.541046    18A     -0.527345  
      19A     -0.518940    20A     -0.518004  

    Virtual:                                                              

      21A      0.007922    22A      0.028824    23A      0.037941  
      24A      0.046055    25A      0.051950    26A      0.061832  
      27A      0.068168    28A      0.078928    29A      0.086090  
      30A      0.105141    31A      0.119174    32A      0.128580  
      33A      0.140144    34A      0.143372    35A      0.150849  
      36A      0.157613    37A      0.163900    38A      0.176316  
      39A      0.178863    40A      0.187456    41A      0.190176  
      42A      0.196861    43A      0.203446    44A      0.206661  
      45A      0.212278    46A      0.225000    47A      0.225560  
      48A      0.230972    49A      0.241066    50A      0.244936  
      51A      0.253837    52A      0.270270    53A      0.280405  
      54A      0.282298    55A      0.288877    56A      0.293486  
      57A      0.298123    58A      0.304340    59A      0.327106  
      60A      0.333814    61A      0.336419    62A      0.341445  
      63A      0.345648    64A      0.357883    65A      0.369326  
      66A      0.370998    67A      0.397934    68A      0.403255  
      69A      0.409133    70A      0.417870    71A      0.436261  
      72A      0.442502    73A      0.449075    74A      0.465322  
      75A      0.478269    76A      0.487098    77A      0.495070  
      78A      0.500691    79A      0.516736    80A      0.520388  
      81A      0.540343    82A      0.560830    83A      0.572607  
      84A      0.586519    85A      0.603154    86A      0.607506  
      87A      0.623816    88A      0.631961    89A      0.635866  
      90A      0.651666    91A      0.663854    92A      0.664485  
      93A      0.674931    94A      0.680522    95A      0.699704  
      96A      0.703066    97A      0.716035    98A      0.729845  
      99A      0.735078   100A      0.740487   101A      0.745479  
     102A      0.751595   103A      0.756856   104A      0.764773  
     105A      0.766174   106A      0.778916   107A      0.787728  
     108A      0.821521   109A      0.830672   110A      0.842137  
     111A      0.850438   112A      0.867954   113A      0.872561  
     114A      0.886341   115A      0.894889   116A      0.910538  
     117A      0.916765   118A      0.920573   119A      0.927886  
     120A      0.934235   121A      0.939140   122A      0.945940  
     123A      0.955449   124A      0.957245   125A      0.963966  
     126A      0.967270   127A      0.974862   128A      0.982705  
     129A      0.992215   130A      0.999705   131A      1.011754  
     132A      1.013989   133A      1.025830   134A      1.036445  
     135A      1.041445   136A      1.051779   137A      1.061310  
     138A      1.075120   139A      1.085951   140A      1.092741  
     141A      1.102274   142A      1.115269   143A      1.123773  
     144A      1.135552   145A      1.150229   146A      1.155999  
     147A      1.160565   148A      1.186844   149A      1.195232  
     150A      1.203908   151A      1.211691   152A      1.215786  
     153A      1.227376   154A      1.230964   155A      1.238150  
     156A      1.251843   157A      1.263242   158A      1.271832  
     159A      1.284749   160A      1.301067   161A      1.310238  
     162A      1.318494   163A      1.330586   164A      1.341353  
     165A      1.355786   166A      1.374050   167A      1.396066  
     168A      1.445285   169A      1.460525   170A      1.499445  
     171A      1.513015   172A      1.521104   173A      1.532433  
     174A      1.544066   175A      1.548810   176A      1.558777  
     177A      1.564232   178A      1.570247   179A      1.576779  
     180A      1.584941   181A      1.605106   182A      1.619708  
     183A      1.625157   184A      1.653206   185A      1.666277  
     186A      1.681313   187A      1.697038   188A      1.712657  
     189A      1.717273   190A      1.737460   191A      1.751496  
     192A      1.779355   193A      1.790263   194A      1.808786  
     195A      1.822936   196A      1.835194   197A      1.864503  
     198A      1.876767   199A      1.882679   200A      1.899838  
     201A      1.937515   202A      1.959500   203A      1.985167  
     204A      2.022310   205A      2.047506   206A      2.068203  
     207A      2.125295   208A      2.148552   209A      2.176425  
     210A      2.182297   211A      2.279947   212A      2.290702  
     213A      2.297071   214A      2.334205   215A      2.344302  
     216A      2.358825   217A      2.370728   218A      2.383721  
     219A      2.390227   220A      2.411175   221A      2.436351  
     222A      2.446858   223A      2.453118   224A      2.465847  
     225A      2.468565   226A      2.487779   227A      2.505946  
     228A      2.508601   229A      2.528180   230A      2.536348  
     231A      2.556517   232A      2.563758   233A      2.570412  
     234A      2.579088   235A      2.588143   236A      2.597272  
     237A      2.636881   238A      2.645115   239A      2.657659  
     240A      2.679544   241A      2.690326   242A      2.736107  
     243A      2.741546   244A      2.747732   245A      2.752359  
     246A      2.762968   247A      2.771473   248A      2.775451  
     249A      2.799005   250A      2.825138   251A      2.844373  
     252A      2.889947   253A      2.911500   254A      2.925693  
     255A      2.934497   256A      2.945581   257A      2.957302  
     258A      2.991466   259A      3.036513   260A      3.047120  
     261A      3.091578   262A      3.682874   263A      3.691815  
     264A      3.720933   265A      3.776631   266A      3.809020  
     267A      3.821309   268A      3.853256   269A      3.907722  
     270A      3.939120   271A      3.985704   272A      4.003402  
     273A      4.028515   274A      4.034691   275A      4.069470  
     276A      4.079055   277A      4.096490   278A      4.111266  
     279A      4.130932   280A      4.166922   281A      4.178214  
     282A      4.182878   283A      4.212549   284A      4.223841  
     285A      4.232196   286A      4.246366   287A      4.248510  
     288A      4.262579   289A      4.263481   290A      4.271896  
     291A      4.282545   292A      4.301884   293A      4.317829  
     294A      4.324271   295A      4.330047   296A      4.335881  
     297A      4.358444   298A      4.372300   299A      4.384039  
     300A      4.386002   301A      4.393801   302A      4.406339  
     303A      4.417914   304A      4.426825   305A      4.433705  
     306A      4.438838   307A      4.465837   308A      4.487215  
     309A      4.503660   310A      4.509203   311A      4.517454  
     312A      4.543346   313A      4.562077   314A      4.581543  
     315A      4.641978   316A      4.668913   317A      4.730811  
     318A      4.737514   319A      4.754358   320A      4.759214  
     321A      4.781402   322A      4.798175   323A      4.854152  
     324A      4.872798   325A      4.907716   326A      4.937876  
     327A      4.979939   328A      5.101369   329A      5.109692  
     330A      5.118994   331A      5.133744   332A      5.169946  
     333A      5.178951   334A      5.186745   335A      5.209457  
     336A      5.228494   337A      5.239713   338A      5.283478  
     339A      5.314961   340A      5.347400   341A      5.353459  
     342A      5.380078   343A      5.384482   344A      5.389693  
     345A      5.465422   346A      5.482022   347A      5.499167  
     348A      5.560022   349A      5.569997   350A      5.695561  
     351A      5.746423   352A      5.755715   353A      5.789376  
     354A      6.175378   355A      6.191440   356A      6.232860  
     357A      6.256826   358A      6.534035   359A      6.550559  
     360A      6.567528   361A      6.569937   362A      6.740151  
     363A      6.751094   364A      6.769930   365A      6.824831  
     366A      6.894771   367A      6.903903   368A      6.926851  
     369A      6.934124   370A      7.114889   371A      7.130137  
     372A      7.158585   373A      7.218975   374A      7.252143  
     375A      7.264219   376A      7.292405   377A      7.299040  
     378A      7.301460   379A      7.319779   380A      7.327117  
     381A      7.338433   382A      7.339836   383A      7.349306  
     384A      7.357536   385A      7.364966   386A      7.367009  
     387A      7.390800   388A      7.391340   389A      7.408969  
     390A      7.426218   391A      7.445723   392A      7.465000  
     393A      7.511271   394A      7.571574   395A      7.686562  
     396A      7.704837   397A      7.759765   398A      7.893835  
     399A      7.911374   400A      7.924579   401A      7.957626  
     402A      7.968301   403A      7.997828   404A      8.024076  
     405A      8.034419   406A      8.724821   407A      8.776851  
     408A      8.850366   409A      8.857715   410A     15.095634  
     411A     16.085071   412A     16.203936   413A     16.443146  
     414A     17.291592   415A     27.763242   416A     28.193842  
     417A     28.297507   418A    160.865035  

    Final Occupation by Irrep:
              A 
    DOCC [    20 ]
    NA   [    20 ]
    NB   [    20 ]

  @DF-RHF Final Energy:  -304.23199014601886

   => Energetics <=

    Nuclear Repulsion Energy =            103.9808192213519078
    One-Electron Energy =                -625.9188375326693858
    Two-Electron Energy =                 217.7060281652986191
    Total Energy =                       -304.2319901460188589

Computation Completed


Properties will be evaluated at   0.000000,   0.000000,   0.000000 [a0]

Properties computed using the SCF density matrix


 Multipole Moments:

 ------------------------------------------------------------------------------------
     Multipole            Electronic (a.u.)      Nuclear  (a.u.)        Total (a.u.)
 ------------------------------------------------------------------------------------

 L = 1.  Multiply by 2.5417464519 to convert [e a0] to [Debye]
 Dipole X            :        -24.0161548           23.8273734           -0.1887813
 Dipole Y            :         52.0589855          -53.2663112           -1.2073258
 Dipole Z            :         -1.4181304            0.7276088           -0.6905216
 Magnitude           :                                                    1.4036003

 ------------------------------------------------------------------------------------

*** tstop() called on moses-razer at Sat Jan  6 23:15:09 2024
Module time:
	user time   =      27.30 seconds =       0.46 minutes
	system time =       1.07 seconds =       0.02 minutes
	total time  =          5 seconds =       0.08 minutes
Total time:
	user time   =      27.30 seconds =       0.46 minutes
	system time =       1.07 seconds =       0.02 minutes
	total time  =          5 seconds =       0.08 minutes

*** tstart() called on moses-razer
*** at Sat Jan  6 23:15:09 2024


  //>>>>>>>>>>>>>>>>>>>>>>>>>>>>>>>>>>>//
  //               DFMP2               //
  //<<<<<<<<<<<<<<<<<<<<<<<<<<<<<<<<<<<//

   => Loading Basis Set <=

    Name: (AUG-CC-PVTZ AUX)
    Role: RIFIT
    Keyword: DF_BASIS_MP2
    atoms 1                     entry CL         line   742 file /home/kchung25/anaconda3/envs/p415env/share/psi4/basis/aug-cc-pvtz-ri.gbs 
    atoms 2, 5, 8, 11           entry O          line   264 file /home/kchung25/anaconda3/envs/p415env/share/psi4/basis/aug-cc-pvtz-ri.gbs 
    atoms 3-4, 6-7, 9-10, 12-13 entry H          line    30 file /home/kchung25/anaconda3/envs/p415env/share/psi4/basis/aug-cc-pvtz-ri.gbs 

	 --------------------------------------------------------
	                          DF-MP2                         
	      2nd-Order Density-Fitted Moller-Plesset Theory     
	              RMP2 Wavefunction,   6 Threads             
	                                                         
	        Rob Parrish, Justin Turney, Andy Simmonett,      
	           Ed Hohenstein, and C. David Sherrill          
	 --------------------------------------------------------

   => Auxiliary Basis Set <=

  Basis Set: (AUG-CC-PVTZ AUX)
    Blend: AUG-CC-PVTZ-RI
    Number of shells: 261
    Number of basis functions: 939
    Number of Cartesian functions: 1175
    Spherical Harmonics?: true
    Max angular momentum: 4

	 --------------------------------------------------------
	                 NBF =   418, NAUX =   939
	 --------------------------------------------------------
	   CLASS    FOCC     OCC    AOCC    AVIR     VIR    FVIR
	   PAIRS       0      20      20     398     398       0
	 --------------------------------------------------------

	-----------------------------------------------------------
	 ==================> DF-MP2 Energies <==================== 
	-----------------------------------------------------------
	 Reference Energy          =    -304.2319901460188589 [Eh]
	 Singles Energy            =      -0.0000000000000000 [Eh]
	 Same-Spin Energy          =      -0.2745963837539163 [Eh]
	 Opposite-Spin Energy      =      -0.8645366846316741 [Eh]
	 Correlation Energy        =      -1.1391330683855903 [Eh]
	 Total Energy              =    -305.3711232144044629 [Eh]
	-----------------------------------------------------------
	 ================> DF-SCS-MP2 Energies <================== 
	-----------------------------------------------------------
	 SCS Same-Spin Scale       =       0.3333333333333333 [-]
	 SCS Opposite-Spin Scale   =       1.2000000000000000 [-]
	 SCS Same-Spin Energy      =      -0.0915321279179721 [Eh]
	 SCS Opposite-Spin Energy  =      -1.0374440215580090 [Eh]
	 SCS Correlation Energy    =      -1.1289761494759811 [Eh]
	 SCS Total Energy          =    -305.3609662954948476 [Eh]
	-----------------------------------------------------------


*** tstop() called on moses-razer at Sat Jan  6 23:15:12 2024
Module time:
	user time   =      10.19 seconds =       0.17 minutes
	system time =       0.69 seconds =       0.01 minutes
	total time  =          3 seconds =       0.05 minutes
Total time:
	user time   =      37.49 seconds =       0.62 minutes
	system time =       1.76 seconds =       0.03 minutes
	total time  =          8 seconds =       0.13 minutes

    Psi4 stopped on: Saturday, 06 January 2024 11:15PM
    Psi4 wall time for execution: 0:00:07.68


    -----------------------------------------------------------------------
          Psi4: An Open-Source Ab Initio Electronic Structure Package
                               Psi4 1.9 release

                         Git: Rev {} zzzzzzz 


    D. G. A. Smith, L. A. Burns, A. C. Simmonett, R. M. Parrish,
    M. C. Schieber, R. Galvelis, P. Kraus, H. Kruse, R. Di Remigio,
    A. Alenaizan, A. M. James, S. Lehtola, J. P. Misiewicz, M. Scheurer,
    R. A. Shaw, J. B. Schriber, Y. Xie, Z. L. Glick, D. A. Sirianni,
    J. S. O'Brien, J. M. Waldrop, A. Kumar, E. G. Hohenstein,
    B. P. Pritchard, B. R. Brooks, H. F. Schaefer III, A. Yu. Sokolov,
    K. Patkowski, A. E. DePrince III, U. Bozkaya, R. A. King,
    F. A. Evangelista, J. M. Turney, T. D. Crawford, C. D. Sherrill,
    J. Chem. Phys. 152(18) 184108 (2020). https://doi.org/10.1063/5.0006002

                            Additional Code Authors
    E. T. Seidl, C. L. Janssen, E. F. Valeev, M. L. Leininger,
    J. F. Gonthier, R. M. Richard, H. R. McAlexander, M. Saitow, X. Wang,
    P. Verma, M. H. Lechner, A. Jiang, S. Behnle, A. G. Heide,
    M. F. Herbst, and D. L. Poole

             Previous Authors, Complete List of Code Contributors,
                       and Citations for Specific Modules
    https://github.com/psi4/psi4/blob/master/codemeta.json
    https://github.com/psi4/psi4/graphs/contributors
    http://psicode.org/psi4manual/master/introduction.html#citing-psifour

    -----------------------------------------------------------------------


    Psi4 started on: Saturday, 06 January 2024 11:15PM

    Process ID: 559816
    Host:       moses-razer
    PSIDATADIR: /home/kchung25/anaconda3/envs/psi4_19/share/psi4
    Memory:     55.9 GiB
    Threads:    6
    
  ==> Input QCSchema <==

--------------------------------------------------------------------------
{'driver': 'energy',
 'extras': {'psiapi': True, 'wfn_qcvars_only': True},
 'id': None,
 'keywords': {'SCF_TYPE': 'DF', 'function_kwargs': {}},
 'model': {'basis': 'aug-cc-pvtz', 'method': 'mp2'},
 'molecule': {'atom_labels': ['', '', '', '', '', '', '', '', '', '', '', '', ''],
              'atomic_numbers': [17, 8, 1, 1, 8, 1, 1, 8, 1, 1, 8, 1, 1],
              'extras': {},
              'fix_com': True,
              'fix_orientation': True,
              'fix_symmetry': 'c1',
              'fragment_charges': [-1.0, 0.0],
              'fragment_multiplicities': [1, 1],
              'fragments': [[0], [1, 2, 3, 4, 5, 6, 7, 8, 9, 10, 11, 12]],
              'geometry': [0.0, 0.0, 0.0, 3.7878917677919506, -0.9376386397512888, 4.812255608618876, 4.885403127483097,
                           -2.182227383786818, 4.138180851037441, 2.5764922836978377, -0.5034457165354709,
                           3.459156900733433, 4.685727106162721, -3.0200185642472914, -2.3194101621383036,
                           3.453160799737355, -2.066349377773744, -1.4772669424109004, 3.848364893532727,
                           -4.481162363355786, -3.000526039263194, -5.2374458765730125, 1.5825643718475364,
                           3.4447345109439387, -6.117874947602191, 1.5501971427706946, 1.8698991189495247,
                           -4.390903374425544, 0.006392943482423832, 3.5282226111666652, -0.7864548805362861,
                           -2.606357515384573, -5.675431480122624, -0.3193467076672438, -1.6932380721110996,
                           -4.099673901778987, 0.2943324029445586, -4.044875623592961, -5.787571607859541],
              'mass_numbers': [35, 16, 1, 1, 16, 1, 1, 16, 1, 1, 16, 1, 1],
              'masses': [34.968852682, 15.99491461957, 1.00782503223, 1.00782503223, 15.99491461957, 1.00782503223,
                         1.00782503223, 15.99491461957, 1.00782503223, 1.00782503223, 15.99491461957, 1.00782503223,
                         1.00782503223],
              'molecular_charge': -1.0,
              'molecular_multiplicity': 1,
              'name': 'dimer',
              'provenance': {'creator': 'QCElemental',
                             'routine': 'qcelemental.molparse.from_string',
                             'version': '0.27.1'},
              'real': [True, False, False, False, False, False, False, False, False, False, False, False, False],
              'schema_name': 'qcschema_molecule',
              'schema_version': 2,
              'symbols': ['Cl', 'O', 'H', 'H', 'O', 'H', 'H', 'O', 'H', 'H', 'O', 'H', 'H'],
              'validated': True},
 'protocols': {'stdout': True},
 'provenance': {'creator': 'QCElemental', 'routine': 'qcelemental.models.results', 'version': '0.27.1'},
 'schema_name': 'qcschema_input',
 'schema_version': 1}
--------------------------------------------------------------------------

Scratch directory: /scratch/
   => Libint2 <=

    Primary   basis highest AM E, G, H:  5, 4, 3
    Auxiliary basis highest AM E, G, H:  6, 5, 4
    Onebody   basis highest AM E, G, H:  6, 5, 4
    Solid Harmonics ordering:            gaussian

*** tstart() called on moses-razer
*** at Sat Jan  6 23:15:12 2024

   => Loading Basis Set <=

    Name: AUG-CC-PVTZ
    Role: ORBITAL
    Keyword: BASIS
    atoms 1                     entry CL         line   988 file /home/kchung25/anaconda3/envs/p415env/share/psi4/basis/aug-cc-pvtz.gbs 
    atoms 2, 5, 8, 11           entry O          line   331 file /home/kchung25/anaconda3/envs/p415env/share/psi4/basis/aug-cc-pvtz.gbs 
    atoms 3-4, 6-7, 9-10, 12-13 entry H          line    40 file /home/kchung25/anaconda3/envs/p415env/share/psi4/basis/aug-cc-pvtz.gbs 


         ---------------------------------------------------------
                                   SCF
               by Justin Turney, Rob Parrish, Andy Simmonett
                          and Daniel G. A. Smith
                              RHF Reference
                        6 Threads,  57220 MiB Core
         ---------------------------------------------------------

  ==> Geometry <==

    Molecular point group: c1
    Full point group: C1

    Geometry (in Bohr), charge = -1, multiplicity = 1:

       Center              X                  Y                   Z               Mass       
    ------------   -----------------  -----------------  -----------------  -----------------
         CL           0.000000000000     0.000000000000     0.000000000000    34.968852682000
      Gh(O)           3.787891767792    -0.937638639751     4.812255608619    15.994914619570
      Gh(H)           4.885403127483    -2.182227383787     4.138180851037     1.007825032230
      Gh(H)           2.576492283698    -0.503445716535     3.459156900733     1.007825032230
      Gh(O)           4.685727106163    -3.020018564247    -2.319410162138    15.994914619570
      Gh(H)           3.453160799737    -2.066349377774    -1.477266942411     1.007825032230
      Gh(H)           3.848364893533    -4.481162363356    -3.000526039263     1.007825032230
      Gh(O)          -5.237445876573     1.582564371848     3.444734510944    15.994914619570
      Gh(H)          -6.117874947602     1.550197142771     1.869899118950     1.007825032230
      Gh(H)          -4.390903374426     0.006392943482     3.528222611167     1.007825032230
      Gh(O)          -0.786454880536    -2.606357515385    -5.675431480123    15.994914619570
      Gh(H)          -0.319346707667    -1.693238072111    -4.099673901779     1.007825032230
      Gh(H)           0.294332402945    -4.044875623593    -5.787571607860     1.007825032230

  Running in c1 symmetry.

  Rotational constants: A =      0.05153  B =      0.03575  C =      0.02234 [cm^-1]
  Rotational constants: A =   1544.92618  B =   1071.90344  C =    669.76071 [MHz]
  Nuclear repulsion =    0.000000000000000

  Charge       = -1
  Multiplicity = 1
  Electrons    = 18
  Nalpha       = 9
  Nbeta        = 9

  ==> Algorithm <==

  SCF Algorithm Type is DF.
  DIIS enabled.
  MOM disabled.
  Fractional occupation disabled.
  Guess Type is SAD.
  Energy threshold   = 1.00e-08
  Density threshold  = 1.00e-08
  Integral threshold = 1.00e-12

  ==> Primary Basis <==

  Basis Set: AUG-CC-PVTZ
    Blend: AUG-CC-PVTZ
    Number of shells: 144
    Number of basis functions: 418
    Number of Cartesian functions: 479
    Spherical Harmonics?: true
    Max angular momentum: 3

   => Loading Basis Set <=

    Name: (AUG-CC-PVTZ AUX)
    Role: JKFIT
    Keyword: DF_BASIS_SCF
    atoms 1                     entry CL         line   816 file /home/kchung25/anaconda3/envs/p415env/share/psi4/basis/aug-cc-pvtz-jkfit.gbs 
    atoms 2, 5, 8, 11           entry O          line   286 file /home/kchung25/anaconda3/envs/p415env/share/psi4/basis/aug-cc-pvtz-jkfit.gbs 
    atoms 3-4, 6-7, 9-10, 12-13 entry H          line    70 file /home/kchung25/anaconda3/envs/p415env/share/psi4/basis/aug-cc-pvtz-jkfit.gbs 

  ==> Integral Setup <==

  DFHelper Memory: AOs need 1.091 GiB; user supplied 41.910 GiB. 
  Using in-core AOs.

  ==> MemDFJK: Density-Fitted J/K Matrices <==

    J tasked:                   Yes
    K tasked:                   Yes
    wK tasked:                   No
    OpenMP threads:               6
    Memory [MiB]:             42915
    Algorithm:                 Core
    Schwarz Cutoff:           1E-12
    Mask sparsity (%):      13.9466
    Fitting Condition:        1E-10

   => Auxiliary Basis Set <=

  Basis Set: (AUG-CC-PVTZ AUX)
    Blend: AUG-CC-PVTZ-JKFIT
    Number of shells: 274
    Number of basis functions: 930
    Number of Cartesian functions: 1144
    Spherical Harmonics?: true
    Max angular momentum: 4

  Minimum eigenvalue in the overlap matrix is 1.8465007632E-04.
  Reciprocal condition number of the overlap matrix is 1.6765579556E-05.
    Using symmetric orthogonalization.

  ==> Pre-Iterations <==

  SCF Guess: Superposition of Atomic Densities via on-the-fly atomic UHF (no occupation information).

   -------------------------
    Irrep   Nso     Nmo    
   -------------------------
     A        418     418 
   -------------------------
    Total     418     418
   -------------------------

  ==> Iterations <==

                           Total Energy        Delta E     RMS |[F,P]|

   @DF-RHF iter SAD:  -459.11248997995136   -4.59112e+02   0.00000e+00 
   @DF-RHF iter   1:  -459.51389275319985   -4.01403e-01   7.14332e-04 DIIS/ADIIS
   @DF-RHF iter   2:  -459.56479258389038   -5.08998e-02   3.65819e-04 DIIS/ADIIS
   @DF-RHF iter   3:  -459.57349091993962   -8.69834e-03   2.53479e-05 DIIS
   @DF-RHF iter   4:  -459.57354814500366   -5.72251e-05   4.99204e-06 DIIS
   @DF-RHF iter   5:  -459.57355178902299   -3.64402e-06   5.15322e-07 DIIS
   @DF-RHF iter   6:  -459.57355187156361   -8.25406e-08   4.38614e-08 DIIS
   @DF-RHF iter   7:  -459.57355187244485   -8.81244e-10   5.30556e-09 DIIS
  Energy and wave function converged.


  ==> Post-Iterations <==

    Orbital Energies [Eh]
    ---------------------

    Doubly Occupied:                                                      

       1A   -104.506867     2A    -10.229959     3A     -7.696051  
       4A     -7.695999     5A     -7.695984     6A     -0.733477  
       7A     -0.150319     8A     -0.150314     9A     -0.150305  

    Virtual:                                                              

      10A      0.124773    11A      0.131283    12A      0.136157  
      13A      0.146985    14A      0.155356    15A      0.170680  
      16A      0.174832    17A      0.178892    18A      0.232355  
      19A      0.243401    20A      0.248544    21A      0.256726  
      22A      0.258255    23A      0.263263    24A      0.269412  
      25A      0.273577    26A      0.280060    27A      0.286386  
      28A      0.293803    29A      0.305952    30A      0.314482  
      31A      0.321543    32A      0.324987    33A      0.336473  
      34A      0.341012    35A      0.359784    36A      0.375884  
      37A      0.389083    38A      0.392274    39A      0.407496  
      40A      0.422149    41A      0.430922    42A      0.439463  
      43A      0.442632    44A      0.455620    45A      0.462301  
      46A      0.464119    47A      0.479042    48A      0.491315  
      49A      0.495011    50A      0.500893    51A      0.503454  
      52A      0.510383    53A      0.519672    54A      0.524113  
      55A      0.530836    56A      0.537977    57A      0.555671  
      58A      0.556626    59A      0.569347    60A      0.575444  
      61A      0.584611    62A      0.592333    63A      0.623150  
      64A      0.623513    65A      0.637549    66A      0.663153  
      67A      0.666337    68A      0.684194    69A      0.700093  
      70A      0.719577    71A      0.724726    72A      0.760050  
      73A      0.780976    74A      0.796765    75A      0.819217  
      76A      0.829729    77A      0.845500    78A      0.862131  
      79A      0.877945    80A      0.889396    81A      0.896857  
      82A      0.900673    83A      0.907724    84A      0.920431  
      85A      0.922975    86A      0.927910    87A      0.933647  
      88A      0.946428    89A      0.953411    90A      0.955841  
      91A      0.969170    92A      0.974532    93A      0.975924  
      94A      0.986752    95A      0.988123    96A      0.993176  
      97A      0.999808    98A      1.016229    99A      1.019801  
     100A      1.027983   101A      1.037142   102A      1.045773  
     103A      1.048096   104A      1.051844   105A      1.058020  
     106A      1.070363   107A      1.079883   108A      1.087322  
     109A      1.095178   110A      1.097312   111A      1.102448  
     112A      1.109641   113A      1.122045   114A      1.132748  
     115A      1.136970   116A      1.139963   117A      1.142969  
     118A      1.151423   119A      1.162464   120A      1.165414  
     121A      1.171792   122A      1.192922   123A      1.210553  
     124A      1.214888   125A      1.224565   126A      1.233438  
     127A      1.242518   128A      1.255144   129A      1.272144  
     130A      1.288559   131A      1.296747   132A      1.305008  
     133A      1.321263   134A      1.325856   135A      1.339178  
     136A      1.354132   137A      1.365088   138A      1.371822  
     139A      1.374272   140A      1.387271   141A      1.391374  
     142A      1.425700   143A      1.431693   144A      1.445520  
     145A      1.460650   146A      1.463462   147A      1.476226  
     148A      1.496768   149A      1.509754   150A      1.529137  
     151A      1.533796   152A      1.559110   153A      1.571391  
     154A      1.589861   155A      1.613498   156A      1.637081  
     157A      1.650656   158A      1.659246   159A      1.671709  
     160A      1.673791   161A      1.701494   162A      1.720061  
     163A      1.752292   164A      1.762635   165A      1.820508  
     166A      1.837645   167A      1.851451   168A      1.867852  
     169A      1.873263   170A      1.884572   171A      1.885817  
     172A      1.898040   173A      1.905614   174A      1.920261  
     175A      1.933362   176A      1.941060   177A      1.949209  
     178A      1.952220   179A      1.978892   180A      1.990894  
     181A      2.007542   182A      2.019658   183A      2.024454  
     184A      2.040131   185A      2.043362   186A      2.051881  
     187A      2.072237   188A      2.087860   189A      2.115316  
     190A      2.126050   191A      2.165365   192A      2.182673  
     193A      2.231281   194A      2.244789   195A      2.260796  
     196A      2.329307   197A      2.336611   198A      2.357363  
     199A      2.533382   200A      2.609474   201A      2.613610  
     202A      2.623823   203A      2.639723   204A      2.655073  
     205A      2.674279   206A      2.682150   207A      2.684674  
     208A      2.687967   209A      2.698923   210A      2.726486  
     211A      2.738009   212A      2.757447   213A      2.769804  
     214A      2.772393   215A      2.782586   216A      2.791580  
     217A      2.800550   218A      2.805585   219A      2.817603  
     220A      2.821342   221A      2.840051   222A      2.853238  
     223A      2.862078   224A      2.887594   225A      2.907659  
     226A      2.915440   227A      2.940538   228A      2.954225  
     229A      2.995652   230A      3.001519   231A      3.024044  
     232A      3.036326   233A      3.076803   234A      3.086798  
     235A      3.094987   236A      3.154367   237A      3.165292  
     238A      3.173563   239A      3.206577   240A      3.325625  
     241A      3.330641   242A      3.338946   243A      3.344226  
     244A      3.354684   245A      3.371766   246A      3.377216  
     247A      3.386430   248A      3.399862   249A      3.424022  
     250A      3.437577   251A      3.455110   252A      3.480400  
     253A      3.486586   254A      3.494806   255A      3.502316  
     256A      3.542562   257A      3.555403   258A      3.578183  
     259A      3.590104   260A      3.593532   261A      3.626151  
     262A      3.635199   263A      3.669794   264A      3.675477  
     265A      3.707667   266A      3.713738   267A      3.763591  
     268A      3.789550   269A      3.797307   270A      3.808296  
     271A      3.829260   272A      3.854112   273A      3.932692  
     274A      3.941571   275A      3.976888   276A      4.045588  
     277A      4.075353   278A      4.539043   279A      4.557245  
     280A      4.572162   281A      4.611547   282A      4.619519  
     283A      4.634845   284A      4.664085   285A      4.679660  
     286A      4.708222   287A      4.733741   288A      4.753426  
     289A      4.787770   290A      4.802583   291A      4.806358  
     292A      4.812569   293A      4.837743   294A      4.852277  
     295A      4.854922   296A      4.868701   297A      4.901586  
     298A      4.911589   299A      4.981373   300A      5.004260  
     301A      5.024822   302A      5.026909   303A      5.035929  
     304A      5.056980   305A      5.075226   306A      5.096230  
     307A      5.138014   308A      5.152548   309A      5.157561  
     310A      5.174104   311A      5.235402   312A      5.249726  
     313A      5.261076   314A      5.362781   315A      5.382960  
     316A      5.417396   317A      5.508803   318A      5.670474  
     319A      5.688636   320A      5.725680   321A      5.736380  
     322A      5.746073   323A      5.788091   324A      5.808041  
     325A      5.817969   326A      5.835393   327A      5.850339  
     328A      5.866146   329A      5.961226   330A      6.000359  
     331A      6.014195   332A      6.023293   333A      6.075672  
     334A      6.275861   335A      6.325139   336A      6.344664  
     337A      6.377877   338A      6.592709   339A      6.604793  
     340A      6.608856   341A      6.704009   342A      6.808362  
     343A      6.821145   344A      6.851612   345A      6.928683  
     346A      7.099509   347A      7.239491   348A      7.269332  
     349A      7.271208   350A      7.400152   351A      7.848139  
     352A      7.862787   353A      7.883478   354A      7.946113  
     355A      7.991451   356A      7.993053   357A      8.002505  
     358A      8.032893   359A      8.219516   360A      8.229313  
     361A      8.242414   362A      8.362399   363A      8.366107  
     364A      8.419624   365A      8.430364   366A      8.435999  
     367A      8.461102   368A      8.477910   369A      8.486860  
     370A      8.514797   371A      8.933667   372A      8.955150  
     373A      8.963964   374A      9.033348   375A      9.059254  
     376A      9.061799   377A      9.105305   378A      9.314339  
     379A      9.843711   380A      9.852707   381A      9.871951  
     382A      9.931851   383A     10.002473   384A     10.009693  
     385A     10.031651   386A     10.077417   387A     10.167222  
     388A     10.221624   389A     10.233880   390A     10.302963  
     391A     10.375866   392A     10.456273   393A     10.493850  
     394A     10.501316   395A     11.268918   396A     11.321379  
     397A     11.444090   398A     11.445150   399A     11.829136  
     400A     11.841085   401A     11.856212   402A     11.990271  
     403A     12.216963   404A     12.296568   405A     12.366881  
     406A     12.515545   407A     13.689438   408A     13.733374  
     409A     13.763905   410A     13.932830   411A     13.942472  
     412A     14.109825   413A     14.118133   414A     14.189690  
     415A     65.459427   416A     65.545881   417A     66.108957  
     418A     67.922994  

    Final Occupation by Irrep:
              A 
    DOCC [     9 ]
    NA   [     9 ]
    NB   [     9 ]

  @DF-RHF Final Energy:  -459.57355187244485

   => Energetics <=

    Nuclear Repulsion Energy =              0.0000000000000000
    One-Electron Energy =                -641.1285684527035755
    Two-Electron Energy =                 181.5550165802587514
    Total Energy =                       -459.5735518724447957

Computation Completed


Properties will be evaluated at   0.000000,   0.000000,   0.000000 [a0]

Properties computed using the SCF density matrix


 Multipole Moments:

 ------------------------------------------------------------------------------------
     Multipole            Electronic (a.u.)      Nuclear  (a.u.)        Total (a.u.)
 ------------------------------------------------------------------------------------

 L = 1.  Multiply by 2.5417464519 to convert [e a0] to [Debye]
 Dipole X            :          0.0002453            0.0000000            0.0002453
 Dipole Y            :         -0.0003601            0.0000000           -0.0003601
 Dipole Z            :          0.0000122            0.0000000            0.0000122
 Magnitude           :                                                    0.0004359

 ------------------------------------------------------------------------------------

*** tstop() called on moses-razer at Sat Jan  6 23:15:16 2024
Module time:
	user time   =      21.80 seconds =       0.36 minutes
	system time =       0.93 seconds =       0.02 minutes
	total time  =          4 seconds =       0.07 minutes
Total time:
	user time   =      59.65 seconds =       0.99 minutes
	system time =       2.69 seconds =       0.04 minutes
	total time  =         12 seconds =       0.20 minutes

*** tstart() called on moses-razer
*** at Sat Jan  6 23:15:16 2024


  //>>>>>>>>>>>>>>>>>>>>>>>>>>>>>>>>>>>//
  //               DFMP2               //
  //<<<<<<<<<<<<<<<<<<<<<<<<<<<<<<<<<<<//

   => Loading Basis Set <=

    Name: (AUG-CC-PVTZ AUX)
    Role: RIFIT
    Keyword: DF_BASIS_MP2
    atoms 1                     entry CL         line   742 file /home/kchung25/anaconda3/envs/p415env/share/psi4/basis/aug-cc-pvtz-ri.gbs 
    atoms 2, 5, 8, 11           entry O          line   264 file /home/kchung25/anaconda3/envs/p415env/share/psi4/basis/aug-cc-pvtz-ri.gbs 
    atoms 3-4, 6-7, 9-10, 12-13 entry H          line    30 file /home/kchung25/anaconda3/envs/p415env/share/psi4/basis/aug-cc-pvtz-ri.gbs 

	 --------------------------------------------------------
	                          DF-MP2                         
	      2nd-Order Density-Fitted Moller-Plesset Theory     
	              RMP2 Wavefunction,   6 Threads             
	                                                         
	        Rob Parrish, Justin Turney, Andy Simmonett,      
	           Ed Hohenstein, and C. David Sherrill          
	 --------------------------------------------------------

   => Auxiliary Basis Set <=

  Basis Set: (AUG-CC-PVTZ AUX)
    Blend: AUG-CC-PVTZ-RI
    Number of shells: 261
    Number of basis functions: 939
    Number of Cartesian functions: 1175
    Spherical Harmonics?: true
    Max angular momentum: 4

	 --------------------------------------------------------
	                 NBF =   418, NAUX =   939
	 --------------------------------------------------------
	   CLASS    FOCC     OCC    AOCC    AVIR     VIR    FVIR
	   PAIRS       0       9       9     409     409       0
	 --------------------------------------------------------

	-----------------------------------------------------------
	 ==================> DF-MP2 Energies <==================== 
	-----------------------------------------------------------
	 Reference Energy          =    -459.5735518724448525 [Eh]
	 Singles Energy            =      -0.0000000000000000 [Eh]
	 Same-Spin Energy          =      -0.0631895879808630 [Eh]
	 Opposite-Spin Energy      =      -0.1824817643049964 [Eh]
	 Correlation Energy        =      -0.2456713522858593 [Eh]
	 Total Energy              =    -459.8192232247307061 [Eh]
	-----------------------------------------------------------
	 ================> DF-SCS-MP2 Energies <================== 
	-----------------------------------------------------------
	 SCS Same-Spin Scale       =       0.3333333333333333 [-]
	 SCS Opposite-Spin Scale   =       1.2000000000000000 [-]
	 SCS Same-Spin Energy      =      -0.0210631959936210 [Eh]
	 SCS Opposite-Spin Energy  =      -0.2189781171659957 [Eh]
	 SCS Correlation Energy    =      -0.2400413131596167 [Eh]
	 SCS Total Energy          =    -459.8135931856044749 [Eh]
	-----------------------------------------------------------


*** tstop() called on moses-razer at Sat Jan  6 23:15:18 2024
Module time:
	user time   =       7.92 seconds =       0.13 minutes
	system time =       0.50 seconds =       0.01 minutes
	total time  =          2 seconds =       0.03 minutes
Total time:
	user time   =      67.58 seconds =       1.13 minutes
	system time =       3.19 seconds =       0.05 minutes
	total time  =         14 seconds =       0.23 minutes

    Psi4 stopped on: Saturday, 06 January 2024 11:15PM
    Psi4 wall time for execution: 0:00:06.30


    -----------------------------------------------------------------------
          Psi4: An Open-Source Ab Initio Electronic Structure Package
                               Psi4 1.9 release

                         Git: Rev {} zzzzzzz 


    D. G. A. Smith, L. A. Burns, A. C. Simmonett, R. M. Parrish,
    M. C. Schieber, R. Galvelis, P. Kraus, H. Kruse, R. Di Remigio,
    A. Alenaizan, A. M. James, S. Lehtola, J. P. Misiewicz, M. Scheurer,
    R. A. Shaw, J. B. Schriber, Y. Xie, Z. L. Glick, D. A. Sirianni,
    J. S. O'Brien, J. M. Waldrop, A. Kumar, E. G. Hohenstein,
    B. P. Pritchard, B. R. Brooks, H. F. Schaefer III, A. Yu. Sokolov,
    K. Patkowski, A. E. DePrince III, U. Bozkaya, R. A. King,
    F. A. Evangelista, J. M. Turney, T. D. Crawford, C. D. Sherrill,
    J. Chem. Phys. 152(18) 184108 (2020). https://doi.org/10.1063/5.0006002

                            Additional Code Authors
    E. T. Seidl, C. L. Janssen, E. F. Valeev, M. L. Leininger,
    J. F. Gonthier, R. M. Richard, H. R. McAlexander, M. Saitow, X. Wang,
    P. Verma, M. H. Lechner, A. Jiang, S. Behnle, A. G. Heide,
    M. F. Herbst, and D. L. Poole

             Previous Authors, Complete List of Code Contributors,
                       and Citations for Specific Modules
    https://github.com/psi4/psi4/blob/master/codemeta.json
    https://github.com/psi4/psi4/graphs/contributors
    http://psicode.org/psi4manual/master/introduction.html#citing-psifour

    -----------------------------------------------------------------------


    Psi4 started on: Saturday, 06 January 2024 11:15PM

    Process ID: 559816
    Host:       moses-razer
    PSIDATADIR: /home/kchung25/anaconda3/envs/psi4_19/share/psi4
    Memory:     55.9 GiB
    Threads:    6
    
  ==> Input QCSchema <==

--------------------------------------------------------------------------
{'driver': 'energy',
 'extras': {'psiapi': True, 'wfn_qcvars_only': True},
 'id': None,
 'keywords': {'SCF_TYPE': 'DF', 'function_kwargs': {}},
 'model': {'basis': 'aug-cc-pvtz', 'method': 'mp2'},
 'molecule': {'atom_labels': ['', '', '', '', '', '', '', '', '', '', '', '', ''],
              'atomic_numbers': [17, 8, 1, 1, 8, 1, 1, 8, 1, 1, 8, 1, 1],
              'extras': {},
              'fix_com': True,
              'fix_orientation': True,
              'fix_symmetry': 'c1',
              'fragment_charges': [-1.0, 0.0],
              'fragment_multiplicities': [1, 1],
              'fragments': [[0], [1, 2, 3, 4, 5, 6, 7, 8, 9, 10, 11, 12]],
              'geometry': [0.0, 0.0, 0.0, 3.7878917677919506, -0.9376386397512888, 4.812255608618876, 4.885403127483097,
                           -2.182227383786818, 4.138180851037441, 2.5764922836978377, -0.5034457165354709,
                           3.459156900733433, 4.685727106162721, -3.0200185642472914, -2.3194101621383036,
                           3.453160799737355, -2.066349377773744, -1.4772669424109004, 3.848364893532727,
                           -4.481162363355786, -3.000526039263194, -5.2374458765730125, 1.5825643718475364,
                           3.4447345109439387, -6.117874947602191, 1.5501971427706946, 1.8698991189495247,
                           -4.390903374425544, 0.006392943482423832, 3.5282226111666652, -0.7864548805362861,
                           -2.606357515384573, -5.675431480122624, -0.3193467076672438, -1.6932380721110996,
                           -4.099673901778987, 0.2943324029445586, -4.044875623592961, -5.787571607859541],
              'mass_numbers': [35, 16, 1, 1, 16, 1, 1, 16, 1, 1, 16, 1, 1],
              'masses': [34.968852682, 15.99491461957, 1.00782503223, 1.00782503223, 15.99491461957, 1.00782503223,
                         1.00782503223, 15.99491461957, 1.00782503223, 1.00782503223, 15.99491461957, 1.00782503223,
                         1.00782503223],
              'molecular_charge': -1.0,
              'molecular_multiplicity': 1,
              'name': 'dimer',
              'provenance': {'creator': 'QCElemental',
                             'routine': 'qcelemental.molparse.from_string',
                             'version': '0.27.1'},
              'real': [True, True, True, True, True, True, True, True, True, True, True, True, True],
              'schema_name': 'qcschema_molecule',
              'schema_version': 2,
              'symbols': ['Cl', 'O', 'H', 'H', 'O', 'H', 'H', 'O', 'H', 'H', 'O', 'H', 'H'],
              'validated': True},
 'protocols': {'stdout': True},
 'provenance': {'creator': 'QCElemental', 'routine': 'qcelemental.models.results', 'version': '0.27.1'},
 'schema_name': 'qcschema_input',
 'schema_version': 1}
--------------------------------------------------------------------------

Scratch directory: /scratch/
   => Libint2 <=

    Primary   basis highest AM E, G, H:  5, 4, 3
    Auxiliary basis highest AM E, G, H:  6, 5, 4
    Onebody   basis highest AM E, G, H:  6, 5, 4
    Solid Harmonics ordering:            gaussian

*** tstart() called on moses-razer
*** at Sat Jan  6 23:15:18 2024

   => Loading Basis Set <=

    Name: AUG-CC-PVTZ
    Role: ORBITAL
    Keyword: BASIS
    atoms 1                     entry CL         line   988 file /home/kchung25/anaconda3/envs/p415env/share/psi4/basis/aug-cc-pvtz.gbs 
    atoms 2, 5, 8, 11           entry O          line   331 file /home/kchung25/anaconda3/envs/p415env/share/psi4/basis/aug-cc-pvtz.gbs 
    atoms 3-4, 6-7, 9-10, 12-13 entry H          line    40 file /home/kchung25/anaconda3/envs/p415env/share/psi4/basis/aug-cc-pvtz.gbs 


         ---------------------------------------------------------
                                   SCF
               by Justin Turney, Rob Parrish, Andy Simmonett
                          and Daniel G. A. Smith
                              RHF Reference
                        6 Threads,  57220 MiB Core
         ---------------------------------------------------------

  ==> Geometry <==

    Molecular point group: c1
    Full point group: C1

    Geometry (in Bohr), charge = -1, multiplicity = 1:

       Center              X                  Y                   Z               Mass       
    ------------   -----------------  -----------------  -----------------  -----------------
         CL           0.000000000000     0.000000000000     0.000000000000    34.968852682000
         O            3.787891767792    -0.937638639751     4.812255608619    15.994914619570
         H            4.885403127483    -2.182227383787     4.138180851037     1.007825032230
         H            2.576492283698    -0.503445716535     3.459156900733     1.007825032230
         O            4.685727106163    -3.020018564247    -2.319410162138    15.994914619570
         H            3.453160799737    -2.066349377774    -1.477266942411     1.007825032230
         H            3.848364893533    -4.481162363356    -3.000526039263     1.007825032230
         O           -5.237445876573     1.582564371848     3.444734510944    15.994914619570
         H           -6.117874947602     1.550197142771     1.869899118950     1.007825032230
         H           -4.390903374426     0.006392943482     3.528222611167     1.007825032230
         O           -0.786454880536    -2.606357515385    -5.675431480123    15.994914619570
         H           -0.319346707667    -1.693238072111    -4.099673901779     1.007825032230
         H            0.294332402945    -4.044875623593    -5.787571607860     1.007825032230

  Running in c1 symmetry.

  Rotational constants: A =      0.05153  B =      0.03575  C =      0.02234 [cm^-1]
  Rotational constants: A =   1544.92618  B =   1071.90344  C =    669.76071 [MHz]
  Nuclear repulsion =  215.885768267351523

  Charge       = -1
  Multiplicity = 1
  Electrons    = 58
  Nalpha       = 29
  Nbeta        = 29

  ==> Algorithm <==

  SCF Algorithm Type is DF.
  DIIS enabled.
  MOM disabled.
  Fractional occupation disabled.
  Guess Type is SAD.
  Energy threshold   = 1.00e-08
  Density threshold  = 1.00e-08
  Integral threshold = 1.00e-12

  ==> Primary Basis <==

  Basis Set: AUG-CC-PVTZ
    Blend: AUG-CC-PVTZ
    Number of shells: 144
    Number of basis functions: 418
    Number of Cartesian functions: 479
    Spherical Harmonics?: true
    Max angular momentum: 3

   => Loading Basis Set <=

    Name: (AUG-CC-PVTZ AUX)
    Role: JKFIT
    Keyword: DF_BASIS_SCF
    atoms 1                     entry CL         line   816 file /home/kchung25/anaconda3/envs/p415env/share/psi4/basis/aug-cc-pvtz-jkfit.gbs 
    atoms 2, 5, 8, 11           entry O          line   286 file /home/kchung25/anaconda3/envs/p415env/share/psi4/basis/aug-cc-pvtz-jkfit.gbs 
    atoms 3-4, 6-7, 9-10, 12-13 entry H          line    70 file /home/kchung25/anaconda3/envs/p415env/share/psi4/basis/aug-cc-pvtz-jkfit.gbs 

  ==> Integral Setup <==

  DFHelper Memory: AOs need 1.091 GiB; user supplied 41.910 GiB. 
  Using in-core AOs.

  ==> MemDFJK: Density-Fitted J/K Matrices <==

    J tasked:                   Yes
    K tasked:                   Yes
    wK tasked:                   No
    OpenMP threads:               6
    Memory [MiB]:             42915
    Algorithm:                 Core
    Schwarz Cutoff:           1E-12
    Mask sparsity (%):      13.9466
    Fitting Condition:        1E-10

   => Auxiliary Basis Set <=

  Basis Set: (AUG-CC-PVTZ AUX)
    Blend: AUG-CC-PVTZ-JKFIT
    Number of shells: 274
    Number of basis functions: 930
    Number of Cartesian functions: 1144
    Spherical Harmonics?: true
    Max angular momentum: 4

  Minimum eigenvalue in the overlap matrix is 1.8465007632E-04.
  Reciprocal condition number of the overlap matrix is 1.6765579556E-05.
    Using symmetric orthogonalization.

  ==> Pre-Iterations <==

  SCF Guess: Superposition of Atomic Densities via on-the-fly atomic UHF (no occupation information).

   -------------------------
    Irrep   Nso     Nmo    
   -------------------------
     A        418     418 
   -------------------------
    Total     418     418
   -------------------------

  ==> Iterations <==

                           Total Energy        Delta E     RMS |[F,P]|

   @DF-RHF iter SAD:  -761.27406582428375   -7.61274e+02   0.00000e+00 
   @DF-RHF iter   1:  -763.50745549884914   -2.23339e+00   2.29751e-03 DIIS/ADIIS
   @DF-RHF iter   2:  -763.73517393767588   -2.27718e-01   1.53001e-03 DIIS/ADIIS
   @DF-RHF iter   3:  -763.86065571925928   -1.25482e-01   1.14141e-04 DIIS/ADIIS
   @DF-RHF iter   4:  -763.86238176278152   -1.72604e-03   4.07737e-05 DIIS
   @DF-RHF iter   5:  -763.86256101207539   -1.79249e-04   8.85446e-06 DIIS
   @DF-RHF iter   6:  -763.86257637194331   -1.53599e-05   2.66839e-06 DIIS
   @DF-RHF iter   7:  -763.86257765292487   -1.28098e-06   1.14572e-06 DIIS
   @DF-RHF iter   8:  -763.86257783508199   -1.82157e-07   2.94308e-07 DIIS
   @DF-RHF iter   9:  -763.86257785317025   -1.80883e-08   5.52110e-08 DIIS
   @DF-RHF iter  10:  -763.86257785387602   -7.05768e-10   1.17604e-08 DIIS
   @DF-RHF iter  11:  -763.86257785390683   -3.08091e-11   4.61542e-09 DIIS
  Energy and wave function converged.


  ==> Post-Iterations <==

    Orbital Energies [Eh]
    ---------------------

    Doubly Occupied:                                                      

       1A   -104.574076     2A    -20.428607     3A    -20.420580  
       4A    -20.418188     5A    -20.405888     6A    -10.299066  
       7A     -7.765162     8A     -7.765147     9A     -7.765100  
      10A     -1.219700    11A     -1.213558    12A     -1.198817  
      13A     -1.188940    14A     -0.815306    15A     -0.586059  
      16A     -0.585267    17A     -0.568470    18A     -0.558653  
      19A     -0.451746    20A     -0.449919    21A     -0.431578  
      22A     -0.425895    23A     -0.375512    24A     -0.370080  
      25A     -0.362005    26A     -0.351719    27A     -0.230029  
      28A     -0.227987    29A     -0.223612  

    Virtual:                                                              

      30A      0.118968    31A      0.131406    32A      0.133068  
      33A      0.147698    34A      0.152664    35A      0.174246  
      36A      0.179355    37A      0.181246    38A      0.239862  
      39A      0.245647    40A      0.256295    41A      0.269564  
      42A      0.273509    43A      0.277313    44A      0.281503  
      45A      0.290657    46A      0.294908    47A      0.299665  
      48A      0.308501    49A      0.311401    50A      0.321783  
      51A      0.323006    52A      0.338258    53A      0.340211  
      54A      0.344728    55A      0.355775    56A      0.362042  
      57A      0.367889    58A      0.373850    59A      0.377008  
      60A      0.398385    61A      0.411022    62A      0.417332  
      63A      0.423154    64A      0.426263    65A      0.443111  
      66A      0.463414    67A      0.472803    68A      0.476558  
      69A      0.479080    70A      0.490088    71A      0.501187  
      72A      0.506936    73A      0.520535    74A      0.530944  
      75A      0.532027    76A      0.546841    77A      0.552885  
      78A      0.569886    79A      0.571091    80A      0.582606  
      81A      0.601086    82A      0.603391    83A      0.616173  
      84A      0.628751    85A      0.635267    86A      0.660426  
      87A      0.679019    88A      0.692659    89A      0.698242  
      90A      0.705883    91A      0.720605    92A      0.733318  
      93A      0.740456    94A      0.765353    95A      0.776936  
      96A      0.784695    97A      0.796601    98A      0.813999  
      99A      0.819477   100A      0.833897   101A      0.845295  
     102A      0.852984   103A      0.857436   104A      0.866680  
     105A      0.871677   106A      0.876736   107A      0.889427  
     108A      0.891594   109A      0.898788   110A      0.907271  
     111A      0.916380   112A      0.919685   113A      0.934157  
     114A      0.963192   115A      0.970716   116A      0.976221  
     117A      0.989484   118A      0.999932   119A      1.007804  
     120A      1.010118   121A      1.026839   122A      1.036351  
     123A      1.044772   124A      1.051236   125A      1.054844  
     126A      1.064747   127A      1.069974   128A      1.082595  
     129A      1.087119   130A      1.091019   131A      1.096125  
     132A      1.099646   133A      1.113851   134A      1.120859  
     135A      1.130438   136A      1.139263   137A      1.146675  
     138A      1.149623   139A      1.158288   140A      1.165044  
     141A      1.176640   142A      1.179589   143A      1.187268  
     144A      1.200394   145A      1.210302   146A      1.223717  
     147A      1.228678   148A      1.231338   149A      1.241515  
     150A      1.259789   151A      1.261591   152A      1.269727  
     153A      1.293598   154A      1.297908   155A      1.311018  
     156A      1.325724   157A      1.331416   158A      1.337923  
     159A      1.346496   160A      1.358554   161A      1.366278  
     162A      1.372978   163A      1.381293   164A      1.391214  
     165A      1.410426   166A      1.421002   167A      1.425252  
     168A      1.440895   169A      1.448013   170A      1.461657  
     171A      1.464733   172A      1.484320   173A      1.493877  
     174A      1.513226   175A      1.521099   176A      1.528834  
     177A      1.578108   178A      1.585876   179A      1.623754  
     180A      1.651095   181A      1.662252   182A      1.677894  
     183A      1.684515   184A      1.701093   185A      1.703286  
     186A      1.716092   187A      1.721695   188A      1.738542  
     189A      1.752436   190A      1.760944   191A      1.791652  
     192A      1.805238   193A      1.813943   194A      1.825521  
     195A      1.839617   196A      1.849034   197A      1.880875  
     198A      1.907386   199A      1.921003   200A      1.942941  
     201A      1.969638   202A      1.986052   203A      2.007399  
     204A      2.016639   205A      2.047535   206A      2.059807  
     207A      2.085924   208A      2.118272   209A      2.138679  
     210A      2.159268   211A      2.185150   212A      2.247316  
     213A      2.254369   214A      2.289813   215A      2.317298  
     216A      2.430598   217A      2.436845   218A      2.446294  
     219A      2.462166   220A      2.475800   221A      2.485100  
     222A      2.510102   223A      2.518020   224A      2.531914  
     225A      2.554978   226A      2.579284   227A      2.589409  
     228A      2.600822   229A      2.609108   230A      2.617260  
     231A      2.622082   232A      2.632503   233A      2.653726  
     234A      2.660037   235A      2.670906   236A      2.680012  
     237A      2.700239   238A      2.707294   239A      2.714252  
     240A      2.721969   241A      2.738238   242A      2.749887  
     243A      2.779585   244A      2.789648   245A      2.817821  
     246A      2.825629   247A      2.846919   248A      2.871995  
     249A      2.882125   250A      2.888465   251A      2.900887  
     252A      2.904143   253A      2.913182   254A      2.926514  
     255A      2.957224   256A      2.962204   257A      2.968383  
     258A      2.994284   259A      3.006212   260A      3.029570  
     261A      3.042408   262A      3.064162   263A      3.077361  
     264A      3.093258   265A      3.105245   266A      3.128787  
     267A      3.136556   268A      3.151265   269A      3.195728  
     270A      3.226663   271A      3.249277   272A      3.338980  
     273A      3.405040   274A      3.453708   275A      3.482524  
     276A      3.553482   277A      3.576817   278A      3.633351  
     279A      3.654727   280A      3.771206   281A      3.785962  
     282A      3.849302   283A      3.881066   284A      3.897937  
     285A      3.961500   286A      3.985954   287A      4.070506  
     288A      4.114911   289A      4.181331   290A      4.194411  
     291A      4.202126   292A      4.221486   293A      4.282733  
     294A      4.315389   295A      4.356124   296A      4.367079  
     297A      4.379471   298A      4.402528   299A      4.412088  
     300A      4.420546   301A      4.422479   302A      4.428858  
     303A      4.442175   304A      4.455794   305A      4.477933  
     306A      4.490618   307A      4.491201   308A      4.511358  
     309A      4.534673   310A      4.539162   311A      4.549401  
     312A      4.558869   313A      4.576538   314A      4.583109  
     315A      4.598943   316A      4.610784   317A      4.621337  
     318A      4.634466   319A      4.654614   320A      4.668038  
     321A      4.676585   322A      4.684560   323A      4.719198  
     324A      4.742805   325A      4.815381   326A      4.896930  
     327A      4.912006   328A      4.943441   329A      4.976291  
     330A      5.018862   331A      5.076377   332A      5.093111  
     333A      5.148824   334A      5.276673   335A      5.297340  
     336A      5.304681   337A      5.314806   338A      5.332413  
     339A      5.341462   340A      5.383035   341A      5.400690  
     342A      5.424900   343A      5.477368   344A      5.487666  
     345A      5.514016   346A      5.524793   347A      5.542752  
     348A      5.559258   349A      5.630513   350A      5.647460  
     351A      5.665011   352A      5.704987   353A      5.742217  
     354A      5.836846   355A      5.894301   356A      5.912046  
     357A      5.940687   358A      6.334169   359A      6.356899  
     360A      6.376852   361A      6.429490   362A      6.677270  
     363A      6.703202   364A      6.730640   365A      6.733559  
     366A      6.888948   367A      6.905957   368A      6.932942  
     369A      6.966202   370A      6.994508   371A      7.059344  
     372A      7.075240   373A      7.094113   374A      7.122981  
     375A      7.282340   376A      7.296860   377A      7.303428  
     378A      7.388467   379A      7.418235   380A      7.432376  
     381A      7.443889   382A      7.454662   383A      7.468457  
     384A      7.482007   385A      7.483017   386A      7.484772  
     387A      7.496635   388A      7.508623   389A      7.517172  
     390A      7.525020   391A      7.535712   392A      7.539487  
     393A      7.560239   394A      7.575529   395A      7.599204  
     396A      7.612683   397A      7.632924   398A      7.684160  
     399A      7.716436   400A      7.865803   401A      7.873157  
     402A      7.939869   403A      8.060195   404A      8.067851  
     405A      8.079893   406A      8.102618   407A      8.133780  
     408A      8.169332   409A      8.191524   410A      8.207665  
     411A      8.894837   412A      8.947940   413A      8.995271  
     414A      9.033712   415A     16.198584   416A     16.340487  
     417A     16.518138   418A     17.430603  

    Final Occupation by Irrep:
              A 
    DOCC [    29 ]
    NA   [    29 ]
    NB   [    29 ]

  @DF-RHF Final Energy:  -763.86257785390683

   => Energetics <=

    Nuclear Repulsion Energy =            215.8857682673515228
    One-Electron Energy =               -1496.1433595638168299
    Two-Electron Energy =                 516.3950134425584793
    Total Energy =                       -763.8625778539068278

Computation Completed


Properties will be evaluated at   0.000000,   0.000000,   0.000000 [a0]

Properties computed using the SCF density matrix


 Multipole Moments:

 ------------------------------------------------------------------------------------
     Multipole            Electronic (a.u.)      Nuclear  (a.u.)        Total (a.u.)
 ------------------------------------------------------------------------------------

 L = 1.  Multiply by 2.5417464519 to convert [e a0] to [Debye]
 Dipole X            :        -24.4268401           23.8273734           -0.5994667
 Dipole Y            :         52.5957551          -53.2663112           -0.6705561
 Dipole Z            :         -1.2753760            0.7276088           -0.5477672
 Magnitude           :                                                    1.0531167

 ------------------------------------------------------------------------------------

*** tstop() called on moses-razer at Sat Jan  6 23:15:24 2024
Module time:
	user time   =      30.59 seconds =       0.51 minutes
	system time =       1.36 seconds =       0.02 minutes
	total time  =          6 seconds =       0.10 minutes
Total time:
	user time   =      98.52 seconds =       1.64 minutes
	system time =       4.55 seconds =       0.08 minutes
	total time  =         20 seconds =       0.33 minutes

*** tstart() called on moses-razer
*** at Sat Jan  6 23:15:24 2024


  //>>>>>>>>>>>>>>>>>>>>>>>>>>>>>>>>>>>//
  //               DFMP2               //
  //<<<<<<<<<<<<<<<<<<<<<<<<<<<<<<<<<<<//

   => Loading Basis Set <=

    Name: (AUG-CC-PVTZ AUX)
    Role: RIFIT
    Keyword: DF_BASIS_MP2
    atoms 1                     entry CL         line   742 file /home/kchung25/anaconda3/envs/p415env/share/psi4/basis/aug-cc-pvtz-ri.gbs 
    atoms 2, 5, 8, 11           entry O          line   264 file /home/kchung25/anaconda3/envs/p415env/share/psi4/basis/aug-cc-pvtz-ri.gbs 
    atoms 3-4, 6-7, 9-10, 12-13 entry H          line    30 file /home/kchung25/anaconda3/envs/p415env/share/psi4/basis/aug-cc-pvtz-ri.gbs 

	 --------------------------------------------------------
	                          DF-MP2                         
	      2nd-Order Density-Fitted Moller-Plesset Theory     
	              RMP2 Wavefunction,   6 Threads             
	                                                         
	        Rob Parrish, Justin Turney, Andy Simmonett,      
	           Ed Hohenstein, and C. David Sherrill          
	 --------------------------------------------------------

   => Auxiliary Basis Set <=

  Basis Set: (AUG-CC-PVTZ AUX)
    Blend: AUG-CC-PVTZ-RI
    Number of shells: 261
    Number of basis functions: 939
    Number of Cartesian functions: 1175
    Spherical Harmonics?: true
    Max angular momentum: 4

	 --------------------------------------------------------
	                 NBF =   418, NAUX =   939
	 --------------------------------------------------------
	   CLASS    FOCC     OCC    AOCC    AVIR     VIR    FVIR
	   PAIRS       0      29      29     389     389       0
	 --------------------------------------------------------

	-----------------------------------------------------------
	 ==================> DF-MP2 Energies <==================== 
	-----------------------------------------------------------
	 Reference Energy          =    -763.8625778539068278 [Eh]
	 Singles Energy            =      -0.0000000000000000 [Eh]
	 Same-Spin Energy          =      -0.3443923135260914 [Eh]
	 Opposite-Spin Energy      =      -1.0513149669656039 [Eh]
	 Correlation Energy        =      -1.3957072804916952 [Eh]
	 Total Energy              =    -765.2582851343985340 [Eh]
	-----------------------------------------------------------
	 ================> DF-SCS-MP2 Energies <================== 
	-----------------------------------------------------------
	 SCS Same-Spin Scale       =       0.3333333333333333 [-]
	 SCS Opposite-Spin Scale   =       1.2000000000000000 [-]
	 SCS Same-Spin Energy      =      -0.1147974378420305 [Eh]
	 SCS Opposite-Spin Energy  =      -1.2615779603587247 [Eh]
	 SCS Correlation Energy    =      -1.3763753982007552 [Eh]
	 SCS Total Energy          =    -765.2389532521075353 [Eh]
	-----------------------------------------------------------


*** tstop() called on moses-razer at Sat Jan  6 23:15:27 2024
Module time:
	user time   =      12.98 seconds =       0.22 minutes
	system time =       0.73 seconds =       0.01 minutes
	total time  =          3 seconds =       0.05 minutes
Total time:
	user time   =     111.51 seconds =       1.86 minutes
	system time =       5.28 seconds =       0.09 minutes
	total time  =         23 seconds =       0.38 minutes

    Psi4 stopped on: Saturday, 06 January 2024 11:15PM
    Psi4 wall time for execution: 0:00:08.70


  //>>>>>>>>>>>>>>>>>>>>>>>>>>>>>>>>>>>//
  //          ManyBody Results         //
  //<<<<<<<<<<<<<<<<<<<<<<<<<<<<<<<<<<<//


   ==> N-Body: Counterpoise Corrected (CP) energies <==

        n-Body     Total Energy            Interaction Energy                          N-body Contribution to Interaction Energy
                   [Eh]                    [Eh]                  [kcal/mol]            [Eh]                  [kcal/mol]
             1  N/A                         0.000000000000        0.000000000000        0.000000000000        0.000000000000
  FULL/RTN   2  N/A                        -0.067938695263      -42.632174913847       -0.067938695263      -42.632174913847


    Psi4 stopped on: Saturday, 06 January 2024 11:15PM
    Psi4 wall time for execution: 0:00:24.34

*** Psi4 exiting successfully. Buy a developer a beer!
