
    -----------------------------------------------------------------------
          Psi4: An Open-Source Ab Initio Electronic Structure Package
                               Psi4 1.8.2 release

                         Git: Rev {} zzzzzzz 


    D. G. A. Smith, L. A. Burns, A. C. Simmonett, R. M. Parrish,
    M. C. Schieber, R. Galvelis, P. Kraus, H. Kruse, R. Di Remigio,
    A. Alenaizan, A. M. James, S. Lehtola, J. P. Misiewicz, M. Scheurer,
    R. A. Shaw, J. B. Schriber, Y. Xie, Z. L. Glick, D. A. Sirianni,
    J. S. O'Brien, J. M. Waldrop, A. Kumar, E. G. Hohenstein,
    B. P. Pritchard, B. R. Brooks, H. F. Schaefer III, A. Yu. Sokolov,
    K. Patkowski, A. E. DePrince III, U. Bozkaya, R. A. King,
    F. A. Evangelista, J. M. Turney, T. D. Crawford, C. D. Sherrill,
    J. Chem. Phys. 152(18) 184108 (2020). https://doi.org/10.1063/5.0006002

                            Additional Code Authors
    E. T. Seidl, C. L. Janssen, E. F. Valeev, M. L. Leininger,
    J. F. Gonthier, R. M. Richard, H. R. McAlexander, M. Saitow, X. Wang,
    P. Verma, M. H. Lechner, A. Jiang, S. Behnle, A. G. Heide,
    M. F. Herbst, and D. L. Poole

             Previous Authors, Complete List of Code Contributors,
                       and Citations for Specific Modules
    https://github.com/psi4/psi4/blob/master/codemeta.json
    https://github.com/psi4/psi4/graphs/contributors
    http://psicode.org/psi4manual/master/introduction.html#citing-psifour

    -----------------------------------------------------------------------


    Psi4 started on: Monday, 22 January 2024 08:56PM

    Process ID: 106358
    Host:       ddmfs1
    PSIDATADIR: /ddmfs1b/softs/psi4conda/share/psi4
    Memory:     500.0 MiB
    Threads:    20
    
  ==> Input File <==

--------------------------------------------------------------------------
MEMORY 60 GB

molecule dimer {
0 1
Gh(Cl)     0.000000     0.000000     0.000000
Gh(O)     -0.769529    -2.966252     1.114406
Gh(H)     -0.491011    -2.049040     1.060829
Gh(H)     -0.099668    -3.431801     1.746687
Gh(O)     -2.572451     0.785674     2.137195
Gh(H)     -2.971007    -0.007188     2.353863
Gh(H)     -1.967522     0.455536     1.391827
O          0.248544     0.677850     3.199615
H          0.085963     0.586761     2.244952
H          0.904498     1.336920     3.314940
Gh(O)      1.375017     2.839319     0.546590
Gh(H)      0.925526     1.985155     0.440289
Gh(H)      1.962844     2.854615    -0.199516
Gh(O)      2.555530    -2.187632     0.855224
Gh(H)      2.277326    -2.669991     1.647633
Gh(H)      1.863637    -1.523641     0.765483

units ang
no_reorient
no_com
symmetry c1
}

set {
basis        aug-cc-pVTZ
scf_type     df
}

energy("mp2")
--------------------------------------------------------------------------

  Memory set to  55.879 GiB by Python driver.

Scratch directory: /ddmfs1a/scratch/
   => Libint2 <=

    Primary   basis highest AM E, G, H:  5, 4, 3
    Auxiliary basis highest AM E, G, H:  6, 5, 4
    Onebody   basis highest AM E, G, H:  6, 5, 4
    Solid Harmonics ordering:            gaussian

*** tstart() called on ddmfs1
*** at Mon Jan 22 20:56:59 2024

   => Loading Basis Set <=

    Name: AUG-CC-PVTZ
    Role: ORBITAL
    Keyword: BASIS
    atoms 1                            entry CL         line   988 file /ddmfs1b/softs/psi4conda/share/psi4/basis/aug-cc-pvtz.gbs 
    atoms 2, 5, 8, 11, 14              entry O          line   331 file /ddmfs1b/softs/psi4conda/share/psi4/basis/aug-cc-pvtz.gbs 
    atoms 3-4, 6-7, 9-10, 12-13, 15-16 entry H          line    40 file /ddmfs1b/softs/psi4conda/share/psi4/basis/aug-cc-pvtz.gbs 


         ---------------------------------------------------------
                                   SCF
               by Justin Turney, Rob Parrish, Andy Simmonett
                          and Daniel G. A. Smith
                              RHF Reference
                       20 Threads,  57220 MiB Core
         ---------------------------------------------------------

  ==> Geometry <==

    Molecular point group: c1
    Full point group: C1

    Geometry (in Angstrom), charge = 0, multiplicity = 1:

       Center              X                  Y                   Z               Mass       
    ------------   -----------------  -----------------  -----------------  -----------------
      Gh(CL)          0.000000000000     0.000000000000     0.000000000000    34.968852682000
      Gh(O)          -0.769529000000    -2.966252000000     1.114406000000    15.994914619570
      Gh(H)          -0.491011000000    -2.049040000000     1.060829000000     1.007825032230
      Gh(H)          -0.099668000000    -3.431801000000     1.746687000000     1.007825032230
      Gh(O)          -2.572451000000     0.785674000000     2.137195000000    15.994914619570
      Gh(H)          -2.971007000000    -0.007188000000     2.353863000000     1.007825032230
      Gh(H)          -1.967522000000     0.455536000000     1.391827000000     1.007825032230
         O            0.248544000000     0.677850000000     3.199615000000    15.994914619570
         H            0.085963000000     0.586761000000     2.244952000000     1.007825032230
         H            0.904498000000     1.336920000000     3.314940000000     1.007825032230
      Gh(O)           1.375017000000     2.839319000000     0.546590000000    15.994914619570
      Gh(H)           0.925526000000     1.985155000000     0.440289000000     1.007825032230
      Gh(H)           1.962844000000     2.854615000000    -0.199516000000     1.007825032230
      Gh(O)           2.555530000000    -2.187632000000     0.855224000000    15.994914619570
      Gh(H)           2.277326000000    -2.669991000000     1.647633000000     1.007825032230
      Gh(H)           1.863637000000    -1.523641000000     0.765483000000     1.007825032230

  Running in c1 symmetry.

  Rotational constants: A =      0.02908  B =      0.02592  C =      0.02269 [cm^-1]
  Rotational constants: A =    871.66659  B =    777.12123  C =    680.12206 [MHz]
  Nuclear repulsion =    9.213606036818053

  Charge       = 0
  Multiplicity = 1
  Electrons    = 10
  Nalpha       = 5
  Nbeta        = 5

  ==> Algorithm <==

  SCF Algorithm Type is DF.
  DIIS enabled.
  MOM disabled.
  Fractional occupation disabled.
  Guess Type is SAD.
  Energy threshold   = 1.00e-08
  Density threshold  = 1.00e-08
  Integral threshold = 1.00e-12

  ==> Primary Basis <==

  Basis Set: AUG-CC-PVTZ
    Blend: AUG-CC-PVTZ
    Number of shells: 176
    Number of basis functions: 510
    Number of Cartesian functions: 584
    Spherical Harmonics?: true
    Max angular momentum: 3

   => Loading Basis Set <=

    Name: (AUG-CC-PVTZ AUX)
    Role: JKFIT
    Keyword: DF_BASIS_SCF
    atoms 1                            entry CL         line   816 file /ddmfs1b/softs/psi4conda/share/psi4/basis/aug-cc-pvtz-jkfit.gbs 
    atoms 2, 5, 8, 11, 14              entry O          line   286 file /ddmfs1b/softs/psi4conda/share/psi4/basis/aug-cc-pvtz-jkfit.gbs 
    atoms 3-4, 6-7, 9-10, 12-13, 15-16 entry H          line    70 file /ddmfs1b/softs/psi4conda/share/psi4/basis/aug-cc-pvtz-jkfit.gbs 

  ==> Integral Setup <==

  DFHelper Memory: AOs need 2.039 GiB; user supplied 41.910 GiB. 
  Using in-core AOs.

  ==> MemDFJK: Density-Fitted J/K Matrices <==

    J tasked:                   Yes
    K tasked:                   Yes
    wK tasked:                   No
    OpenMP threads:              20
    Memory [MiB]:             42915
    Algorithm:                 Core
    Schwarz Cutoff:           1E-12
    Mask sparsity (%):      11.1465
    Fitting Condition:        1E-10

   => Auxiliary Basis Set <=

  Basis Set: (AUG-CC-PVTZ AUX)
    Blend: AUG-CC-PVTZ-JKFIT
    Number of shells: 332
    Number of basis functions: 1126
    Number of Cartesian functions: 1385
    Spherical Harmonics?: true
    Max angular momentum: 4

  Minimum eigenvalue in the overlap matrix is 1.5166244642E-04.
  Reciprocal condition number of the overlap matrix is 1.1425960253E-05.
    Using symmetric orthogonalization.

  ==> Pre-Iterations <==

  SCF Guess: Superposition of Atomic Densities via on-the-fly atomic UHF (no occupation information).

   -------------------------
    Irrep   Nso     Nmo    
   -------------------------
     A        510     510 
   -------------------------
    Total     510     510
   -------------------------

  ==> Iterations <==

                           Total Energy        Delta E     RMS |[F,P]|

   @DF-RHF iter SAD:   -75.47728547707641   -7.54773e+01   0.00000e+00 
   @DF-RHF iter   1:   -75.97613293046857   -4.98847e-01   9.20341e-04 DIIS/ADIIS
   @DF-RHF iter   2:   -76.02877655613634   -5.26436e-02   6.22453e-04 DIIS/ADIIS
   @DF-RHF iter   3:   -76.05973044635016   -3.09539e-02   4.23279e-05 DIIS
   @DF-RHF iter   4:   -76.06011936734286   -3.88921e-04   1.00552e-05 DIIS
   @DF-RHF iter   5:   -76.06014311317540   -2.37458e-05   2.27544e-06 DIIS
   @DF-RHF iter   6:   -76.06014506567730   -1.95250e-06   5.07403e-07 DIIS
   @DF-RHF iter   7:   -76.06014517366901   -1.07992e-07   9.53119e-08 DIIS
   @DF-RHF iter   8:   -76.06014517704421   -3.37519e-09   1.57700e-08 DIIS
   @DF-RHF iter   9:   -76.06014517711728   -7.30722e-11   3.94228e-09 DIIS
  Energy and wave function converged.


  ==> Post-Iterations <==

    Orbital Energies [Eh]
    ---------------------

    Doubly Occupied:                                                      

       1A    -20.565201     2A     -1.352828     3A     -0.725240  
       4A     -0.579056     5A     -0.509622  

    Virtual:                                                              

       6A      0.015841     7A      0.033379     8A      0.038485  
       9A      0.042441    10A      0.053894    11A      0.058658  
      12A      0.059612    13A      0.071122    14A      0.080872  
      15A      0.088851    16A      0.094293    17A      0.109308  
      18A      0.121138    19A      0.128237    20A      0.129328  
      21A      0.137856    22A      0.145868    23A      0.152818  
      24A      0.154795    25A      0.160013    26A      0.166534  
      27A      0.171797    28A      0.175375    29A      0.186864  
      30A      0.194860    31A      0.197053    32A      0.202744  
      33A      0.208366    34A      0.216968    35A      0.220379  
      36A      0.225960    37A      0.235337    38A      0.250755  
      39A      0.254731    40A      0.271153    41A      0.272774  
      42A      0.275384    43A      0.287666    44A      0.294523  
      45A      0.304778    46A      0.307902    47A      0.317515  
      48A      0.323975    49A      0.330562    50A      0.336108  
      51A      0.344123    52A      0.353201    53A      0.358497  
      54A      0.365252    55A      0.370822    56A      0.380744  
      57A      0.383538    58A      0.387106    59A      0.387992  
      60A      0.393401    61A      0.402283    62A      0.417309  
      63A      0.418639    64A      0.423484    65A      0.429397  
      66A      0.435013    67A      0.459263    68A      0.463752  
      69A      0.469986    70A      0.480405    71A      0.486630  
      72A      0.492052    73A      0.504705    74A      0.509815  
      75A      0.515572    76A      0.518997    77A      0.562177  
      78A      0.574180    79A      0.584215    80A      0.602633  
      81A      0.606992    82A      0.622825    83A      0.624133  
      84A      0.631356    85A      0.650650    86A      0.666863  
      87A      0.676131    88A      0.692818    89A      0.700815  
      90A      0.713498    91A      0.721688    92A      0.725381  
      93A      0.737761    94A      0.746824    95A      0.749861  
      96A      0.754244    97A      0.760997    98A      0.769924  
      99A      0.778817   100A      0.785716   101A      0.793440  
     102A      0.795722   103A      0.811273   104A      0.815257  
     105A      0.823436   106A      0.830479   107A      0.832553  
     108A      0.840794   109A      0.852488   110A      0.854706  
     111A      0.856391   112A      0.860468   113A      0.873855  
     114A      0.878240   115A      0.882545   116A      0.886959  
     117A      0.895842   118A      0.899675   119A      0.902505  
     120A      0.912293   121A      0.919638   122A      0.928624  
     123A      0.933950   124A      0.939743   125A      0.954951  
     126A      0.963232   127A      0.966479   128A      0.978314  
     129A      0.979580   130A      0.983740   131A      0.987964  
     132A      1.002136   133A      1.010481   134A      1.013814  
     135A      1.019630   136A      1.034714   137A      1.035830  
     138A      1.050755   139A      1.052193   140A      1.063936  
     141A      1.071540   142A      1.074151   143A      1.080743  
     144A      1.096350   145A      1.102172   146A      1.121248  
     147A      1.122381   148A      1.134150   149A      1.141420  
     150A      1.151242   151A      1.157576   152A      1.160066  
     153A      1.168242   154A      1.183741   155A      1.197936  
     156A      1.204787   157A      1.207126   158A      1.230866  
     159A      1.233440   160A      1.240648   161A      1.259025  
     162A      1.263641   163A      1.269366   164A      1.283368  
     165A      1.292215   166A      1.301968   167A      1.310508  
     168A      1.327833   169A      1.336280   170A      1.349451  
     171A      1.355414   172A      1.362596   173A      1.366823  
     174A      1.404700   175A      1.414372   176A      1.420457  
     177A      1.427148   178A      1.436274   179A      1.438580  
     180A      1.455105   181A      1.476103   182A      1.491837  
     183A      1.501412   184A      1.519315   185A      1.522622  
     186A      1.547333   187A      1.566087   188A      1.582479  
     189A      1.590889   190A      1.600978   191A      1.625810  
     192A      1.636317   193A      1.644570   194A      1.657110  
     195A      1.669532   196A      1.686498   197A      1.704286  
     198A      1.713140   199A      1.720038   200A      1.739329  
     201A      1.751918   202A      1.755266   203A      1.763537  
     204A      1.765757   205A      1.782939   206A      1.788060  
     207A      1.803361   208A      1.808214   209A      1.824342  
     210A      1.827428   211A      1.843889   212A      1.852445  
     213A      1.859288   214A      1.867080   215A      1.880271  
     216A      1.892371   217A      1.901914   218A      1.914903  
     219A      1.926916   220A      1.942324   221A      1.943374  
     222A      1.968877   223A      1.979203   224A      1.996340  
     225A      2.005698   226A      2.028157   227A      2.047547  
     228A      2.062359   229A      2.087678   230A      2.107023  
     231A      2.136673   232A      2.164177   233A      2.189663  
     234A      2.208950   235A      2.249287   236A      2.250850  
     237A      2.268890   238A      2.327446   239A      2.349868  
     240A      2.424607   241A      2.452639   242A      2.468185  
     243A      2.479763   244A      2.488077   245A      2.497288  
     246A      2.515904   247A      2.532930   248A      2.540161  
     249A      2.545353   250A      2.551675   251A      2.563490  
     252A      2.579581   253A      2.593582   254A      2.600792  
     255A      2.610536   256A      2.619829   257A      2.629059  
     258A      2.644441   259A      2.655163   260A      2.657343  
     261A      2.667045   262A      2.677251   263A      2.679361  
     264A      2.694224   265A      2.704574   266A      2.728498  
     267A      2.745485   268A      2.757102   269A      2.766038  
     270A      2.773568   271A      2.790390   272A      2.814512  
     273A      2.828032   274A      2.840196   275A      2.861839  
     276A      2.873466   277A      2.890591   278A      2.923601  
     279A      2.941002   280A      2.965077   281A      2.972621  
     282A      2.992291   283A      3.000827   284A      3.031599  
     285A      3.038825   286A      3.113041   287A      3.146710  
     288A      3.154877   289A      3.179987   290A      3.201777  
     291A      3.229224   292A      3.231611   293A      3.247929  
     294A      3.267086   295A      3.277319   296A      3.304287  
     297A      3.321173   298A      3.335863   299A      3.343254  
     300A      3.403852   301A      3.440160   302A      3.451024  
     303A      3.469246   304A      3.482930   305A      3.499117  
     306A      3.529316   307A      3.557377   308A      3.583234  
     309A      3.630238   310A      3.639197   311A      3.683788  
     312A      3.805197   313A      3.812303   314A      3.825091  
     315A      3.868024   316A      3.902643   317A      4.024645  
     318A      4.124557   319A      4.156711   320A      4.200133  
     321A      4.206739   322A      4.256263   323A      4.264001  
     324A      4.298091   325A      4.312457   326A      4.346626  
     327A      4.356889   328A      4.373161   329A      4.402039  
     330A      4.418877   331A      4.428624   332A      4.435785  
     333A      4.442057   334A      4.459773   335A      4.464403  
     336A      4.484383   337A      4.492486   338A      4.497472  
     339A      4.503519   340A      4.505332   341A      4.521587  
     342A      4.530507   343A      4.531518   344A      4.564719  
     345A      4.573598   346A      4.586001   347A      4.595974  
     348A      4.604586   349A      4.617960   350A      4.631013  
     351A      4.639808   352A      4.676031   353A      4.688332  
     354A      4.715429   355A      4.725525   356A      4.736880  
     357A      4.772651   358A      4.784198   359A      4.792583  
     360A      4.814257   361A      4.836393   362A      4.861457  
     363A      4.880327   364A      4.887454   365A      4.897899  
     366A      4.922316   367A      4.932763   368A      4.941599  
     369A      4.953729   370A      4.966470   371A      4.984339  
     372A      4.991423   373A      5.008363   374A      5.027041  
     375A      5.039835   376A      5.094745   377A      5.112846  
     378A      5.183714   379A      5.206718   380A      5.221105  
     381A      5.241944   382A      5.251723   383A      5.309541  
     384A      5.324432   385A      5.351546   386A      5.413163  
     387A      5.422319   388A      5.455892   389A      5.484201  
     390A      5.519526   391A      5.552851   392A      5.570870  
     393A      5.591701   394A      5.592236   395A      5.617747  
     396A      5.628904   397A      5.644509   398A      5.674545  
     399A      5.679507   400A      5.710957   401A      5.801296  
     402A      5.838144   403A      5.874804   404A      5.903293  
     405A      5.943379   406A      5.964283   407A      6.129897  
     408A      6.168003   409A      6.191351   410A      6.221602  
     411A      6.276591   412A      6.352923   413A      6.391318  
     414A      6.430676   415A      6.462363   416A      6.561508  
     417A      6.616175   418A      6.628945   419A      6.659745  
     420A      6.689726   421A      6.857495   422A      6.965581  
     423A      7.047553   424A      7.103644   425A      7.114567  
     426A      7.166455   427A      7.184048   428A      7.369237  
     429A      7.376915   430A      7.410839   431A      7.519484  
     432A      7.531568   433A      7.730656   434A      7.743917  
     435A      7.767052   436A      7.789989   437A      7.817775  
     438A      7.848813   439A      7.877480   440A      7.897416  
     441A      7.931551   442A      7.975771   443A      8.031036  
     444A      8.042766   445A      8.062383   446A      8.084021  
     447A      8.135633   448A      8.153317   449A      8.176233  
     450A      8.198764   451A      8.220600   452A      8.269925  
     453A      8.300713   454A      8.304766   455A      8.374916  
     456A      8.669661   457A      8.797752   458A      8.825619  
     459A      8.854194   460A      8.874789   461A      8.910349  
     462A      8.923742   463A      8.983107   464A      8.996596  
     465A      9.687141   466A      9.707958   467A      9.731900  
     468A      9.770626   469A      9.867337   470A      9.878206  
     471A      9.924439   472A      9.946252   473A     10.064328  
     474A     10.069984   475A     10.080540   476A     10.125009  
     477A     10.292207   478A     10.297935   479A     10.323215  
     480A     10.351431   481A     10.921167   482A     11.104600  
     483A     11.222830   484A     11.260534   485A     11.719586  
     486A     11.732889   487A     11.785935   488A     11.816444  
     489A     11.966196   490A     12.116321   491A     12.215424  
     492A     12.451171   493A     13.420890   494A     13.616646  
     495A     13.648564   496A     13.666339   497A     13.923465  
     498A     13.966265   499A     13.970680   500A     14.031285  
     501A     16.155144   502A     16.895625   503A     28.229983  
     504A     28.334711   505A     28.480134   506A     64.719405  
     507A     65.744619   508A     66.070366   509A     66.662966  
     510A    160.987874  

    Final Occupation by Irrep:
              A 
    DOCC [     5 ]
    NA   [     5 ]
    NB   [     5 ]

  @DF-RHF Final Energy:   -76.06014517711728

   => Energetics <=

    Nuclear Repulsion Energy =              9.2136060368180530
    One-Electron Energy =                -123.0836065905708523
    Two-Electron Energy =                  37.8098553766355252
    Total Energy =                        -76.0601451771172776

Computation Completed


Properties will be evaluated at   0.000000,   0.000000,   0.000000 [a0]

Properties computed using the SCF density matrix


 Multipole Moments:

 ------------------------------------------------------------------------------------
     Multipole            Electronic (a.u.)      Nuclear  (a.u.)        Total (a.u.)
 ------------------------------------------------------------------------------------

 L = 1.  Multiply by 2.5417464519 to convert [e a0] to [Debye]
 Dipole X            :         -5.2942167            5.6291407            0.3349241
 Dipole Y            :        -13.4977635           13.8828371            0.3850735
 Dipole Z            :        -59.4390788           58.8778416           -0.5612372
 Magnitude           :                                                    0.7585796

 ------------------------------------------------------------------------------------

*** tstop() called on ddmfs1 at Mon Jan 22 20:57:05 2024
Module time:
	user time   =      92.93 seconds =       1.55 minutes
	system time =       4.94 seconds =       0.08 minutes
	total time  =          6 seconds =       0.10 minutes
Total time:
	user time   =      92.93 seconds =       1.55 minutes
	system time =       4.94 seconds =       0.08 minutes
	total time  =          6 seconds =       0.10 minutes

*** tstart() called on ddmfs1
*** at Mon Jan 22 20:57:05 2024


  //>>>>>>>>>>>>>>>>>>>>>>>>>>>>>>>>>>>//
  //               DFMP2               //
  //<<<<<<<<<<<<<<<<<<<<<<<<<<<<<<<<<<<//

   => Loading Basis Set <=

    Name: (AUG-CC-PVTZ AUX)
    Role: RIFIT
    Keyword: DF_BASIS_MP2
    atoms 1                            entry CL         line   742 file /ddmfs1b/softs/psi4conda/share/psi4/basis/aug-cc-pvtz-ri.gbs 
    atoms 2, 5, 8, 11, 14              entry O          line   264 file /ddmfs1b/softs/psi4conda/share/psi4/basis/aug-cc-pvtz-ri.gbs 
    atoms 3-4, 6-7, 9-10, 12-13, 15-16 entry H          line    30 file /ddmfs1b/softs/psi4conda/share/psi4/basis/aug-cc-pvtz-ri.gbs 

	 --------------------------------------------------------
	                          DF-MP2                         
	      2nd-Order Density-Fitted Moller-Plesset Theory     
	              RMP2 Wavefunction,  20 Threads             
	                                                         
	        Rob Parrish, Justin Turney, Andy Simmonett,      
	           Ed Hohenstein, and C. David Sherrill          
	 --------------------------------------------------------

   => Auxiliary Basis Set <=

  Basis Set: (AUG-CC-PVTZ AUX)
    Blend: AUG-CC-PVTZ-RI
    Number of shells: 317
    Number of basis functions: 1137
    Number of Cartesian functions: 1421
    Spherical Harmonics?: true
    Max angular momentum: 4

	 --------------------------------------------------------
	                 NBF =   510, NAUX =  1137
	 --------------------------------------------------------
	   CLASS    FOCC     OCC    AOCC    AVIR     VIR    FVIR
	   PAIRS       0       5       5     505     505       0
	 --------------------------------------------------------

	-----------------------------------------------------------
	 ==================> DF-MP2 Energies <==================== 
	-----------------------------------------------------------
	 Reference Energy          =     -76.0601451771172776 [Eh]
	 Singles Energy            =      -0.0000000000000000 [Eh]
	 Same-Spin Energy          =      -0.0683143714512850 [Eh]
	 Opposite-Spin Energy      =      -0.2156991176598272 [Eh]
	 Correlation Energy        =      -0.2840134891111121 [Eh]
	 Total Energy              =     -76.3441586662283953 [Eh]
	-----------------------------------------------------------
	 ================> DF-SCS-MP2 Energies <================== 
	-----------------------------------------------------------
	 SCS Same-Spin Scale       =       0.3333333333333333 [-]
	 SCS Opposite-Spin Scale   =       1.2000000000000000 [-]
	 SCS Same-Spin Energy      =      -0.0227714571504283 [Eh]
	 SCS Opposite-Spin Energy  =      -0.2588389411917926 [Eh]
	 SCS Correlation Energy    =      -0.2816103983422209 [Eh]
	 SCS Total Energy          =     -76.3417555754595014 [Eh]
	-----------------------------------------------------------


*** tstop() called on ddmfs1 at Mon Jan 22 20:57:10 2024
Module time:
	user time   =      26.64 seconds =       0.44 minutes
	system time =       1.57 seconds =       0.03 minutes
	total time  =          5 seconds =       0.08 minutes
Total time:
	user time   =     119.59 seconds =       1.99 minutes
	system time =       6.51 seconds =       0.11 minutes
	total time  =         11 seconds =       0.18 minutes

    Psi4 stopped on: Monday, 22 January 2024 08:57PM
    Psi4 wall time for execution: 0:00:11.17

*** Psi4 exiting successfully. Buy a developer a beer!
