
    -----------------------------------------------------------------------
          Psi4: An Open-Source Ab Initio Electronic Structure Package
                               Psi4 1.8.2 release

                         Git: Rev {} zzzzzzz 


    D. G. A. Smith, L. A. Burns, A. C. Simmonett, R. M. Parrish,
    M. C. Schieber, R. Galvelis, P. Kraus, H. Kruse, R. Di Remigio,
    A. Alenaizan, A. M. James, S. Lehtola, J. P. Misiewicz, M. Scheurer,
    R. A. Shaw, J. B. Schriber, Y. Xie, Z. L. Glick, D. A. Sirianni,
    J. S. O'Brien, J. M. Waldrop, A. Kumar, E. G. Hohenstein,
    B. P. Pritchard, B. R. Brooks, H. F. Schaefer III, A. Yu. Sokolov,
    K. Patkowski, A. E. DePrince III, U. Bozkaya, R. A. King,
    F. A. Evangelista, J. M. Turney, T. D. Crawford, C. D. Sherrill,
    J. Chem. Phys. 152(18) 184108 (2020). https://doi.org/10.1063/5.0006002

                            Additional Code Authors
    E. T. Seidl, C. L. Janssen, E. F. Valeev, M. L. Leininger,
    J. F. Gonthier, R. M. Richard, H. R. McAlexander, M. Saitow, X. Wang,
    P. Verma, M. H. Lechner, A. Jiang, S. Behnle, A. G. Heide,
    M. F. Herbst, and D. L. Poole

             Previous Authors, Complete List of Code Contributors,
                       and Citations for Specific Modules
    https://github.com/psi4/psi4/blob/master/codemeta.json
    https://github.com/psi4/psi4/graphs/contributors
    http://psicode.org/psi4manual/master/introduction.html#citing-psifour

    -----------------------------------------------------------------------


    Psi4 started on: Monday, 22 January 2024 07:11PM

    Process ID: 95689
    Host:       ddmfs1
    PSIDATADIR: /ddmfs1b/softs/psi4conda/share/psi4
    Memory:     500.0 MiB
    Threads:    20
    
  ==> Input File <==

--------------------------------------------------------------------------
MEMORY 60 GB

molecule dimer {
-1 1
Cl         0.000000     0.000000     0.000000
Gh(O)      2.039085    -2.462644     0.200988
Gh(H)      1.844667    -1.848434    -0.539502
Gh(H)      2.791815    -2.941769    -0.104662
Gh(O)      2.498699     1.474611    -1.093244
Gh(H)      2.371003     1.199564    -1.994894
Gh(H)      1.745902     1.188647    -0.615483
Gh(O)      2.394840    -0.079249     2.053779
Gh(H)      1.775513     0.099764     2.735700
Gh(H)      1.874464    -0.207619     1.256205
Gh(O)     -0.383324     2.887532     1.419545
Gh(H)     -0.168626     2.055517     0.996479
Gh(H)      0.449266     3.337289     1.431516
Gh(O)     -2.136232     0.804329    -2.001926
Gh(H)     -2.664027     1.566950    -2.332419
Gh(H)     -1.432285     1.115994    -1.486120

units ang
no_reorient
no_com
symmetry c1
}

set {
basis        aug-cc-pVTZ
scf_type     df
}

energy("mp2")
--------------------------------------------------------------------------

  Memory set to  55.879 GiB by Python driver.

Scratch directory: /ddmfs1a/scratch/
   => Libint2 <=

    Primary   basis highest AM E, G, H:  5, 4, 3
    Auxiliary basis highest AM E, G, H:  6, 5, 4
    Onebody   basis highest AM E, G, H:  6, 5, 4
    Solid Harmonics ordering:            gaussian

*** tstart() called on ddmfs1
*** at Mon Jan 22 19:11:13 2024

   => Loading Basis Set <=

    Name: AUG-CC-PVTZ
    Role: ORBITAL
    Keyword: BASIS
    atoms 1                            entry CL         line   988 file /ddmfs1b/softs/psi4conda/share/psi4/basis/aug-cc-pvtz.gbs 
    atoms 2, 5, 8, 11, 14              entry O          line   331 file /ddmfs1b/softs/psi4conda/share/psi4/basis/aug-cc-pvtz.gbs 
    atoms 3-4, 6-7, 9-10, 12-13, 15-16 entry H          line    40 file /ddmfs1b/softs/psi4conda/share/psi4/basis/aug-cc-pvtz.gbs 


         ---------------------------------------------------------
                                   SCF
               by Justin Turney, Rob Parrish, Andy Simmonett
                          and Daniel G. A. Smith
                              RHF Reference
                       20 Threads,  57220 MiB Core
         ---------------------------------------------------------

  ==> Geometry <==

    Molecular point group: c1
    Full point group: C1

    Geometry (in Angstrom), charge = -1, multiplicity = 1:

       Center              X                  Y                   Z               Mass       
    ------------   -----------------  -----------------  -----------------  -----------------
         CL           0.000000000000     0.000000000000     0.000000000000    34.968852682000
      Gh(O)           2.039085000000    -2.462644000000     0.200988000000    15.994914619570
      Gh(H)           1.844667000000    -1.848434000000    -0.539502000000     1.007825032230
      Gh(H)           2.791815000000    -2.941769000000    -0.104662000000     1.007825032230
      Gh(O)           2.498699000000     1.474611000000    -1.093244000000    15.994914619570
      Gh(H)           2.371003000000     1.199564000000    -1.994894000000     1.007825032230
      Gh(H)           1.745902000000     1.188647000000    -0.615483000000     1.007825032230
      Gh(O)           2.394840000000    -0.079249000000     2.053779000000    15.994914619570
      Gh(H)           1.775513000000     0.099764000000     2.735700000000     1.007825032230
      Gh(H)           1.874464000000    -0.207619000000     1.256205000000     1.007825032230
      Gh(O)          -0.383324000000     2.887532000000     1.419545000000    15.994914619570
      Gh(H)          -0.168626000000     2.055517000000     0.996479000000     1.007825032230
      Gh(H)           0.449266000000     3.337289000000     1.431516000000     1.007825032230
      Gh(O)          -2.136232000000     0.804329000000    -2.001926000000    15.994914619570
      Gh(H)          -2.664027000000     1.566950000000    -2.332419000000     1.007825032230
      Gh(H)          -1.432285000000     1.115994000000    -1.486120000000     1.007825032230

  Running in c1 symmetry.

  Rotational constants: A =      0.03944  B =      0.02800  C =      0.02260 [cm^-1]
  Rotational constants: A =   1182.28585  B =    839.39107  C =    677.56137 [MHz]
  Nuclear repulsion =    0.000000000000000

  Charge       = -1
  Multiplicity = 1
  Electrons    = 18
  Nalpha       = 9
  Nbeta        = 9

  ==> Algorithm <==

  SCF Algorithm Type is DF.
  DIIS enabled.
  MOM disabled.
  Fractional occupation disabled.
  Guess Type is SAD.
  Energy threshold   = 1.00e-08
  Density threshold  = 1.00e-08
  Integral threshold = 1.00e-12

  ==> Primary Basis <==

  Basis Set: AUG-CC-PVTZ
    Blend: AUG-CC-PVTZ
    Number of shells: 176
    Number of basis functions: 510
    Number of Cartesian functions: 584
    Spherical Harmonics?: true
    Max angular momentum: 3

   => Loading Basis Set <=

    Name: (AUG-CC-PVTZ AUX)
    Role: JKFIT
    Keyword: DF_BASIS_SCF
    atoms 1                            entry CL         line   816 file /ddmfs1b/softs/psi4conda/share/psi4/basis/aug-cc-pvtz-jkfit.gbs 
    atoms 2, 5, 8, 11, 14              entry O          line   286 file /ddmfs1b/softs/psi4conda/share/psi4/basis/aug-cc-pvtz-jkfit.gbs 
    atoms 3-4, 6-7, 9-10, 12-13, 15-16 entry H          line    70 file /ddmfs1b/softs/psi4conda/share/psi4/basis/aug-cc-pvtz-jkfit.gbs 

  ==> Integral Setup <==

  DFHelper Memory: AOs need 2.014 GiB; user supplied 41.910 GiB. 
  Using in-core AOs.

  ==> MemDFJK: Density-Fitted J/K Matrices <==

    J tasked:                   Yes
    K tasked:                   Yes
    wK tasked:                   No
    OpenMP threads:              20
    Memory [MiB]:             42915
    Algorithm:                 Core
    Schwarz Cutoff:           1E-12
    Mask sparsity (%):      12.3268
    Fitting Condition:        1E-10

   => Auxiliary Basis Set <=

  Basis Set: (AUG-CC-PVTZ AUX)
    Blend: AUG-CC-PVTZ-JKFIT
    Number of shells: 332
    Number of basis functions: 1126
    Number of Cartesian functions: 1385
    Spherical Harmonics?: true
    Max angular momentum: 4

  Minimum eigenvalue in the overlap matrix is 1.2835139803E-04.
  Reciprocal condition number of the overlap matrix is 9.8642009327E-06.
    Using symmetric orthogonalization.

  ==> Pre-Iterations <==

  SCF Guess: Superposition of Atomic Densities via on-the-fly atomic UHF (no occupation information).

   -------------------------
    Irrep   Nso     Nmo    
   -------------------------
     A        510     510 
   -------------------------
    Total     510     510
   -------------------------

  ==> Iterations <==

                           Total Energy        Delta E     RMS |[F,P]|

   @DF-RHF iter SAD:  -459.11248998792769   -4.59112e+02   0.00000e+00 
   @DF-RHF iter   1:  -459.51390146936421   -4.01411e-01   5.85970e-04 ADIIS/DIIS
   @DF-RHF iter   2:  -459.56481879518526   -5.09173e-02   3.00463e-04 ADIIS/DIIS
   @DF-RHF iter   3:  -459.57351804819069   -8.69925e-03   2.10284e-05 DIIS
   @DF-RHF iter   4:  -459.57357596704168   -5.79189e-05   4.11254e-06 DIIS
   @DF-RHF iter   5:  -459.57357958582213   -3.61878e-06   4.23228e-07 DIIS
   @DF-RHF iter   6:  -459.57357966882159   -8.29995e-08   3.84548e-08 DIIS
   @DF-RHF iter   7:  -459.57357966985188   -1.03029e-09   4.37587e-09 DIIS
  Energy and wave function converged.


  ==> Post-Iterations <==

    Orbital Energies [Eh]
    ---------------------

    Doubly Occupied:                                                      

       1A   -104.507302     2A    -10.230072     3A     -7.696149  
       4A     -7.696130     5A     -7.696110     6A     -0.733467  
       7A     -0.150311     8A     -0.150306     9A     -0.150302  

    Virtual:                                                              

      10A      0.118240    11A      0.122203    12A      0.128544  
      13A      0.137216    14A      0.145515    15A      0.160047  
      16A      0.171303    17A      0.182324    18A      0.186274  
      19A      0.192045    20A      0.226581    21A      0.235225  
      22A      0.248380    23A      0.251837    24A      0.258095  
      25A      0.262221    26A      0.268544    27A      0.273436  
      28A      0.277944    29A      0.282028    30A      0.293139  
      31A      0.300763    32A      0.305231    33A      0.313976  
      34A      0.318890    35A      0.325036    36A      0.331629  
      37A      0.336845    38A      0.345220    39A      0.350162  
      40A      0.359591    41A      0.369739    42A      0.384234  
      43A      0.402453    44A      0.414099    45A      0.421359  
      46A      0.427618    47A      0.435543    48A      0.444897  
      49A      0.448882    50A      0.454346    51A      0.458627  
      52A      0.467817    53A      0.471029    54A      0.482184  
      55A      0.489213    56A      0.490250    57A      0.498717  
      58A      0.499422    59A      0.507479    60A      0.513498  
      61A      0.517736    62A      0.522220    63A      0.525277  
      64A      0.539568    65A      0.546749    66A      0.551303  
      67A      0.563292    68A      0.568790    69A      0.584478  
      70A      0.587689    71A      0.594582    72A      0.602354  
      73A      0.619838    74A      0.629932    75A      0.643835  
      76A      0.657090    77A      0.662675    78A      0.666110  
      79A      0.684742    80A      0.709212    81A      0.723367  
      82A      0.729341    83A      0.743181    84A      0.754624  
      85A      0.777491    86A      0.781434    87A      0.807423  
      88A      0.820315    89A      0.822817    90A      0.837509  
      91A      0.845220    92A      0.870689    93A      0.872564  
      94A      0.881709    95A      0.892608    96A      0.900062  
      97A      0.919380    98A      0.926413    99A      0.932722  
     100A      0.936218   101A      0.944877   102A      0.949097  
     103A      0.954953   104A      0.957495   105A      0.965264  
     106A      0.975131   107A      0.980426   108A      0.984694  
     109A      0.988472   110A      0.996923   111A      1.004853  
     112A      1.010668   113A      1.012124   114A      1.013723  
     115A      1.022448   116A      1.029443   117A      1.036069  
     118A      1.046444   119A      1.052249   120A      1.055760  
     121A      1.061884   122A      1.066872   123A      1.070850  
     124A      1.075331   125A      1.078484   126A      1.090247  
     127A      1.098286   128A      1.100293   129A      1.109652  
     130A      1.118662   131A      1.125858   132A      1.136100  
     133A      1.140520   134A      1.143653   135A      1.157834  
     136A      1.166822   137A      1.174671   138A      1.180670  
     139A      1.181076   140A      1.189603   141A      1.197323  
     142A      1.199089   143A      1.205762   144A      1.215004  
     145A      1.231041   146A      1.242421   147A      1.250365  
     148A      1.260588   149A      1.263398   150A      1.272955  
     151A      1.279979   152A      1.286401   153A      1.296944  
     154A      1.310644   155A      1.313189   156A      1.319060  
     157A      1.326779   158A      1.340321   159A      1.354317  
     160A      1.358280   161A      1.366896   162A      1.383214  
     163A      1.386225   164A      1.401141   165A      1.408254  
     166A      1.421281   167A      1.426641   168A      1.441537  
     169A      1.451626   170A      1.452359   171A      1.461816  
     172A      1.479793   173A      1.492519   174A      1.512774  
     175A      1.521124   176A      1.533770   177A      1.543506  
     178A      1.549673   179A      1.569702   180A      1.574319  
     181A      1.582707   182A      1.603312   183A      1.612845  
     184A      1.628742   185A      1.633460   186A      1.654279  
     187A      1.665370   188A      1.676814   189A      1.696738  
     190A      1.703109   191A      1.727118   192A      1.762927  
     193A      1.767187   194A      1.773051   195A      1.825872  
     196A      1.835432   197A      1.845408   198A      1.868901  
     199A      1.873006   200A      1.879682   201A      1.881429  
     202A      1.906104   203A      1.909896   204A      1.924704  
     205A      1.929566   206A      1.946553   207A      1.950278  
     208A      1.956948   209A      1.969489   210A      1.977261  
     211A      1.992361   212A      1.999876   213A      2.007788  
     214A      2.011370   215A      2.025814   216A      2.035195  
     217A      2.052315   218A      2.059926   219A      2.068980  
     220A      2.084506   221A      2.090334   222A      2.097335  
     223A      2.116910   224A      2.128360   225A      2.144980  
     226A      2.147583   227A      2.167102   228A      2.181296  
     229A      2.196134   230A      2.215657   231A      2.255794  
     232A      2.266086   233A      2.282119   234A      2.326045  
     235A      2.404004   236A      2.411005   237A      2.436860  
     238A      2.444408   239A      2.480209   240A      2.581989  
     241A      2.604349   242A      2.616859   243A      2.633131  
     244A      2.640791   245A      2.651429   246A      2.670172  
     247A      2.676825   248A      2.688806   249A      2.703098  
     250A      2.712646   251A      2.718395   252A      2.730332  
     253A      2.737735   254A      2.746599   255A      2.760419  
     256A      2.777107   257A      2.788486   258A      2.798461  
     259A      2.802323   260A      2.813356   261A      2.833916  
     262A      2.849116   263A      2.854916   264A      2.866697  
     265A      2.884334   266A      2.891458   267A      2.904071  
     268A      2.917405   269A      2.926142   270A      2.935985  
     271A      2.938387   272A      2.976480   273A      2.996162  
     274A      3.008388   275A      3.016474   276A      3.021821  
     277A      3.037901   278A      3.047142   279A      3.060615  
     280A      3.109620   281A      3.115305   282A      3.126431  
     283A      3.145462   284A      3.172935   285A      3.180930  
     286A      3.239260   287A      3.267389   288A      3.279980  
     289A      3.328861   290A      3.338138   291A      3.350556  
     292A      3.367263   293A      3.370807   294A      3.386859  
     295A      3.407930   296A      3.410290   297A      3.422058  
     298A      3.432165   299A      3.440173   300A      3.457500  
     301A      3.472005   302A      3.477691   303A      3.496676  
     304A      3.527464   305A      3.543536   306A      3.566629  
     307A      3.587956   308A      3.596052   309A      3.613995  
     310A      3.630041   311A      3.648667   312A      3.672811  
     313A      3.703953   314A      3.708418   315A      3.715342  
     316A      3.748156   317A      3.752987   318A      3.762886  
     319A      3.772143   320A      3.799141   321A      3.811785  
     322A      3.833037   323A      3.847525   324A      3.853885  
     325A      3.902915   326A      3.909695   327A      3.937631  
     328A      3.959930   329A      4.002418   330A      4.019147  
     331A      4.023865   332A      4.067762   333A      4.120867  
     334A      4.144543   335A      4.557313   336A      4.571803  
     337A      4.612236   338A      4.626375   339A      4.635771  
     340A      4.644051   341A      4.674541   342A      4.678228  
     343A      4.707582   344A      4.721053   345A      4.725006  
     346A      4.765716   347A      4.790943   348A      4.813815  
     349A      4.822459   350A      4.831668   351A      4.840916  
     352A      4.857346   353A      4.862445   354A      4.877767  
     355A      4.888443   356A      4.908574   357A      4.912061  
     358A      4.935289   359A      4.951059   360A      4.995356  
     361A      5.030549   362A      5.036233   363A      5.051556  
     364A      5.060949   365A      5.088153   366A      5.091736  
     367A      5.121591   368A      5.133218   369A      5.142989  
     370A      5.147569   371A      5.165334   372A      5.181509  
     373A      5.210294   374A      5.230294   375A      5.246631  
     376A      5.295173   377A      5.308133   378A      5.319677  
     379A      5.371001   380A      5.421871   381A      5.453285  
     382A      5.471355   383A      5.510754   384A      5.562706  
     385A      5.710019   386A      5.734922   387A      5.752544  
     388A      5.774661   389A      5.793575   390A      5.803191  
     391A      5.825498   392A      5.848322   393A      5.858471  
     394A      5.882882   395A      5.890430   396A      5.912007  
     397A      5.934126   398A      5.973590   399A      6.000559  
     400A      6.015912   401A      6.071539   402A      6.115156  
     403A      6.129524   404A      6.184896   405A      6.333652  
     406A      6.350445   407A      6.377780   408A      6.406555  
     409A      6.427921   410A      6.575290   411A      6.617968  
     412A      6.659671   413A      6.744839   414A      6.761629  
     415A      6.820964   416A      6.898769   417A      6.939893  
     418A      6.967338   419A      7.014209   420A      7.262708  
     421A      7.336808   422A      7.352893   423A      7.370874  
     424A      7.414761   425A      7.711260   426A      7.889142  
     427A      7.894815   428A      7.920464   429A      7.963112  
     430A      7.979405   431A      7.988694   432A      8.034831  
     433A      8.044255   434A      8.055449   435A      8.078386  
     436A      8.243171   437A      8.256817   438A      8.266358  
     439A      8.302453   440A      8.314366   441A      8.349364  
     442A      8.414580   443A      8.442998   444A      8.467944  
     445A      8.476992   446A      8.497032   447A      8.505161  
     448A      8.512500   449A      8.547700   450A      8.579775  
     451A      8.989351   452A      8.996296   453A      9.015489  
     454A      9.044824   455A      9.063568   456A      9.073257  
     457A      9.230104   458A      9.240802   459A      9.273286  
     460A      9.380900   461A      9.867406   462A      9.899897  
     463A      9.933196   464A      9.966684   465A      9.990153  
     466A     10.021334   467A     10.060759   468A     10.098945  
     469A     10.111686   470A     10.143542   471A     10.220303  
     472A     10.236913   473A     10.268535   474A     10.317613  
     475A     10.335181   476A     10.429189   477A     10.468717  
     478A     10.529560   479A     10.548170   480A     10.565844  
     481A     11.323450   482A     11.380071   483A     11.489273  
     484A     11.489690   485A     11.515346   486A     11.880442  
     487A     11.940357   488A     11.968070   489A     12.039832  
     490A     12.107554   491A     12.366264   492A     12.463060  
     493A     12.484297   494A     12.524284   495A     12.614387  
     496A     13.769814   497A     13.842357   498A     13.872078  
     499A     13.939985   500A     13.987255   501A     14.069871  
     502A     14.104844   503A     14.157405   504A     14.177854  
     505A     14.244841   506A     65.260618   507A     66.171898  
     508A     67.381260   509A     67.574649   510A     68.481329  

    Final Occupation by Irrep:
              A 
    DOCC [     9 ]
    NA   [     9 ]
    NB   [     9 ]

  @DF-RHF Final Energy:  -459.57357966985188

   => Energetics <=

    Nuclear Repulsion Energy =              0.0000000000000000
    One-Electron Energy =                -641.1268757394078648
    Two-Electron Energy =                 181.5532960695559836
    Total Energy =                       -459.5735796698518811

Computation Completed


Properties will be evaluated at   0.000000,   0.000000,   0.000000 [a0]

Properties computed using the SCF density matrix


 Multipole Moments:

 ------------------------------------------------------------------------------------
     Multipole            Electronic (a.u.)      Nuclear  (a.u.)        Total (a.u.)
 ------------------------------------------------------------------------------------

 L = 1.  Multiply by 2.5417464519 to convert [e a0] to [Debye]
 Dipole X            :          0.0001326            0.0000000            0.0001326
 Dipole Y            :          0.0003586            0.0000000            0.0003586
 Dipole Z            :          0.0000667            0.0000000            0.0000667
 Magnitude           :                                                    0.0003881

 ------------------------------------------------------------------------------------

*** tstop() called on ddmfs1 at Mon Jan 22 19:11:19 2024
Module time:
	user time   =      93.42 seconds =       1.56 minutes
	system time =       5.65 seconds =       0.09 minutes
	total time  =          6 seconds =       0.10 minutes
Total time:
	user time   =      93.42 seconds =       1.56 minutes
	system time =       5.65 seconds =       0.09 minutes
	total time  =          6 seconds =       0.10 minutes

*** tstart() called on ddmfs1
*** at Mon Jan 22 19:11:19 2024


  //>>>>>>>>>>>>>>>>>>>>>>>>>>>>>>>>>>>//
  //               DFMP2               //
  //<<<<<<<<<<<<<<<<<<<<<<<<<<<<<<<<<<<//

   => Loading Basis Set <=

    Name: (AUG-CC-PVTZ AUX)
    Role: RIFIT
    Keyword: DF_BASIS_MP2
    atoms 1                            entry CL         line   742 file /ddmfs1b/softs/psi4conda/share/psi4/basis/aug-cc-pvtz-ri.gbs 
    atoms 2, 5, 8, 11, 14              entry O          line   264 file /ddmfs1b/softs/psi4conda/share/psi4/basis/aug-cc-pvtz-ri.gbs 
    atoms 3-4, 6-7, 9-10, 12-13, 15-16 entry H          line    30 file /ddmfs1b/softs/psi4conda/share/psi4/basis/aug-cc-pvtz-ri.gbs 

	 --------------------------------------------------------
	                          DF-MP2                         
	      2nd-Order Density-Fitted Moller-Plesset Theory     
	              RMP2 Wavefunction,  20 Threads             
	                                                         
	        Rob Parrish, Justin Turney, Andy Simmonett,      
	           Ed Hohenstein, and C. David Sherrill          
	 --------------------------------------------------------

   => Auxiliary Basis Set <=

  Basis Set: (AUG-CC-PVTZ AUX)
    Blend: AUG-CC-PVTZ-RI
    Number of shells: 317
    Number of basis functions: 1137
    Number of Cartesian functions: 1421
    Spherical Harmonics?: true
    Max angular momentum: 4

	 --------------------------------------------------------
	                 NBF =   510, NAUX =  1137
	 --------------------------------------------------------
	   CLASS    FOCC     OCC    AOCC    AVIR     VIR    FVIR
	   PAIRS       0       9       9     501     501       0
	 --------------------------------------------------------

	-----------------------------------------------------------
	 ==================> DF-MP2 Energies <==================== 
	-----------------------------------------------------------
	 Reference Energy          =    -459.5735796698518811 [Eh]
	 Singles Energy            =      -0.0000000000000000 [Eh]
	 Same-Spin Energy          =      -0.0635731570712845 [Eh]
	 Opposite-Spin Energy      =      -0.1839532317190395 [Eh]
	 Correlation Energy        =      -0.2475263887903240 [Eh]
	 Total Energy              =    -459.8211060586422150 [Eh]
	-----------------------------------------------------------
	 ================> DF-SCS-MP2 Energies <================== 
	-----------------------------------------------------------
	 SCS Same-Spin Scale       =       0.3333333333333333 [-]
	 SCS Opposite-Spin Scale   =       1.2000000000000000 [-]
	 SCS Same-Spin Energy      =      -0.0211910523570948 [Eh]
	 SCS Opposite-Spin Energy  =      -0.2207438780628474 [Eh]
	 SCS Correlation Energy    =      -0.2419349304199422 [Eh]
	 SCS Total Energy          =    -459.8155146002717970 [Eh]
	-----------------------------------------------------------


*** tstop() called on ddmfs1 at Mon Jan 22 19:11:24 2024
Module time:
	user time   =      28.19 seconds =       0.47 minutes
	system time =       1.65 seconds =       0.03 minutes
	total time  =          5 seconds =       0.08 minutes
Total time:
	user time   =     121.63 seconds =       2.03 minutes
	system time =       7.30 seconds =       0.12 minutes
	total time  =         11 seconds =       0.18 minutes

    Psi4 stopped on: Monday, 22 January 2024 07:11PM
    Psi4 wall time for execution: 0:00:11.29

*** Psi4 exiting successfully. Buy a developer a beer!
