
    -----------------------------------------------------------------------
          Psi4: An Open-Source Ab Initio Electronic Structure Package
                               Psi4 1.8.2 release

                         Git: Rev {} zzzzzzz 


    D. G. A. Smith, L. A. Burns, A. C. Simmonett, R. M. Parrish,
    M. C. Schieber, R. Galvelis, P. Kraus, H. Kruse, R. Di Remigio,
    A. Alenaizan, A. M. James, S. Lehtola, J. P. Misiewicz, M. Scheurer,
    R. A. Shaw, J. B. Schriber, Y. Xie, Z. L. Glick, D. A. Sirianni,
    J. S. O'Brien, J. M. Waldrop, A. Kumar, E. G. Hohenstein,
    B. P. Pritchard, B. R. Brooks, H. F. Schaefer III, A. Yu. Sokolov,
    K. Patkowski, A. E. DePrince III, U. Bozkaya, R. A. King,
    F. A. Evangelista, J. M. Turney, T. D. Crawford, C. D. Sherrill,
    J. Chem. Phys. 152(18) 184108 (2020). https://doi.org/10.1063/5.0006002

                            Additional Code Authors
    E. T. Seidl, C. L. Janssen, E. F. Valeev, M. L. Leininger,
    J. F. Gonthier, R. M. Richard, H. R. McAlexander, M. Saitow, X. Wang,
    P. Verma, M. H. Lechner, A. Jiang, S. Behnle, A. G. Heide,
    M. F. Herbst, and D. L. Poole

             Previous Authors, Complete List of Code Contributors,
                       and Citations for Specific Modules
    https://github.com/psi4/psi4/blob/master/codemeta.json
    https://github.com/psi4/psi4/graphs/contributors
    http://psicode.org/psi4manual/master/introduction.html#citing-psifour

    -----------------------------------------------------------------------


    Psi4 started on: Monday, 22 January 2024 08:42PM

    Process ID: 105005
    Host:       ddmfs1
    PSIDATADIR: /ddmfs1b/softs/psi4conda/share/psi4
    Memory:     500.0 MiB
    Threads:    20
    
  ==> Input File <==

--------------------------------------------------------------------------
MEMORY 60 GB

molecule dimer {
-1 1
Cl         0.000000     0.000000     0.000000
Gh(O)     -3.370024     0.123556    -0.210045
Gh(H)     -3.712136    -0.753568    -0.410247
Gh(H)     -2.509058    -0.095905     0.154564
Gh(O)      2.269159     0.583446     2.589957
Gh(H)      2.144119     1.147020     3.342242
Gh(H)      1.407737     0.721846     2.187714
Gh(O)     -1.122723    -2.623202     2.011204
Gh(H)     -0.197973    -2.402084     2.039071
Gh(H)     -1.372546    -2.635123     1.061311
Gh(O)      2.630297    -1.501053    -0.382371
Gh(H)      1.890837    -0.976617    -0.284482
Gh(H)      3.323921    -0.843864    -0.700421
Gh(O)     -1.415811     1.063094    -2.492588
Gh(H)     -1.911670     1.851984    -2.471353
Gh(H)     -0.800053     1.148544    -1.739880
Gh(O)      1.833537     2.448442    -1.561515
Gh(H)      1.282768     2.936430    -2.175940
Gh(H)      1.341122     1.773778    -0.981948

units ang
no_reorient
no_com
symmetry c1
}

set {
basis        aug-cc-pVTZ
scf_type     df
}

energy("mp2")
--------------------------------------------------------------------------

  Memory set to  55.879 GiB by Python driver.

Scratch directory: /ddmfs1a/scratch/
   => Libint2 <=

    Primary   basis highest AM E, G, H:  5, 4, 3
    Auxiliary basis highest AM E, G, H:  6, 5, 4
    Onebody   basis highest AM E, G, H:  6, 5, 4
    Solid Harmonics ordering:            gaussian

*** tstart() called on ddmfs1
*** at Mon Jan 22 20:42:18 2024

   => Loading Basis Set <=

    Name: AUG-CC-PVTZ
    Role: ORBITAL
    Keyword: BASIS
    atoms 1                                   entry CL         line   988 file /ddmfs1b/softs/psi4conda/share/psi4/basis/aug-cc-pvtz.gbs 
    atoms 2, 5, 8, 11, 14, 17                 entry O          line   331 file /ddmfs1b/softs/psi4conda/share/psi4/basis/aug-cc-pvtz.gbs 
    atoms 3-4, 6-7, 9-10, 12-13, 15-16, 18-19 entry H          line    40 file /ddmfs1b/softs/psi4conda/share/psi4/basis/aug-cc-pvtz.gbs 


         ---------------------------------------------------------
                                   SCF
               by Justin Turney, Rob Parrish, Andy Simmonett
                          and Daniel G. A. Smith
                              RHF Reference
                       20 Threads,  57220 MiB Core
         ---------------------------------------------------------

  ==> Geometry <==

    Molecular point group: c1
    Full point group: C1

    Geometry (in Angstrom), charge = -1, multiplicity = 1:

       Center              X                  Y                   Z               Mass       
    ------------   -----------------  -----------------  -----------------  -----------------
         CL           0.000000000000     0.000000000000     0.000000000000    34.968852682000
      Gh(O)          -3.370024000000     0.123556000000    -0.210045000000    15.994914619570
      Gh(H)          -3.712136000000    -0.753568000000    -0.410247000000     1.007825032230
      Gh(H)          -2.509058000000    -0.095905000000     0.154564000000     1.007825032230
      Gh(O)           2.269159000000     0.583446000000     2.589957000000    15.994914619570
      Gh(H)           2.144119000000     1.147020000000     3.342242000000     1.007825032230
      Gh(H)           1.407737000000     0.721846000000     2.187714000000     1.007825032230
      Gh(O)          -1.122723000000    -2.623202000000     2.011204000000    15.994914619570
      Gh(H)          -0.197973000000    -2.402084000000     2.039071000000     1.007825032230
      Gh(H)          -1.372546000000    -2.635123000000     1.061311000000     1.007825032230
      Gh(O)           2.630297000000    -1.501053000000    -0.382371000000    15.994914619570
      Gh(H)           1.890837000000    -0.976617000000    -0.284482000000     1.007825032230
      Gh(H)           3.323921000000    -0.843864000000    -0.700421000000     1.007825032230
      Gh(O)          -1.415811000000     1.063094000000    -2.492588000000    15.994914619570
      Gh(H)          -1.911670000000     1.851984000000    -2.471353000000     1.007825032230
      Gh(H)          -0.800053000000     1.148544000000    -1.739880000000     1.007825032230
      Gh(O)           1.833537000000     2.448442000000    -1.561515000000    15.994914619570
      Gh(H)           1.282768000000     2.936430000000    -2.175940000000     1.007825032230
      Gh(H)           1.341122000000     1.773778000000    -0.981948000000     1.007825032230

  Running in c1 symmetry.

  Rotational constants: A =      0.02701  B =      0.02442  C =      0.01607 [cm^-1]
  Rotational constants: A =    809.65435  B =    732.15235  C =    481.63582 [MHz]
  Nuclear repulsion =    0.000000000000000

  Charge       = -1
  Multiplicity = 1
  Electrons    = 18
  Nalpha       = 9
  Nbeta        = 9

  ==> Algorithm <==

  SCF Algorithm Type is DF.
  DIIS enabled.
  MOM disabled.
  Fractional occupation disabled.
  Guess Type is SAD.
  Energy threshold   = 1.00e-08
  Density threshold  = 1.00e-08
  Integral threshold = 1.00e-12

  ==> Primary Basis <==

  Basis Set: AUG-CC-PVTZ
    Blend: AUG-CC-PVTZ
    Number of shells: 208
    Number of basis functions: 602
    Number of Cartesian functions: 689
    Spherical Harmonics?: true
    Max angular momentum: 3

   => Loading Basis Set <=

    Name: (AUG-CC-PVTZ AUX)
    Role: JKFIT
    Keyword: DF_BASIS_SCF
    atoms 1                                   entry CL         line   816 file /ddmfs1b/softs/psi4conda/share/psi4/basis/aug-cc-pvtz-jkfit.gbs 
    atoms 2, 5, 8, 11, 14, 17                 entry O          line   286 file /ddmfs1b/softs/psi4conda/share/psi4/basis/aug-cc-pvtz-jkfit.gbs 
    atoms 3-4, 6-7, 9-10, 12-13, 15-16, 18-19 entry H          line    70 file /ddmfs1b/softs/psi4conda/share/psi4/basis/aug-cc-pvtz-jkfit.gbs 

  ==> Integral Setup <==

  DFHelper Memory: AOs need 3.113 GiB; user supplied 41.910 GiB. 
  Using in-core AOs.

  ==> MemDFJK: Density-Fitted J/K Matrices <==

    J tasked:                   Yes
    K tasked:                   Yes
    wK tasked:                   No
    OpenMP threads:              20
    Memory [MiB]:             42915
    Algorithm:                 Core
    Schwarz Cutoff:           1E-12
    Mask sparsity (%):      16.7123
    Fitting Condition:        1E-10

   => Auxiliary Basis Set <=

  Basis Set: (AUG-CC-PVTZ AUX)
    Blend: AUG-CC-PVTZ-JKFIT
    Number of shells: 390
    Number of basis functions: 1322
    Number of Cartesian functions: 1626
    Spherical Harmonics?: true
    Max angular momentum: 4

  Minimum eigenvalue in the overlap matrix is 1.2203314517E-04.
  Reciprocal condition number of the overlap matrix is 9.7318009042E-06.
    Using symmetric orthogonalization.

  ==> Pre-Iterations <==

  SCF Guess: Superposition of Atomic Densities via on-the-fly atomic UHF (no occupation information).

   -------------------------
    Irrep   Nso     Nmo    
   -------------------------
     A        602     602 
   -------------------------
    Total     602     602
   -------------------------

  ==> Iterations <==

                           Total Energy        Delta E     RMS |[F,P]|

   @DF-RHF iter SAD:  -459.11248998383843   -4.59112e+02   0.00000e+00 
   @DF-RHF iter   1:  -459.51390536253155   -4.01415e-01   4.96398e-04 ADIIS/DIIS
   @DF-RHF iter   2:  -459.56482242461561   -5.09171e-02   2.54525e-04 ADIIS/DIIS
   @DF-RHF iter   3:  -459.57352113964919   -8.69872e-03   1.78571e-05 DIIS
   @DF-RHF iter   4:  -459.57357921985897   -5.80802e-05   3.48559e-06 DIIS
   @DF-RHF iter   5:  -459.57358284055960   -3.62070e-06   3.58319e-07 DIIS
   @DF-RHF iter   6:  -459.57358292432235   -8.37628e-08   3.32682e-08 DIIS
   @DF-RHF iter   7:  -459.57358292542909   -1.10674e-09   3.80175e-09 DIIS
  Energy and wave function converged.


  ==> Post-Iterations <==

    Orbital Energies [Eh]
    ---------------------

    Doubly Occupied:                                                      

       1A   -104.507282     2A    -10.230061     3A     -7.696138  
       4A     -7.696117     5A     -7.696097     6A     -0.733461  
       7A     -0.150305     8A     -0.150304     9A     -0.150294  

    Virtual:                                                              

      10A      0.116548    11A      0.120174    12A      0.126565  
      13A      0.131829    14A      0.141140    15A      0.144724  
      16A      0.158382    17A      0.164838    18A      0.175838  
      19A      0.182607    20A      0.186323    21A      0.194577  
      22A      0.229852    23A      0.237171    24A      0.244879  
      25A      0.246119    26A      0.249243    27A      0.252446  
      28A      0.262831    29A      0.266170    30A      0.270465  
      31A      0.271802    32A      0.277848    33A      0.282444  
      34A      0.287587    35A      0.292816    36A      0.297137  
      37A      0.304926    38A      0.312630    39A      0.320799  
      40A      0.330033    41A      0.334589    42A      0.335436  
      43A      0.341820    44A      0.353394    45A      0.354695  
      46A      0.369563    47A      0.374187    48A      0.390660  
      49A      0.405635    50A      0.417692    51A      0.423983  
      52A      0.425569    53A      0.437687    54A      0.442487  
      55A      0.446096    56A      0.449473    57A      0.453448  
      58A      0.461490    59A      0.462844    60A      0.467464  
      61A      0.473173    62A      0.476763    63A      0.481674  
      64A      0.485326    65A      0.491234    66A      0.497265  
      67A      0.503709    68A      0.506486    69A      0.509993  
      70A      0.513223    71A      0.521472    72A      0.526582  
      73A      0.530107    74A      0.538318    75A      0.541486  
      76A      0.549151    77A      0.560648    78A      0.564861  
      79A      0.568004    80A      0.571921    81A      0.579131  
      82A      0.591667    83A      0.595724    84A      0.602243  
      85A      0.614358    86A      0.617756    87A      0.631943  
      88A      0.642809    89A      0.649006    90A      0.669429  
      91A      0.677056    92A      0.693125    93A      0.706320  
      94A      0.719114    95A      0.728074    96A      0.743845  
      97A      0.752484    98A      0.765985    99A      0.782049  
     100A      0.792425   101A      0.800136   102A      0.813389  
     103A      0.815490   104A      0.824310   105A      0.841079  
     106A      0.846728   107A      0.857123   108A      0.873465  
     109A      0.881037   110A      0.883788   111A      0.893917  
     112A      0.901121   113A      0.903179   114A      0.916396  
     115A      0.922454   116A      0.928638   117A      0.931281  
     118A      0.939487   119A      0.941023   120A      0.947600  
     121A      0.952081   122A      0.955728   123A      0.962739  
     124A      0.968058   125A      0.969249   126A      0.973417  
     127A      0.986052   128A      0.988534   129A      0.991155  
     130A      0.996361   131A      1.000698   132A      1.002012  
     133A      1.008349   134A      1.016100   135A      1.019034  
     136A      1.025610   137A      1.029998   138A      1.034423  
     139A      1.041709   140A      1.044369   141A      1.052414  
     142A      1.054640   143A      1.059549   144A      1.064229  
     145A      1.069553   146A      1.077805   147A      1.089397  
     148A      1.091286   149A      1.096869   150A      1.106180  
     151A      1.110266   152A      1.112313   153A      1.120365  
     154A      1.125422   155A      1.129384   156A      1.133102  
     157A      1.142641   158A      1.145179   159A      1.148963  
     160A      1.154024   161A      1.158691   162A      1.165365  
     163A      1.168615   164A      1.169330   165A      1.187241  
     166A      1.196047   167A      1.198405   168A      1.200822  
     169A      1.208235   170A      1.218308   171A      1.225190  
     172A      1.228007   173A      1.237157   174A      1.246646  
     175A      1.249985   176A      1.255256   177A      1.259526  
     178A      1.274090   179A      1.282714   180A      1.288412  
     181A      1.300797   182A      1.306559   183A      1.317799  
     184A      1.325804   185A      1.328471   186A      1.348487  
     187A      1.352904   188A      1.361626   189A      1.363331  
     190A      1.374477   191A      1.382900   192A      1.393656  
     193A      1.402858   194A      1.411692   195A      1.421198  
     196A      1.424868   197A      1.439809   198A      1.442322  
     199A      1.453126   200A      1.455005   201A      1.468065  
     202A      1.477781   203A      1.483978   204A      1.485988  
     205A      1.500435   206A      1.504979   207A      1.530323  
     208A      1.535070   209A      1.538212   210A      1.546193  
     211A      1.557120   212A      1.576244   213A      1.593215  
     214A      1.600472   215A      1.609724   216A      1.619710  
     217A      1.630000   218A      1.638092   219A      1.645831  
     220A      1.663805   221A      1.671993   222A      1.684293  
     223A      1.691081   224A      1.696777   225A      1.713581  
     226A      1.726833   227A      1.742369   228A      1.756104  
     229A      1.779897   230A      1.794689   231A      1.810002  
     232A      1.825980   233A      1.834415   234A      1.848356  
     235A      1.856156   236A      1.867404   237A      1.873620  
     238A      1.893177   239A      1.897506   240A      1.913739  
     241A      1.922540   242A      1.927102   243A      1.934351  
     244A      1.938888   245A      1.946474   246A      1.948450  
     247A      1.956287   248A      1.969509   249A      1.974731  
     250A      1.980567   251A      1.992588   252A      2.002749  
     253A      2.009356   254A      2.024735   255A      2.039960  
     256A      2.046804   257A      2.060553   258A      2.062772  
     259A      2.070686   260A      2.085693   261A      2.101325  
     262A      2.105525   263A      2.119607   264A      2.129282  
     265A      2.139020   266A      2.149474   267A      2.172083  
     268A      2.183104   269A      2.201605   270A      2.205301  
     271A      2.228044   272A      2.250446   273A      2.258439  
     274A      2.276155   275A      2.313777   276A      2.369796  
     277A      2.387047   278A      2.448373   279A      2.483862  
     280A      2.559286   281A      2.573693   282A      2.585201  
     283A      2.604263   284A      2.613718   285A      2.619018  
     286A      2.637945   287A      2.640750   288A      2.650234  
     289A      2.671312   290A      2.679670   291A      2.682687  
     292A      2.690084   293A      2.697877   294A      2.698072  
     295A      2.709745   296A      2.713134   297A      2.721640  
     298A      2.727330   299A      2.741037   300A      2.747380  
     301A      2.751650   302A      2.759933   303A      2.766504  
     304A      2.785723   305A      2.793393   306A      2.796159  
     307A      2.802964   308A      2.818284   309A      2.824214  
     310A      2.829411   311A      2.833786   312A      2.843840  
     313A      2.854900   314A      2.889114   315A      2.891616  
     316A      2.902235   317A      2.915861   318A      2.932206  
     319A      2.938852   320A      2.947028   321A      2.958343  
     322A      2.967778   323A      2.970766   324A      2.992560  
     325A      3.012957   326A      3.021517   327A      3.066956  
     328A      3.070969   329A      3.100818   330A      3.102898  
     331A      3.110534   332A      3.117687   333A      3.150842  
     334A      3.191625   335A      3.196046   336A      3.226110  
     337A      3.237141   338A      3.280931   339A      3.307931  
     340A      3.314148   341A      3.338253   342A      3.340403  
     343A      3.358338   344A      3.361044   345A      3.363954  
     346A      3.365901   347A      3.375317   348A      3.379914  
     349A      3.395493   350A      3.400740   351A      3.408963  
     352A      3.414551   353A      3.430758   354A      3.450903  
     355A      3.471181   356A      3.478381   357A      3.487342  
     358A      3.500958   359A      3.523835   360A      3.535069  
     361A      3.552097   362A      3.567112   363A      3.596977  
     364A      3.602384   365A      3.633694   366A      3.635206  
     367A      3.646255   368A      3.669714   369A      3.698483  
     370A      3.704344   371A      3.725145   372A      3.733867  
     373A      3.753445   374A      3.767216   375A      3.773113  
     376A      3.784144   377A      3.808600   378A      3.833600  
     379A      3.836680   380A      3.850060   381A      3.869371  
     382A      3.899636   383A      3.913095   384A      3.925733  
     385A      3.953159   386A      3.959262   387A      3.991979  
     388A      4.023558   389A      4.063800   390A      4.087158  
     391A      4.200888   392A      4.550259   393A      4.580910  
     394A      4.592718   395A      4.599242   396A      4.607913  
     397A      4.615610   398A      4.621727   399A      4.632051  
     400A      4.635249   401A      4.668425   402A      4.671494  
     403A      4.687752   404A      4.702596   405A      4.711733  
     406A      4.742363   407A      4.747954   408A      4.752994  
     409A      4.774130   410A      4.799476   411A      4.802716  
     412A      4.812981   413A      4.824292   414A      4.839404  
     415A      4.851845   416A      4.868900   417A      4.883062  
     418A      4.889308   419A      4.897871   420A      4.905519  
     421A      4.914014   422A      4.916205   423A      5.000677  
     424A      5.009954   425A      5.013220   426A      5.021234  
     427A      5.028194   428A      5.042585   429A      5.059471  
     430A      5.062125   431A      5.074508   432A      5.086676  
     433A      5.103366   434A      5.107151   435A      5.116131  
     436A      5.123189   437A      5.156939   438A      5.178346  
     439A      5.202196   440A      5.211913   441A      5.226588  
     442A      5.237396   443A      5.276941   444A      5.327119  
     445A      5.357866   446A      5.370661   447A      5.436459  
     448A      5.478200   449A      5.507540   450A      5.521367  
     451A      5.556241   452A      5.629106   453A      5.640336  
     454A      5.659011   455A      5.665413   456A      5.732867  
     457A      5.770806   458A      5.784671   459A      5.786922  
     460A      5.794667   461A      5.808189   462A      5.827721  
     463A      5.838128   464A      5.844757   465A      5.848524  
     466A      5.860726   467A      5.870246   468A      5.888979  
     469A      5.920319   470A      5.977880   471A      6.054357  
     472A      6.088690   473A      6.097789   474A      6.128938  
     475A      6.145867   476A      6.295617   477A      6.319665  
     478A      6.328948   479A      6.344275   480A      6.369947  
     481A      6.400497   482A      6.437733   483A      6.476052  
     484A      6.551345   485A      6.576223   486A      6.692541  
     487A      6.711418   488A      6.768408   489A      6.800376  
     490A      6.822028   491A      6.875152   492A      6.930670  
     493A      6.974956   494A      7.204896   495A      7.226687  
     496A      7.268859   497A      7.280948   498A      7.335728  
     499A      7.435583   500A      7.696415   501A      7.840432  
     502A      7.867995   503A      7.879909   504A      7.887582  
     505A      7.915918   506A      7.926534   507A      7.972744  
     508A      7.996332   509A      8.060580   510A      8.073665  
     511A      8.076742   512A      8.099987   513A      8.190009  
     514A      8.201328   515A      8.221425   516A      8.248516  
     517A      8.259490   518A      8.272684   519A      8.278279  
     520A      8.328309   521A      8.357687   522A      8.372247  
     523A      8.382461   524A      8.429410   525A      8.457033  
     526A      8.472785   527A      8.481237   528A      8.505360  
     529A      8.524786   530A      8.539173   531A      8.827207  
     532A      8.904803   533A      8.933254   534A      8.938619  
     535A      8.963686   536A      9.029532   537A      9.053424  
     538A      9.072961   539A      9.087818   540A      9.092467  
     541A      9.151527   542A      9.400507   543A      9.828208  
     544A      9.846618   545A      9.865648   546A      9.884199  
     547A      9.976697   548A      9.996572   549A      9.999358  
     550A     10.029374   551A     10.041739   552A     10.072697  
     553A     10.095747   554A     10.111742   555A     10.166654  
     556A     10.183705   557A     10.222958   558A     10.241416  
     559A     10.281355   560A     10.296541   561A     10.378848  
     562A     10.396843   563A     10.464290   564A     10.470174  
     565A     10.493936   566A     10.563108   567A     11.089213  
     568A     11.269812   569A     11.308985   570A     11.431100  
     571A     11.442295   572A     11.493841   573A     11.821299  
     574A     11.825023   575A     11.847261   576A     11.942898  
     577A     12.015277   578A     12.026949   579A     12.187923  
     580A     12.237170   581A     12.344987   582A     12.381812  
     583A     12.517433   584A     12.730841   585A     13.564337  
     586A     13.682901   587A     13.786971   588A     13.842620  
     589A     13.872374   590A     13.896010   591A     14.002894  
     592A     14.033485   593A     14.102183   594A     14.125727  
     595A     14.162328   596A     14.317528   597A     64.802397  
     598A     65.097024   599A     65.642049   600A     65.765061  
     601A     66.732364   602A     68.461418  

    Final Occupation by Irrep:
              A 
    DOCC [     9 ]
    NA   [     9 ]
    NB   [     9 ]

  @DF-RHF Final Energy:  -459.57358292542909

   => Energetics <=

    Nuclear Repulsion Energy =              0.0000000000000000
    One-Electron Energy =                -641.1270610147386151
    Two-Electron Energy =                 181.5534780893094933
    Total Energy =                       -459.5735829254291502

Computation Completed


Properties will be evaluated at   0.000000,   0.000000,   0.000000 [a0]

Properties computed using the SCF density matrix


 Multipole Moments:

 ------------------------------------------------------------------------------------
     Multipole            Electronic (a.u.)      Nuclear  (a.u.)        Total (a.u.)
 ------------------------------------------------------------------------------------

 L = 1.  Multiply by 2.5417464519 to convert [e a0] to [Debye]
 Dipole X            :          0.0000814            0.0000000            0.0000814
 Dipole Y            :         -0.0000739            0.0000000           -0.0000739
 Dipole Z            :         -0.0000975            0.0000000           -0.0000975
 Magnitude           :                                                    0.0001470

 ------------------------------------------------------------------------------------

*** tstop() called on ddmfs1 at Mon Jan 22 20:42:27 2024
Module time:
	user time   =     128.32 seconds =       2.14 minutes
	system time =       7.42 seconds =       0.12 minutes
	total time  =          9 seconds =       0.15 minutes
Total time:
	user time   =     128.32 seconds =       2.14 minutes
	system time =       7.42 seconds =       0.12 minutes
	total time  =          9 seconds =       0.15 minutes

*** tstart() called on ddmfs1
*** at Mon Jan 22 20:42:27 2024


  //>>>>>>>>>>>>>>>>>>>>>>>>>>>>>>>>>>>//
  //               DFMP2               //
  //<<<<<<<<<<<<<<<<<<<<<<<<<<<<<<<<<<<//

   => Loading Basis Set <=

    Name: (AUG-CC-PVTZ AUX)
    Role: RIFIT
    Keyword: DF_BASIS_MP2
    atoms 1                                   entry CL         line   742 file /ddmfs1b/softs/psi4conda/share/psi4/basis/aug-cc-pvtz-ri.gbs 
    atoms 2, 5, 8, 11, 14, 17                 entry O          line   264 file /ddmfs1b/softs/psi4conda/share/psi4/basis/aug-cc-pvtz-ri.gbs 
    atoms 3-4, 6-7, 9-10, 12-13, 15-16, 18-19 entry H          line    30 file /ddmfs1b/softs/psi4conda/share/psi4/basis/aug-cc-pvtz-ri.gbs 

	 --------------------------------------------------------
	                          DF-MP2                         
	      2nd-Order Density-Fitted Moller-Plesset Theory     
	              RMP2 Wavefunction,  20 Threads             
	                                                         
	        Rob Parrish, Justin Turney, Andy Simmonett,      
	           Ed Hohenstein, and C. David Sherrill          
	 --------------------------------------------------------

   => Auxiliary Basis Set <=

  Basis Set: (AUG-CC-PVTZ AUX)
    Blend: AUG-CC-PVTZ-RI
    Number of shells: 373
    Number of basis functions: 1335
    Number of Cartesian functions: 1667
    Spherical Harmonics?: true
    Max angular momentum: 4

	 --------------------------------------------------------
	                 NBF =   602, NAUX =  1335
	 --------------------------------------------------------
	   CLASS    FOCC     OCC    AOCC    AVIR     VIR    FVIR
	   PAIRS       0       9       9     593     593       0
	 --------------------------------------------------------

	-----------------------------------------------------------
	 ==================> DF-MP2 Energies <==================== 
	-----------------------------------------------------------
	 Reference Energy          =    -459.5735829254290934 [Eh]
	 Singles Energy            =      -0.0000000000000000 [Eh]
	 Same-Spin Energy          =      -0.0635999219332687 [Eh]
	 Opposite-Spin Energy      =      -0.1840495943834430 [Eh]
	 Correlation Energy        =      -0.2476495163167117 [Eh]
	 Total Energy              =    -459.8212324417457921 [Eh]
	-----------------------------------------------------------
	 ================> DF-SCS-MP2 Energies <================== 
	-----------------------------------------------------------
	 SCS Same-Spin Scale       =       0.3333333333333333 [-]
	 SCS Opposite-Spin Scale   =       1.2000000000000000 [-]
	 SCS Same-Spin Energy      =      -0.0211999739777562 [Eh]
	 SCS Opposite-Spin Energy  =      -0.2208595132601316 [Eh]
	 SCS Correlation Energy    =      -0.2420594872378879 [Eh]
	 SCS Total Energy          =    -459.8156424126669890 [Eh]
	-----------------------------------------------------------


*** tstop() called on ddmfs1 at Mon Jan 22 20:42:34 2024
Module time:
	user time   =      38.20 seconds =       0.64 minutes
	system time =       2.21 seconds =       0.04 minutes
	total time  =          7 seconds =       0.12 minutes
Total time:
	user time   =     166.53 seconds =       2.78 minutes
	system time =       9.63 seconds =       0.16 minutes
	total time  =         16 seconds =       0.27 minutes

    Psi4 stopped on: Monday, 22 January 2024 08:42PM
    Psi4 wall time for execution: 0:00:15.60

*** Psi4 exiting successfully. Buy a developer a beer!
