
    -----------------------------------------------------------------------
          Psi4: An Open-Source Ab Initio Electronic Structure Package
                               Psi4 1.8.2 release

                         Git: Rev {} zzzzzzz 


    D. G. A. Smith, L. A. Burns, A. C. Simmonett, R. M. Parrish,
    M. C. Schieber, R. Galvelis, P. Kraus, H. Kruse, R. Di Remigio,
    A. Alenaizan, A. M. James, S. Lehtola, J. P. Misiewicz, M. Scheurer,
    R. A. Shaw, J. B. Schriber, Y. Xie, Z. L. Glick, D. A. Sirianni,
    J. S. O'Brien, J. M. Waldrop, A. Kumar, E. G. Hohenstein,
    B. P. Pritchard, B. R. Brooks, H. F. Schaefer III, A. Yu. Sokolov,
    K. Patkowski, A. E. DePrince III, U. Bozkaya, R. A. King,
    F. A. Evangelista, J. M. Turney, T. D. Crawford, C. D. Sherrill,
    J. Chem. Phys. 152(18) 184108 (2020). https://doi.org/10.1063/5.0006002

                            Additional Code Authors
    E. T. Seidl, C. L. Janssen, E. F. Valeev, M. L. Leininger,
    J. F. Gonthier, R. M. Richard, H. R. McAlexander, M. Saitow, X. Wang,
    P. Verma, M. H. Lechner, A. Jiang, S. Behnle, A. G. Heide,
    M. F. Herbst, and D. L. Poole

             Previous Authors, Complete List of Code Contributors,
                       and Citations for Specific Modules
    https://github.com/psi4/psi4/blob/master/codemeta.json
    https://github.com/psi4/psi4/graphs/contributors
    http://psicode.org/psi4manual/master/introduction.html#citing-psifour

    -----------------------------------------------------------------------


    Psi4 started on: Monday, 22 January 2024 08:40PM

    Process ID: 104762
    Host:       ddmfs1
    PSIDATADIR: /ddmfs1b/softs/psi4conda/share/psi4
    Memory:     500.0 MiB
    Threads:    20
    
  ==> Input File <==

--------------------------------------------------------------------------
MEMORY 60 GB

molecule dimer {
0 1
Gh(Cl)     0.000000     0.000000     0.000000
Gh(O)      1.572535     2.984313     0.080535
Gh(H)      2.483152     2.774963     0.044021
Gh(H)      1.091164     2.083829     0.086158
O         -2.519770     0.473353     1.764939
H         -1.730664     0.352182     1.242951
H         -2.351355     1.328225     2.177357
Gh(O)      1.097544    -1.383699     2.955254
Gh(H)      0.572761    -1.058492     3.732723
Gh(H)      0.582499    -1.021529     2.224847
Gh(O)     -2.152007     2.124199    -0.978722
Gh(H)     -1.802804     1.460648    -0.427201
Gh(H)     -1.664805     1.959459    -1.761428
Gh(O)      2.011060     0.105217    -2.783367
Gh(H)      1.274497     0.182662    -2.166724
Gh(H)      2.754003    -0.550445    -2.510663

units ang
no_reorient
no_com
symmetry c1
}

set {
basis        aug-cc-pVTZ
scf_type     df
}

energy("mp2")
--------------------------------------------------------------------------

  Memory set to  55.879 GiB by Python driver.

Scratch directory: /ddmfs1a/scratch/
   => Libint2 <=

    Primary   basis highest AM E, G, H:  5, 4, 3
    Auxiliary basis highest AM E, G, H:  6, 5, 4
    Onebody   basis highest AM E, G, H:  6, 5, 4
    Solid Harmonics ordering:            gaussian

*** tstart() called on ddmfs1
*** at Mon Jan 22 20:40:25 2024

   => Loading Basis Set <=

    Name: AUG-CC-PVTZ
    Role: ORBITAL
    Keyword: BASIS
    atoms 1                            entry CL         line   988 file /ddmfs1b/softs/psi4conda/share/psi4/basis/aug-cc-pvtz.gbs 
    atoms 2, 5, 8, 11, 14              entry O          line   331 file /ddmfs1b/softs/psi4conda/share/psi4/basis/aug-cc-pvtz.gbs 
    atoms 3-4, 6-7, 9-10, 12-13, 15-16 entry H          line    40 file /ddmfs1b/softs/psi4conda/share/psi4/basis/aug-cc-pvtz.gbs 


         ---------------------------------------------------------
                                   SCF
               by Justin Turney, Rob Parrish, Andy Simmonett
                          and Daniel G. A. Smith
                              RHF Reference
                       20 Threads,  57220 MiB Core
         ---------------------------------------------------------

  ==> Geometry <==

    Molecular point group: c1
    Full point group: C1

    Geometry (in Angstrom), charge = 0, multiplicity = 1:

       Center              X                  Y                   Z               Mass       
    ------------   -----------------  -----------------  -----------------  -----------------
      Gh(CL)          0.000000000000     0.000000000000     0.000000000000    34.968852682000
      Gh(O)           1.572535000000     2.984313000000     0.080535000000    15.994914619570
      Gh(H)           2.483152000000     2.774963000000     0.044021000000     1.007825032230
      Gh(H)           1.091164000000     2.083829000000     0.086158000000     1.007825032230
         O           -2.519770000000     0.473353000000     1.764939000000    15.994914619570
         H           -1.730664000000     0.352182000000     1.242951000000     1.007825032230
         H           -2.351355000000     1.328225000000     2.177357000000     1.007825032230
      Gh(O)           1.097544000000    -1.383699000000     2.955254000000    15.994914619570
      Gh(H)           0.572761000000    -1.058492000000     3.732723000000     1.007825032230
      Gh(H)           0.582499000000    -1.021529000000     2.224847000000     1.007825032230
      Gh(O)          -2.152007000000     2.124199000000    -0.978722000000    15.994914619570
      Gh(H)          -1.802804000000     1.460648000000    -0.427201000000     1.007825032230
      Gh(H)          -1.664805000000     1.959459000000    -1.761428000000     1.007825032230
      Gh(O)           2.011060000000     0.105217000000    -2.783367000000    15.994914619570
      Gh(H)           1.274497000000     0.182662000000    -2.166724000000     1.007825032230
      Gh(H)           2.754003000000    -0.550445000000    -2.510663000000     1.007825032230

  Running in c1 symmetry.

  Rotational constants: A =      0.03236  B =      0.02696  C =      0.02116 [cm^-1]
  Rotational constants: A =    970.13038  B =    808.24372  C =    634.46099 [MHz]
  Nuclear repulsion =    9.185693598457792

  Charge       = 0
  Multiplicity = 1
  Electrons    = 10
  Nalpha       = 5
  Nbeta        = 5

  ==> Algorithm <==

  SCF Algorithm Type is DF.
  DIIS enabled.
  MOM disabled.
  Fractional occupation disabled.
  Guess Type is SAD.
  Energy threshold   = 1.00e-08
  Density threshold  = 1.00e-08
  Integral threshold = 1.00e-12

  ==> Primary Basis <==

  Basis Set: AUG-CC-PVTZ
    Blend: AUG-CC-PVTZ
    Number of shells: 176
    Number of basis functions: 510
    Number of Cartesian functions: 584
    Spherical Harmonics?: true
    Max angular momentum: 3

   => Loading Basis Set <=

    Name: (AUG-CC-PVTZ AUX)
    Role: JKFIT
    Keyword: DF_BASIS_SCF
    atoms 1                            entry CL         line   816 file /ddmfs1b/softs/psi4conda/share/psi4/basis/aug-cc-pvtz-jkfit.gbs 
    atoms 2, 5, 8, 11, 14              entry O          line   286 file /ddmfs1b/softs/psi4conda/share/psi4/basis/aug-cc-pvtz-jkfit.gbs 
    atoms 3-4, 6-7, 9-10, 12-13, 15-16 entry H          line    70 file /ddmfs1b/softs/psi4conda/share/psi4/basis/aug-cc-pvtz-jkfit.gbs 

  ==> Integral Setup <==

  DFHelper Memory: AOs need 1.970 GiB; user supplied 41.910 GiB. 
  Using in-core AOs.

  ==> MemDFJK: Density-Fitted J/K Matrices <==

    J tasked:                   Yes
    K tasked:                   Yes
    wK tasked:                   No
    OpenMP threads:              20
    Memory [MiB]:             42915
    Algorithm:                 Core
    Schwarz Cutoff:           1E-12
    Mask sparsity (%):      14.3337
    Fitting Condition:        1E-10

   => Auxiliary Basis Set <=

  Basis Set: (AUG-CC-PVTZ AUX)
    Blend: AUG-CC-PVTZ-JKFIT
    Number of shells: 332
    Number of basis functions: 1126
    Number of Cartesian functions: 1385
    Spherical Harmonics?: true
    Max angular momentum: 4

  Minimum eigenvalue in the overlap matrix is 1.0192411681E-04.
  Reciprocal condition number of the overlap matrix is 8.3269857249E-06.
    Using symmetric orthogonalization.

  ==> Pre-Iterations <==

  SCF Guess: Superposition of Atomic Densities via on-the-fly atomic UHF (no occupation information).

   -------------------------
    Irrep   Nso     Nmo    
   -------------------------
     A        510     510 
   -------------------------
    Total     510     510
   -------------------------

  ==> Iterations <==

                           Total Energy        Delta E     RMS |[F,P]|

   @DF-RHF iter SAD:   -75.47910524620949   -7.54791e+01   0.00000e+00 
   @DF-RHF iter   1:   -75.97549650992848   -4.96391e-01   9.19096e-04 ADIIS/DIIS
   @DF-RHF iter   2:   -76.02811758303787   -5.26211e-02   6.27859e-04 ADIIS/DIIS
   @DF-RHF iter   3:   -76.05973715610718   -3.16196e-02   4.25955e-05 DIIS
   @DF-RHF iter   4:   -76.06012340751552   -3.86251e-04   1.01907e-05 DIIS
   @DF-RHF iter   5:   -76.06014771251333   -2.43050e-05   2.33328e-06 DIIS
   @DF-RHF iter   6:   -76.06014971472453   -2.00221e-06   5.07283e-07 DIIS
   @DF-RHF iter   7:   -76.06014981826502   -1.03540e-07   8.90776e-08 DIIS
   @DF-RHF iter   8:   -76.06014982105495   -2.78993e-09   1.48219e-08 DIIS
   @DF-RHF iter   9:   -76.06014982111461   -5.96572e-11   3.54889e-09 DIIS
  Energy and wave function converged.


  ==> Post-Iterations <==

    Orbital Energies [Eh]
    ---------------------

    Doubly Occupied:                                                      

       1A    -20.568605     2A     -1.354753     3A     -0.711226  
       4A     -0.590133     5A     -0.511020  

    Virtual:                                                              

       6A      0.014315     7A      0.032095     8A      0.035359  
       9A      0.039944    10A      0.050766    11A      0.055264  
      12A      0.063724    13A      0.066656    14A      0.077977  
      15A      0.085183    16A      0.098581    17A      0.109141  
      18A      0.110843    19A      0.119341    20A      0.125853  
      21A      0.142212    22A      0.142878    23A      0.148572  
      24A      0.150455    25A      0.158429    26A      0.161665  
      27A      0.171214    28A      0.177192    29A      0.181631  
      30A      0.190010    31A      0.194656    32A      0.201772  
      33A      0.206810    34A      0.213924    35A      0.214611  
      36A      0.221664    37A      0.226954    38A      0.235269  
      39A      0.247912    40A      0.264780    41A      0.270670  
      42A      0.275003    43A      0.282942    44A      0.289496  
      45A      0.294720    46A      0.299048    47A      0.302764  
      48A      0.315515    49A      0.325444    50A      0.326036  
      51A      0.333962    52A      0.339461    53A      0.344912  
      54A      0.348632    55A      0.353770    56A      0.360237  
      57A      0.368184    58A      0.374732    59A      0.384911  
      60A      0.394038    61A      0.395295    62A      0.399916  
      63A      0.407831    64A      0.417495    65A      0.420251  
      66A      0.431226    67A      0.440218    68A      0.444503  
      69A      0.454012    70A      0.457967    71A      0.462761  
      72A      0.481452    73A      0.490518    74A      0.497028  
      75A      0.521766    76A      0.544066    77A      0.553116  
      78A      0.561742    79A      0.573215    80A      0.593393  
      81A      0.605897    82A      0.618853    83A      0.624182  
      84A      0.633634    85A      0.650438    86A      0.658265  
      87A      0.667938    88A      0.680382    89A      0.704282  
      90A      0.711099    91A      0.713702    92A      0.715654  
      93A      0.739001    94A      0.741820    95A      0.762951  
      96A      0.763386    97A      0.769499    98A      0.783541  
      99A      0.787296   100A      0.789386   101A      0.795444  
     102A      0.800078   103A      0.804892   104A      0.807560  
     105A      0.814036   106A      0.816982   107A      0.818953  
     108A      0.829769   109A      0.835084   110A      0.844835  
     111A      0.847852   112A      0.856136   113A      0.859180  
     114A      0.864055   115A      0.872964   116A      0.875499  
     117A      0.881399   118A      0.892114   119A      0.894378  
     120A      0.899982   121A      0.906711   122A      0.909216  
     123A      0.915856   124A      0.922828   125A      0.939359  
     126A      0.944775   127A      0.950397   128A      0.956280  
     129A      0.961832   130A      0.972274   131A      0.977945  
     132A      0.981777   133A      0.990239   134A      0.991375  
     135A      0.998122   136A      1.003755   137A      1.014350  
     138A      1.019479   139A      1.025476   140A      1.029380  
     141A      1.036217   142A      1.042760   143A      1.045873  
     144A      1.055283   145A      1.058621   146A      1.063826  
     147A      1.072829   148A      1.090299   149A      1.100173  
     150A      1.104883   151A      1.114422   152A      1.124081  
     153A      1.131940   154A      1.136461   155A      1.150140  
     156A      1.168463   157A      1.171087   158A      1.178366  
     159A      1.195539   160A      1.198647   161A      1.203784  
     162A      1.221148   163A      1.230503   164A      1.236388  
     165A      1.256658   166A      1.261501   167A      1.281696  
     168A      1.291436   169A      1.303752   170A      1.317432  
     171A      1.332130   172A      1.340180   173A      1.343081  
     174A      1.355067   175A      1.368926   176A      1.378952  
     177A      1.389873   178A      1.413607   179A      1.425600  
     180A      1.436865   181A      1.452509   182A      1.454748  
     183A      1.475558   184A      1.482505   185A      1.498806  
     186A      1.521752   187A      1.523550   188A      1.537918  
     189A      1.562523   190A      1.571557   191A      1.587420  
     192A      1.609515   193A      1.626507   194A      1.635031  
     195A      1.657699   196A      1.678099   197A      1.683895  
     198A      1.704135   199A      1.710261   200A      1.722532  
     201A      1.730014   202A      1.735080   203A      1.747417  
     204A      1.762879   205A      1.775065   206A      1.779912  
     207A      1.782796   208A      1.797907   209A      1.803158  
     210A      1.815286   211A      1.819704   212A      1.831569  
     213A      1.852404   214A      1.854214   215A      1.860373  
     216A      1.881544   217A      1.890151   218A      1.894422  
     219A      1.904256   220A      1.917695   221A      1.927819  
     222A      1.957755   223A      1.960226   224A      1.983005  
     225A      1.991178   226A      1.994226   227A      2.030629  
     228A      2.036286   229A      2.062298   230A      2.082440  
     231A      2.099065   232A      2.107408   233A      2.131294  
     234A      2.200439   235A      2.225984   236A      2.237552  
     237A      2.259222   238A      2.362383   239A      2.376342  
     240A      2.445370   241A      2.458080   242A      2.460797  
     243A      2.463767   244A      2.481116   245A      2.484782  
     246A      2.498734   247A      2.504465   248A      2.517949  
     249A      2.525614   250A      2.538537   251A      2.544427  
     252A      2.559634   253A      2.564362   254A      2.578129  
     255A      2.593538   256A      2.605198   257A      2.612631  
     258A      2.620853   259A      2.637972   260A      2.640427  
     261A      2.646833   262A      2.648893   263A      2.659588  
     264A      2.664531   265A      2.675790   266A      2.691461  
     267A      2.700804   268A      2.715421   269A      2.718246  
     270A      2.729572   271A      2.738910   272A      2.768528  
     273A      2.777331   274A      2.786975   275A      2.818550  
     276A      2.825027   277A      2.843109   278A      2.866320  
     279A      2.880778   280A      2.912000   281A      2.932157  
     282A      2.960610   283A      2.987157   284A      3.006297  
     285A      3.014464   286A      3.055233   287A      3.117958  
     288A      3.131539   289A      3.166545   290A      3.173416  
     291A      3.182635   292A      3.212604   293A      3.221924  
     294A      3.240729   295A      3.267729   296A      3.284651  
     297A      3.292974   298A      3.318960   299A      3.343630  
     300A      3.359752   301A      3.384470   302A      3.419850  
     303A      3.432778   304A      3.459040   305A      3.487851  
     306A      3.503121   307A      3.599445   308A      3.605390  
     309A      3.619964   310A      3.664891   311A      3.710481  
     312A      3.792881   313A      3.801098   314A      3.815752  
     315A      3.828090   316A      3.847024   317A      4.052075  
     318A      4.117500   319A      4.131212   320A      4.154031  
     321A      4.185240   322A      4.221993   323A      4.256768  
     324A      4.290882   325A      4.306661   326A      4.315777  
     327A      4.326955   328A      4.346071   329A      4.359193  
     330A      4.370511   331A      4.385881   332A      4.409329  
     333A      4.422676   334A      4.443967   335A      4.452321  
     336A      4.456455   337A      4.468135   338A      4.475908  
     339A      4.492071   340A      4.501552   341A      4.516856  
     342A      4.531557   343A      4.546592   344A      4.551733  
     345A      4.557891   346A      4.582974   347A      4.595521  
     348A      4.601177   349A      4.611480   350A      4.620526  
     351A      4.640935   352A      4.662593   353A      4.669452  
     354A      4.677162   355A      4.698191   356A      4.713389  
     357A      4.755321   358A      4.793126   359A      4.795900  
     360A      4.824602   361A      4.828050   362A      4.845631  
     363A      4.877102   364A      4.878823   365A      4.886857  
     366A      4.895350   367A      4.907013   368A      4.909763  
     369A      4.913610   370A      4.935704   371A      4.956785  
     372A      4.972871   373A      4.977941   374A      4.996190  
     375A      5.031129   376A      5.075499   377A      5.108074  
     378A      5.147771   379A      5.185258   380A      5.215810  
     381A      5.244388   382A      5.274629   383A      5.291970  
     384A      5.335276   385A      5.345560   386A      5.386700  
     387A      5.421259   388A      5.441478   389A      5.464936  
     390A      5.470482   391A      5.480064   392A      5.512121  
     393A      5.528899   394A      5.534518   395A      5.612965  
     396A      5.634229   397A      5.643005   398A      5.667374  
     399A      5.716847   400A      5.728227   401A      5.736645  
     402A      5.756503   403A      5.811553   404A      5.856583  
     405A      5.882004   406A      6.045740   407A      6.106165  
     408A      6.139339   409A      6.156089   410A      6.197023  
     411A      6.207977   412A      6.348537   413A      6.356973  
     414A      6.422853   415A      6.492213   416A      6.553095  
     417A      6.573322   418A      6.588766   419A      6.718042  
     420A      6.809091   421A      6.866940   422A      7.031957  
     423A      7.036542   424A      7.055732   425A      7.082736  
     426A      7.183457   427A      7.256216   428A      7.324337  
     429A      7.341121   430A      7.410075   431A      7.487890  
     432A      7.552269   433A      7.640145   434A      7.695023  
     435A      7.704371   436A      7.708933   437A      7.747178  
     438A      7.798049   439A      7.818321   440A      7.874336  
     441A      7.986605   442A      8.003130   443A      8.005022  
     444A      8.030226   445A      8.057826   446A      8.063250  
     447A      8.109196   448A      8.134941   449A      8.185906  
     450A      8.198815   451A      8.263314   452A      8.276939  
     453A      8.280789   454A      8.286725   455A      8.379654  
     456A      8.595158   457A      8.700333   458A      8.769697  
     459A      8.862164   460A      8.886908   461A      8.889366  
     462A      8.900788   463A      8.997074   464A      9.185461  
     465A      9.652660   466A      9.677593   467A      9.724346  
     468A      9.746832   469A      9.820710   470A      9.854366  
     471A      9.882514   472A      9.934455   473A     10.031594  
     474A     10.051427   475A     10.076667   476A     10.082781  
     477A     10.213017   478A     10.278283   479A     10.332701  
     480A     10.447235   481A     10.837791   482A     11.008009  
     483A     11.127492   484A     11.470766   485A     11.642486  
     486A     11.669638   487A     11.701721   488A     11.840936  
     489A     11.961599   490A     11.978382   491A     12.182784  
     492A     12.493147   493A     13.317823   494A     13.499023  
     495A     13.520870   496A     13.809908   497A     13.934480  
     498A     13.955903   499A     13.999533   500A     14.101224  
     501A     15.873752   502A     17.205186   503A     28.151897  
     504A     28.314237   505A     28.469876   506A     64.686320  
     507A     64.972333   508A     65.373859   509A     68.334806  
     510A    160.958417  

    Final Occupation by Irrep:
              A 
    DOCC [     5 ]
    NA   [     5 ]
    NB   [     5 ]

  @DF-RHF Final Energy:   -76.06014982111461

   => Energetics <=

    Nuclear Repulsion Energy =              9.1856935984577923
    One-Electron Energy =                -123.0202089048929395
    Two-Electron Energy =                  37.7743654853205442
    Total Energy =                        -76.0601498211146065

Computation Completed


Properties will be evaluated at   0.000000,   0.000000,   0.000000 [a0]

Properties computed using the SCF density matrix


 Multipole Moments:

 ------------------------------------------------------------------------------------
     Multipole            Electronic (a.u.)      Nuclear  (a.u.)        Total (a.u.)
 ------------------------------------------------------------------------------------

 L = 1.  Multiply by 2.5417464519 to convert [e a0] to [Debye]
 Dipole X            :         46.4393840          -45.8072995            0.6320845
 Dipole Y            :         -9.8495952           10.3315693            0.4819740
 Dipole Z            :        -33.2190962           33.1454561           -0.0736401
 Magnitude           :                                                    0.7982810

 ------------------------------------------------------------------------------------

*** tstop() called on ddmfs1 at Mon Jan 22 20:40:31 2024
Module time:
	user time   =      89.62 seconds =       1.49 minutes
	system time =       5.14 seconds =       0.09 minutes
	total time  =          6 seconds =       0.10 minutes
Total time:
	user time   =      89.62 seconds =       1.49 minutes
	system time =       5.14 seconds =       0.09 minutes
	total time  =          6 seconds =       0.10 minutes

*** tstart() called on ddmfs1
*** at Mon Jan 22 20:40:31 2024


  //>>>>>>>>>>>>>>>>>>>>>>>>>>>>>>>>>>>//
  //               DFMP2               //
  //<<<<<<<<<<<<<<<<<<<<<<<<<<<<<<<<<<<//

   => Loading Basis Set <=

    Name: (AUG-CC-PVTZ AUX)
    Role: RIFIT
    Keyword: DF_BASIS_MP2
    atoms 1                            entry CL         line   742 file /ddmfs1b/softs/psi4conda/share/psi4/basis/aug-cc-pvtz-ri.gbs 
    atoms 2, 5, 8, 11, 14              entry O          line   264 file /ddmfs1b/softs/psi4conda/share/psi4/basis/aug-cc-pvtz-ri.gbs 
    atoms 3-4, 6-7, 9-10, 12-13, 15-16 entry H          line    30 file /ddmfs1b/softs/psi4conda/share/psi4/basis/aug-cc-pvtz-ri.gbs 

	 --------------------------------------------------------
	                          DF-MP2                         
	      2nd-Order Density-Fitted Moller-Plesset Theory     
	              RMP2 Wavefunction,  20 Threads             
	                                                         
	        Rob Parrish, Justin Turney, Andy Simmonett,      
	           Ed Hohenstein, and C. David Sherrill          
	 --------------------------------------------------------

   => Auxiliary Basis Set <=

  Basis Set: (AUG-CC-PVTZ AUX)
    Blend: AUG-CC-PVTZ-RI
    Number of shells: 317
    Number of basis functions: 1137
    Number of Cartesian functions: 1421
    Spherical Harmonics?: true
    Max angular momentum: 4

	 --------------------------------------------------------
	                 NBF =   510, NAUX =  1137
	 --------------------------------------------------------
	   CLASS    FOCC     OCC    AOCC    AVIR     VIR    FVIR
	   PAIRS       0       5       5     505     505       0
	 --------------------------------------------------------

	-----------------------------------------------------------
	 ==================> DF-MP2 Energies <==================== 
	-----------------------------------------------------------
	 Reference Energy          =     -76.0601498211146065 [Eh]
	 Singles Energy            =      -0.0000000000000000 [Eh]
	 Same-Spin Energy          =      -0.0685091108301268 [Eh]
	 Opposite-Spin Energy      =      -0.2164423321241203 [Eh]
	 Correlation Energy        =      -0.2849514429542471 [Eh]
	 Total Energy              =     -76.3451012640688589 [Eh]
	-----------------------------------------------------------
	 ================> DF-SCS-MP2 Energies <================== 
	-----------------------------------------------------------
	 SCS Same-Spin Scale       =       0.3333333333333333 [-]
	 SCS Opposite-Spin Scale   =       1.2000000000000000 [-]
	 SCS Same-Spin Energy      =      -0.0228363702767089 [Eh]
	 SCS Opposite-Spin Energy  =      -0.2597307985489444 [Eh]
	 SCS Correlation Energy    =      -0.2825671688256533 [Eh]
	 SCS Total Energy          =     -76.3427169899402571 [Eh]
	-----------------------------------------------------------


*** tstop() called on ddmfs1 at Mon Jan 22 20:40:36 2024
Module time:
	user time   =      26.57 seconds =       0.44 minutes
	system time =       1.57 seconds =       0.03 minutes
	total time  =          5 seconds =       0.08 minutes
Total time:
	user time   =     116.21 seconds =       1.94 minutes
	system time =       6.71 seconds =       0.11 minutes
	total time  =         11 seconds =       0.18 minutes

    Psi4 stopped on: Monday, 22 January 2024 08:40PM
    Psi4 wall time for execution: 0:00:10.98

*** Psi4 exiting successfully. Buy a developer a beer!
