
    -----------------------------------------------------------------------
          Psi4: An Open-Source Ab Initio Electronic Structure Package
                               Psi4 1.8.2 release

                         Git: Rev {} zzzzzzz 


    D. G. A. Smith, L. A. Burns, A. C. Simmonett, R. M. Parrish,
    M. C. Schieber, R. Galvelis, P. Kraus, H. Kruse, R. Di Remigio,
    A. Alenaizan, A. M. James, S. Lehtola, J. P. Misiewicz, M. Scheurer,
    R. A. Shaw, J. B. Schriber, Y. Xie, Z. L. Glick, D. A. Sirianni,
    J. S. O'Brien, J. M. Waldrop, A. Kumar, E. G. Hohenstein,
    B. P. Pritchard, B. R. Brooks, H. F. Schaefer III, A. Yu. Sokolov,
    K. Patkowski, A. E. DePrince III, U. Bozkaya, R. A. King,
    F. A. Evangelista, J. M. Turney, T. D. Crawford, C. D. Sherrill,
    J. Chem. Phys. 152(18) 184108 (2020). https://doi.org/10.1063/5.0006002

                            Additional Code Authors
    E. T. Seidl, C. L. Janssen, E. F. Valeev, M. L. Leininger,
    J. F. Gonthier, R. M. Richard, H. R. McAlexander, M. Saitow, X. Wang,
    P. Verma, M. H. Lechner, A. Jiang, S. Behnle, A. G. Heide,
    M. F. Herbst, and D. L. Poole

             Previous Authors, Complete List of Code Contributors,
                       and Citations for Specific Modules
    https://github.com/psi4/psi4/blob/master/codemeta.json
    https://github.com/psi4/psi4/graphs/contributors
    http://psicode.org/psi4manual/master/introduction.html#citing-psifour

    -----------------------------------------------------------------------


    Psi4 started on: Monday, 22 January 2024 08:46PM

    Process ID: 105447
    Host:       ddmfs1
    PSIDATADIR: /ddmfs1b/softs/psi4conda/share/psi4
    Memory:     500.0 MiB
    Threads:    20
    
  ==> Input File <==

--------------------------------------------------------------------------
MEMORY 60 GB

molecule dimer {
-1 1
Cl         0.000000     0.000000     0.000000
Gh(O)      1.401814     3.004279    -0.293739
Gh(H)      1.286935     2.071480    -0.547510
Gh(H)      0.587179     3.446356    -0.499197
Gh(O)      2.350678    -2.241718     0.338880
Gh(H)      1.723621    -1.571284     0.204117
Gh(H)      2.824680    -2.355887    -0.493503
Gh(O)      1.245199    -0.336761     2.824372
Gh(H)      0.470260     0.235926     2.905006
Gh(H)      1.361956    -0.347042     1.858412
Gh(O)     -1.541109    -2.418693     1.370070
Gh(H)     -0.925165    -1.895960     0.786732
Gh(H)     -2.220385    -1.862267     1.722704

units ang
no_reorient
no_com
symmetry c1
}

set {
basis        aug-cc-pVTZ
scf_type     df
}

energy("mp2")
--------------------------------------------------------------------------

  Memory set to  55.879 GiB by Python driver.

Scratch directory: /ddmfs1a/scratch/
   => Libint2 <=

    Primary   basis highest AM E, G, H:  5, 4, 3
    Auxiliary basis highest AM E, G, H:  6, 5, 4
    Onebody   basis highest AM E, G, H:  6, 5, 4
    Solid Harmonics ordering:            gaussian

*** tstart() called on ddmfs1
*** at Mon Jan 22 20:46:29 2024

   => Loading Basis Set <=

    Name: AUG-CC-PVTZ
    Role: ORBITAL
    Keyword: BASIS
    atoms 1                     entry CL         line   988 file /ddmfs1b/softs/psi4conda/share/psi4/basis/aug-cc-pvtz.gbs 
    atoms 2, 5, 8, 11           entry O          line   331 file /ddmfs1b/softs/psi4conda/share/psi4/basis/aug-cc-pvtz.gbs 
    atoms 3-4, 6-7, 9-10, 12-13 entry H          line    40 file /ddmfs1b/softs/psi4conda/share/psi4/basis/aug-cc-pvtz.gbs 


         ---------------------------------------------------------
                                   SCF
               by Justin Turney, Rob Parrish, Andy Simmonett
                          and Daniel G. A. Smith
                              RHF Reference
                       20 Threads,  57220 MiB Core
         ---------------------------------------------------------

  ==> Geometry <==

    Molecular point group: c1
    Full point group: C1

    Geometry (in Angstrom), charge = -1, multiplicity = 1:

       Center              X                  Y                   Z               Mass       
    ------------   -----------------  -----------------  -----------------  -----------------
         CL           0.000000000000     0.000000000000     0.000000000000    34.968852682000
      Gh(O)           1.401814000000     3.004279000000    -0.293739000000    15.994914619570
      Gh(H)           1.286935000000     2.071480000000    -0.547510000000     1.007825032230
      Gh(H)           0.587179000000     3.446356000000    -0.499197000000     1.007825032230
      Gh(O)           2.350678000000    -2.241718000000     0.338880000000    15.994914619570
      Gh(H)           1.723621000000    -1.571284000000     0.204117000000     1.007825032230
      Gh(H)           2.824680000000    -2.355887000000    -0.493503000000     1.007825032230
      Gh(O)           1.245199000000    -0.336761000000     2.824372000000    15.994914619570
      Gh(H)           0.470260000000     0.235926000000     2.905006000000     1.007825032230
      Gh(H)           1.361956000000    -0.347042000000     1.858412000000     1.007825032230
      Gh(O)          -1.541109000000    -2.418693000000     1.370070000000    15.994914619570
      Gh(H)          -0.925165000000    -1.895960000000     0.786732000000     1.007825032230
      Gh(H)          -2.220385000000    -1.862267000000     1.722704000000     1.007825032230

  Running in c1 symmetry.

  Rotational constants: A =      0.05081  B =      0.03276  C =      0.02724 [cm^-1]
  Rotational constants: A =   1523.17000  B =    982.13700  C =    816.51595 [MHz]
  Nuclear repulsion =    0.000000000000000

  Charge       = -1
  Multiplicity = 1
  Electrons    = 18
  Nalpha       = 9
  Nbeta        = 9

  ==> Algorithm <==

  SCF Algorithm Type is DF.
  DIIS enabled.
  MOM disabled.
  Fractional occupation disabled.
  Guess Type is SAD.
  Energy threshold   = 1.00e-08
  Density threshold  = 1.00e-08
  Integral threshold = 1.00e-12

  ==> Primary Basis <==

  Basis Set: AUG-CC-PVTZ
    Blend: AUG-CC-PVTZ
    Number of shells: 144
    Number of basis functions: 418
    Number of Cartesian functions: 479
    Spherical Harmonics?: true
    Max angular momentum: 3

   => Loading Basis Set <=

    Name: (AUG-CC-PVTZ AUX)
    Role: JKFIT
    Keyword: DF_BASIS_SCF
    atoms 1                     entry CL         line   816 file /ddmfs1b/softs/psi4conda/share/psi4/basis/aug-cc-pvtz-jkfit.gbs 
    atoms 2, 5, 8, 11           entry O          line   286 file /ddmfs1b/softs/psi4conda/share/psi4/basis/aug-cc-pvtz-jkfit.gbs 
    atoms 3-4, 6-7, 9-10, 12-13 entry H          line    70 file /ddmfs1b/softs/psi4conda/share/psi4/basis/aug-cc-pvtz-jkfit.gbs 

  ==> Integral Setup <==

  DFHelper Memory: AOs need 1.150 GiB; user supplied 41.910 GiB. 
  Using in-core AOs.

  ==> MemDFJK: Density-Fitted J/K Matrices <==

    J tasked:                   Yes
    K tasked:                   Yes
    wK tasked:                   No
    OpenMP threads:              20
    Memory [MiB]:             42915
    Algorithm:                 Core
    Schwarz Cutoff:           1E-12
    Mask sparsity (%):      10.5595
    Fitting Condition:        1E-10

   => Auxiliary Basis Set <=

  Basis Set: (AUG-CC-PVTZ AUX)
    Blend: AUG-CC-PVTZ-JKFIT
    Number of shells: 274
    Number of basis functions: 930
    Number of Cartesian functions: 1144
    Spherical Harmonics?: true
    Max angular momentum: 4

  Minimum eigenvalue in the overlap matrix is 1.4422244169E-04.
  Reciprocal condition number of the overlap matrix is 1.2340703711E-05.
    Using symmetric orthogonalization.

  ==> Pre-Iterations <==

  SCF Guess: Superposition of Atomic Densities via on-the-fly atomic UHF (no occupation information).

   -------------------------
    Irrep   Nso     Nmo    
   -------------------------
     A        418     418 
   -------------------------
    Total     418     418
   -------------------------

  ==> Iterations <==

                           Total Energy        Delta E     RMS |[F,P]|

   @DF-RHF iter SAD:  -459.11248998441914   -4.59112e+02   0.00000e+00 
   @DF-RHF iter   1:  -459.51388951559670   -4.01400e-01   7.14521e-04 ADIIS/DIIS
   @DF-RHF iter   2:  -459.56480097323112   -5.09115e-02   3.66095e-04 ADIIS/DIIS
   @DF-RHF iter   3:  -459.57350048214005   -8.69951e-03   2.54369e-05 DIIS
   @DF-RHF iter   4:  -459.57355786824542   -5.73861e-05   5.00174e-06 DIIS
   @DF-RHF iter   5:  -459.57356149419235   -3.62595e-06   5.14376e-07 DIIS
   @DF-RHF iter   6:  -459.57356157640800   -8.22156e-08   4.48949e-08 DIIS
   @DF-RHF iter   7:  -459.57356157733153   -9.23535e-10   5.30278e-09 DIIS
  Energy and wave function converged.


  ==> Post-Iterations <==

    Orbital Energies [Eh]
    ---------------------

    Doubly Occupied:                                                      

       1A   -104.507016     2A    -10.229999     3A     -7.696074  
       4A     -7.696052     5A     -7.696038     6A     -0.733474  
       7A     -0.150317     8A     -0.150311     9A     -0.150308  

    Virtual:                                                              

      10A      0.123579    11A      0.131774    12A      0.136506  
      13A      0.146752    14A      0.163829    15A      0.164711  
      16A      0.172078    17A      0.200194    18A      0.230749  
      19A      0.234006    20A      0.252636    21A      0.259577  
      22A      0.265063    23A      0.267923    24A      0.270807  
      25A      0.278724    26A      0.282656    27A      0.287289  
      28A      0.293509    29A      0.298057    30A      0.308616  
      31A      0.317771    32A      0.320754    33A      0.330764  
      34A      0.353473    35A      0.363388    36A      0.372571  
      37A      0.395060    38A      0.406790    39A      0.424576  
      40A      0.429491    41A      0.434767    42A      0.446357  
      43A      0.446690    44A      0.461957    45A      0.470518  
      46A      0.478667    47A      0.487841    48A      0.488019  
      49A      0.502160    50A      0.509241    51A      0.513007  
      52A      0.514415    53A      0.519803    54A      0.527404  
      55A      0.538695    56A      0.543215    57A      0.545531  
      58A      0.572276    59A      0.579258    60A      0.589933  
      61A      0.603115    62A      0.606047    63A      0.622346  
      64A      0.631703    65A      0.654556    66A      0.681200  
      67A      0.683788    68A      0.710406    69A      0.717327  
      70A      0.728169    71A      0.741103    72A      0.757593  
      73A      0.790831    74A      0.802175    75A      0.813685  
      76A      0.825203    77A      0.838548    78A      0.851917  
      79A      0.863749    80A      0.877395    81A      0.898684  
      82A      0.906338    83A      0.919592    84A      0.922764  
      85A      0.925944    86A      0.937840    87A      0.941346  
      88A      0.952741    89A      0.963669    90A      0.972795  
      91A      0.978625    92A      0.984664    93A      0.988125  
      94A      0.993878    95A      1.001274    96A      1.008589  
      97A      1.011597    98A      1.022211    99A      1.027951  
     100A      1.031686   101A      1.039940   102A      1.050141  
     103A      1.065069   104A      1.067661   105A      1.073067  
     106A      1.085452   107A      1.089510   108A      1.102415  
     109A      1.110552   110A      1.117152   111A      1.121392  
     112A      1.128078   113A      1.138315   114A      1.144408  
     115A      1.154591   116A      1.165415   117A      1.165951  
     118A      1.180006   119A      1.189625   120A      1.194837  
     121A      1.204299   122A      1.212143   123A      1.214161  
     124A      1.237389   125A      1.251690   126A      1.260898  
     127A      1.271771   128A      1.276800   129A      1.295002  
     130A      1.302641   131A      1.305434   132A      1.313666  
     133A      1.320886   134A      1.342786   135A      1.348441  
     136A      1.358272   137A      1.373655   138A      1.380043  
     139A      1.392600   140A      1.407157   141A      1.435328  
     142A      1.446858   143A      1.454410   144A      1.471098  
     145A      1.477771   146A      1.492168   147A      1.511847  
     148A      1.519091   149A      1.534190   150A      1.543146  
     151A      1.561394   152A      1.568514   153A      1.587600  
     154A      1.611012   155A      1.623629   156A      1.655216  
     157A      1.675325   158A      1.692764   159A      1.708600  
     160A      1.727032   161A      1.748566   162A      1.770243  
     163A      1.791088   164A      1.809894   165A      1.840909  
     166A      1.863383   167A      1.873906   168A      1.886986  
     169A      1.889654   170A      1.905428   171A      1.910348  
     172A      1.915190   173A      1.929970   174A      1.945791  
     175A      1.949693   176A      1.954732   177A      1.972143  
     178A      1.985466   179A      1.991796   180A      2.010540  
     181A      2.025111   182A      2.039806   183A      2.051861  
     184A      2.066420   185A      2.071347   186A      2.100303  
     187A      2.117617   188A      2.125286   189A      2.135139  
     190A      2.175677   191A      2.189140   192A      2.203290  
     193A      2.249649   194A      2.289250   195A      2.337301  
     196A      2.351417   197A      2.391487   198A      2.462370  
     199A      2.578448   200A      2.602048   201A      2.618174  
     202A      2.624996   203A      2.647306   204A      2.660562  
     205A      2.668065   206A      2.688792   207A      2.697701  
     208A      2.710531   209A      2.716773   210A      2.720209  
     211A      2.756802   212A      2.770320   213A      2.781338  
     214A      2.789549   215A      2.801657   216A      2.806448  
     217A      2.825033   218A      2.828165   219A      2.842497  
     220A      2.846826   221A      2.866781   222A      2.882217  
     223A      2.886798   224A      2.890869   225A      2.920526  
     226A      2.950040   227A      2.952407   228A      2.966501  
     229A      2.990730   230A      3.001898   231A      3.030139  
     232A      3.064973   233A      3.095120   234A      3.113042  
     235A      3.131485   236A      3.138330   237A      3.188846  
     238A      3.217429   239A      3.259702   240A      3.325554  
     241A      3.337850   242A      3.358301   243A      3.365476  
     244A      3.379194   245A      3.388428   246A      3.399523  
     247A      3.404886   248A      3.416538   249A      3.424836  
     250A      3.433986   251A      3.466493   252A      3.498329  
     253A      3.514598   254A      3.539220   255A      3.575492  
     256A      3.579027   257A      3.591391   258A      3.602044  
     259A      3.623223   260A      3.646695   261A      3.664231  
     262A      3.666066   263A      3.697476   264A      3.717922  
     265A      3.749910   266A      3.775577   267A      3.777581  
     268A      3.800914   269A      3.819346   270A      3.843402  
     271A      3.871246   272A      3.914587   273A      3.920965  
     274A      3.960237   275A      3.987529   276A      4.059973  
     277A      4.180199   278A      4.570260   279A      4.579497  
     280A      4.612507   281A      4.620236   282A      4.642090  
     283A      4.654387   284A      4.674924   285A      4.708605  
     286A      4.725569   287A      4.734861   288A      4.763410  
     289A      4.807110   290A      4.816356   291A      4.833109  
     292A      4.833541   293A      4.843018   294A      4.851716  
     295A      4.886166   296A      4.894821   297A      4.932155  
     298A      4.961231   299A      5.025229   300A      5.037258  
     301A      5.056430   302A      5.076511   303A      5.089569  
     304A      5.110150   305A      5.116245   306A      5.138760  
     307A      5.167038   308A      5.188034   309A      5.204865  
     310A      5.234882   311A      5.268558   312A      5.310577  
     313A      5.335613   314A      5.382939   315A      5.388147  
     316A      5.483841   317A      5.541033   318A      5.667182  
     319A      5.692684   320A      5.723557   321A      5.755017  
     322A      5.789567   323A      5.804873   324A      5.808185  
     325A      5.844973   326A      5.860334   327A      5.863369  
     328A      5.874631   329A      5.963415   330A      5.988864  
     331A      6.003730   332A      6.107181   333A      6.140996  
     334A      6.307056   335A      6.342635   336A      6.350439  
     337A      6.372995   338A      6.547759   339A      6.566047  
     340A      6.607546   341A      6.728024   342A      6.816499  
     343A      6.848104   344A      6.908129   345A      6.971552  
     346A      7.238582   347A      7.253413   348A      7.264673  
     349A      7.337246   350A      7.405839   351A      7.870725  
     352A      7.874227   353A      7.936287   354A      7.946447  
     355A      7.975999   356A      7.981425   357A      8.018073  
     358A      8.084867   359A      8.235008   360A      8.247318  
     361A      8.275604   362A      8.293093   363A      8.356265  
     364A      8.406916   365A      8.434051   366A      8.445494  
     367A      8.453651   368A      8.478156   369A      8.493299  
     370A      8.524956   371A      8.927004   372A      8.938332  
     373A      8.966250   374A      9.016944   375A      9.031581  
     376A      9.076840   377A      9.083252   378A      9.436048  
     379A      9.814862   380A      9.881057   381A      9.889224  
     382A      9.906774   383A     10.026606   384A     10.042788  
     385A     10.068890   386A     10.091698   387A     10.221741  
     388A     10.248152   389A     10.252467   390A     10.280574  
     391A     10.404754   392A     10.461527   393A     10.494348  
     394A     10.544524   395A     11.253073   396A     11.359436  
     397A     11.395591   398A     11.444869   399A     11.924694  
     400A     11.931599   401A     11.956789   402A     12.007984  
     403A     12.230520   404A     12.294085   405A     12.313887  
     406A     12.578462   407A     13.695644   408A     13.721918  
     409A     13.782453   410A     13.940114   411A     14.026464  
     412A     14.080742   413A     14.104046   414A     14.244220  
     415A     65.243232   416A     65.434950   417A     65.823781  
     418A     67.985256  

    Final Occupation by Irrep:
              A 
    DOCC [     9 ]
    NA   [     9 ]
    NB   [     9 ]

  @DF-RHF Final Energy:  -459.57356157733153

   => Energetics <=

    Nuclear Repulsion Energy =              0.0000000000000000
    One-Electron Energy =                -641.1279605343204366
    Two-Electron Energy =                 181.5543989569888481
    Total Energy =                       -459.5735615773315885

Computation Completed


Properties will be evaluated at   0.000000,   0.000000,   0.000000 [a0]

Properties computed using the SCF density matrix


 Multipole Moments:

 ------------------------------------------------------------------------------------
     Multipole            Electronic (a.u.)      Nuclear  (a.u.)        Total (a.u.)
 ------------------------------------------------------------------------------------

 L = 1.  Multiply by 2.5417464519 to convert [e a0] to [Debye]
 Dipole X            :          0.0003377            0.0000000            0.0003377
 Dipole Y            :         -0.0001828            0.0000000           -0.0001828
 Dipole Z            :          0.0002269            0.0000000            0.0002269
 Magnitude           :                                                    0.0004460

 ------------------------------------------------------------------------------------

*** tstop() called on ddmfs1 at Mon Jan 22 20:46:33 2024
Module time:
	user time   =      61.93 seconds =       1.03 minutes
	system time =       4.27 seconds =       0.07 minutes
	total time  =          4 seconds =       0.07 minutes
Total time:
	user time   =      61.93 seconds =       1.03 minutes
	system time =       4.27 seconds =       0.07 minutes
	total time  =          4 seconds =       0.07 minutes

*** tstart() called on ddmfs1
*** at Mon Jan 22 20:46:33 2024


  //>>>>>>>>>>>>>>>>>>>>>>>>>>>>>>>>>>>//
  //               DFMP2               //
  //<<<<<<<<<<<<<<<<<<<<<<<<<<<<<<<<<<<//

   => Loading Basis Set <=

    Name: (AUG-CC-PVTZ AUX)
    Role: RIFIT
    Keyword: DF_BASIS_MP2
    atoms 1                     entry CL         line   742 file /ddmfs1b/softs/psi4conda/share/psi4/basis/aug-cc-pvtz-ri.gbs 
    atoms 2, 5, 8, 11           entry O          line   264 file /ddmfs1b/softs/psi4conda/share/psi4/basis/aug-cc-pvtz-ri.gbs 
    atoms 3-4, 6-7, 9-10, 12-13 entry H          line    30 file /ddmfs1b/softs/psi4conda/share/psi4/basis/aug-cc-pvtz-ri.gbs 

	 --------------------------------------------------------
	                          DF-MP2                         
	      2nd-Order Density-Fitted Moller-Plesset Theory     
	              RMP2 Wavefunction,  20 Threads             
	                                                         
	        Rob Parrish, Justin Turney, Andy Simmonett,      
	           Ed Hohenstein, and C. David Sherrill          
	 --------------------------------------------------------

   => Auxiliary Basis Set <=

  Basis Set: (AUG-CC-PVTZ AUX)
    Blend: AUG-CC-PVTZ-RI
    Number of shells: 261
    Number of basis functions: 939
    Number of Cartesian functions: 1175
    Spherical Harmonics?: true
    Max angular momentum: 4

	 --------------------------------------------------------
	                 NBF =   418, NAUX =   939
	 --------------------------------------------------------
	   CLASS    FOCC     OCC    AOCC    AVIR     VIR    FVIR
	   PAIRS       0       9       9     409     409       0
	 --------------------------------------------------------

	-----------------------------------------------------------
	 ==================> DF-MP2 Energies <==================== 
	-----------------------------------------------------------
	 Reference Energy          =    -459.5735615773315317 [Eh]
	 Singles Energy            =      -0.0000000000000000 [Eh]
	 Same-Spin Energy          =      -0.0632887964688658 [Eh]
	 Opposite-Spin Energy      =      -0.1828326596647658 [Eh]
	 Correlation Energy        =      -0.2461214561336316 [Eh]
	 Total Energy              =    -459.8196830334651395 [Eh]
	-----------------------------------------------------------
	 ================> DF-SCS-MP2 Energies <================== 
	-----------------------------------------------------------
	 SCS Same-Spin Scale       =       0.3333333333333333 [-]
	 SCS Opposite-Spin Scale   =       1.2000000000000000 [-]
	 SCS Same-Spin Energy      =      -0.0210962654896219 [Eh]
	 SCS Opposite-Spin Energy  =      -0.2193991915977190 [Eh]
	 SCS Correlation Energy    =      -0.2404954570873409 [Eh]
	 SCS Total Energy          =    -459.8140570344188518 [Eh]
	-----------------------------------------------------------


*** tstop() called on ddmfs1 at Mon Jan 22 20:46:37 2024
Module time:
	user time   =      20.93 seconds =       0.35 minutes
	system time =       1.43 seconds =       0.02 minutes
	total time  =          4 seconds =       0.07 minutes
Total time:
	user time   =      82.88 seconds =       1.38 minutes
	system time =       5.70 seconds =       0.10 minutes
	total time  =          8 seconds =       0.13 minutes

    Psi4 stopped on: Monday, 22 January 2024 08:46PM
    Psi4 wall time for execution: 0:00:07.75

*** Psi4 exiting successfully. Buy a developer a beer!
