
    -----------------------------------------------------------------------
          Psi4: An Open-Source Ab Initio Electronic Structure Package
                               Psi4 1.8.2 release

                         Git: Rev {} zzzzzzz 


    D. G. A. Smith, L. A. Burns, A. C. Simmonett, R. M. Parrish,
    M. C. Schieber, R. Galvelis, P. Kraus, H. Kruse, R. Di Remigio,
    A. Alenaizan, A. M. James, S. Lehtola, J. P. Misiewicz, M. Scheurer,
    R. A. Shaw, J. B. Schriber, Y. Xie, Z. L. Glick, D. A. Sirianni,
    J. S. O'Brien, J. M. Waldrop, A. Kumar, E. G. Hohenstein,
    B. P. Pritchard, B. R. Brooks, H. F. Schaefer III, A. Yu. Sokolov,
    K. Patkowski, A. E. DePrince III, U. Bozkaya, R. A. King,
    F. A. Evangelista, J. M. Turney, T. D. Crawford, C. D. Sherrill,
    J. Chem. Phys. 152(18) 184108 (2020). https://doi.org/10.1063/5.0006002

                            Additional Code Authors
    E. T. Seidl, C. L. Janssen, E. F. Valeev, M. L. Leininger,
    J. F. Gonthier, R. M. Richard, H. R. McAlexander, M. Saitow, X. Wang,
    P. Verma, M. H. Lechner, A. Jiang, S. Behnle, A. G. Heide,
    M. F. Herbst, and D. L. Poole

             Previous Authors, Complete List of Code Contributors,
                       and Citations for Specific Modules
    https://github.com/psi4/psi4/blob/master/codemeta.json
    https://github.com/psi4/psi4/graphs/contributors
    http://psicode.org/psi4manual/master/introduction.html#citing-psifour

    -----------------------------------------------------------------------


    Psi4 started on: Monday, 22 January 2024 09:12PM

    Process ID: 107886
    Host:       ddmfs1
    PSIDATADIR: /ddmfs1b/softs/psi4conda/share/psi4
    Memory:     500.0 MiB
    Threads:    20
    
  ==> Input File <==

--------------------------------------------------------------------------
MEMORY 60 GB

molecule dimer {
-1 1
Cl         0.000000     0.000000     0.000000
Gh(O)      3.112411    -0.510579     1.136854
Gh(H)      2.370520    -0.257961     1.690682
Gh(H)      3.753338    -1.047204     1.647019
Gh(O)     -2.960096    -1.202549     0.650023
Gh(H)     -2.871814    -2.140675     0.467832
Gh(H)     -2.150687    -0.805819     0.422640
Gh(O)     -2.286463     2.389191     0.707858
Gh(H)     -1.879680     1.516328     0.601139
Gh(H)     -3.105064     2.383095     0.187160
Gh(O)      0.222845     1.410868     2.777416
Gh(H)      0.764077     2.178359     2.611442
Gh(H)      0.077727     1.005070     1.910475

units ang
no_reorient
no_com
symmetry c1
}

set {
basis        aug-cc-pVTZ
scf_type     df
}

energy("mp2")
--------------------------------------------------------------------------

  Memory set to  55.879 GiB by Python driver.

Scratch directory: /ddmfs1a/scratch/
   => Libint2 <=

    Primary   basis highest AM E, G, H:  5, 4, 3
    Auxiliary basis highest AM E, G, H:  6, 5, 4
    Onebody   basis highest AM E, G, H:  6, 5, 4
    Solid Harmonics ordering:            gaussian

*** tstart() called on ddmfs1
*** at Mon Jan 22 21:12:38 2024

   => Loading Basis Set <=

    Name: AUG-CC-PVTZ
    Role: ORBITAL
    Keyword: BASIS
    atoms 1                     entry CL         line   988 file /ddmfs1b/softs/psi4conda/share/psi4/basis/aug-cc-pvtz.gbs 
    atoms 2, 5, 8, 11           entry O          line   331 file /ddmfs1b/softs/psi4conda/share/psi4/basis/aug-cc-pvtz.gbs 
    atoms 3-4, 6-7, 9-10, 12-13 entry H          line    40 file /ddmfs1b/softs/psi4conda/share/psi4/basis/aug-cc-pvtz.gbs 


         ---------------------------------------------------------
                                   SCF
               by Justin Turney, Rob Parrish, Andy Simmonett
                          and Daniel G. A. Smith
                              RHF Reference
                       20 Threads,  57220 MiB Core
         ---------------------------------------------------------

  ==> Geometry <==

    Molecular point group: c1
    Full point group: C1

    Geometry (in Angstrom), charge = -1, multiplicity = 1:

       Center              X                  Y                   Z               Mass       
    ------------   -----------------  -----------------  -----------------  -----------------
         CL           0.000000000000     0.000000000000     0.000000000000    34.968852682000
      Gh(O)           3.112411000000    -0.510579000000     1.136854000000    15.994914619570
      Gh(H)           2.370520000000    -0.257961000000     1.690682000000     1.007825032230
      Gh(H)           3.753338000000    -1.047204000000     1.647019000000     1.007825032230
      Gh(O)          -2.960096000000    -1.202549000000     0.650023000000    15.994914619570
      Gh(H)          -2.871814000000    -2.140675000000     0.467832000000     1.007825032230
      Gh(H)          -2.150687000000    -0.805819000000     0.422640000000     1.007825032230
      Gh(O)          -2.286463000000     2.389191000000     0.707858000000    15.994914619570
      Gh(H)          -1.879680000000     1.516328000000     0.601139000000     1.007825032230
      Gh(H)          -3.105064000000     2.383095000000     0.187160000000     1.007825032230
      Gh(O)           0.222845000000     1.410868000000     2.777416000000    15.994914619570
      Gh(H)           0.764077000000     2.178359000000     2.611442000000     1.007825032230
      Gh(H)           0.077727000000     1.005070000000     1.910475000000     1.007825032230

  Running in c1 symmetry.

  Rotational constants: A =      0.05036  B =      0.03185  C =      0.02474 [cm^-1]
  Rotational constants: A =   1509.75998  B =    954.84668  C =    741.60981 [MHz]
  Nuclear repulsion =    0.000000000000000

  Charge       = -1
  Multiplicity = 1
  Electrons    = 18
  Nalpha       = 9
  Nbeta        = 9

  ==> Algorithm <==

  SCF Algorithm Type is DF.
  DIIS enabled.
  MOM disabled.
  Fractional occupation disabled.
  Guess Type is SAD.
  Energy threshold   = 1.00e-08
  Density threshold  = 1.00e-08
  Integral threshold = 1.00e-12

  ==> Primary Basis <==

  Basis Set: AUG-CC-PVTZ
    Blend: AUG-CC-PVTZ
    Number of shells: 144
    Number of basis functions: 418
    Number of Cartesian functions: 479
    Spherical Harmonics?: true
    Max angular momentum: 3

   => Loading Basis Set <=

    Name: (AUG-CC-PVTZ AUX)
    Role: JKFIT
    Keyword: DF_BASIS_SCF
    atoms 1                     entry CL         line   816 file /ddmfs1b/softs/psi4conda/share/psi4/basis/aug-cc-pvtz-jkfit.gbs 
    atoms 2, 5, 8, 11           entry O          line   286 file /ddmfs1b/softs/psi4conda/share/psi4/basis/aug-cc-pvtz-jkfit.gbs 
    atoms 3-4, 6-7, 9-10, 12-13 entry H          line    70 file /ddmfs1b/softs/psi4conda/share/psi4/basis/aug-cc-pvtz-jkfit.gbs 

  ==> Integral Setup <==

  DFHelper Memory: AOs need 1.132 GiB; user supplied 41.910 GiB. 
  Using in-core AOs.

  ==> MemDFJK: Density-Fitted J/K Matrices <==

    J tasked:                   Yes
    K tasked:                   Yes
    wK tasked:                   No
    OpenMP threads:              20
    Memory [MiB]:             42915
    Algorithm:                 Core
    Schwarz Cutoff:           1E-12
    Mask sparsity (%):      12.0464
    Fitting Condition:        1E-10

   => Auxiliary Basis Set <=

  Basis Set: (AUG-CC-PVTZ AUX)
    Blend: AUG-CC-PVTZ-JKFIT
    Number of shells: 274
    Number of basis functions: 930
    Number of Cartesian functions: 1144
    Spherical Harmonics?: true
    Max angular momentum: 4

  Minimum eigenvalue in the overlap matrix is 1.6951597980E-04.
  Reciprocal condition number of the overlap matrix is 1.5139586670E-05.
    Using symmetric orthogonalization.

  ==> Pre-Iterations <==

  SCF Guess: Superposition of Atomic Densities via on-the-fly atomic UHF (no occupation information).

   -------------------------
    Irrep   Nso     Nmo    
   -------------------------
     A        418     418 
   -------------------------
    Total     418     418
   -------------------------

  ==> Iterations <==

                           Total Energy        Delta E     RMS |[F,P]|

   @DF-RHF iter SAD:  -459.11248998541578   -4.59112e+02   0.00000e+00 
   @DF-RHF iter   1:  -459.51388532322960   -4.01395e-01   7.14470e-04 ADIIS/DIIS
   @DF-RHF iter   2:  -459.56479235456476   -5.09070e-02   3.66028e-04 ADIIS/DIIS
   @DF-RHF iter   3:  -459.57349196179746   -8.69961e-03   2.54125e-05 DIIS
   @DF-RHF iter   4:  -459.57354935687596   -5.73951e-05   5.00217e-06 DIIS
   @DF-RHF iter   5:  -459.57355299373387   -3.63686e-06   5.13612e-07 DIIS
   @DF-RHF iter   6:  -459.57355307475484   -8.10210e-08   4.32743e-08 DIIS
   @DF-RHF iter   7:  -459.57355307557214   -8.17295e-10   5.07165e-09 DIIS
  Energy and wave function converged.


  ==> Post-Iterations <==

    Orbital Energies [Eh]
    ---------------------

    Doubly Occupied:                                                      

       1A   -104.506991     2A    -10.229998     3A     -7.696075  
       4A     -7.696043     5A     -7.696035     6A     -0.733480  
       7A     -0.150322     8A     -0.150317     9A     -0.150310  

    Virtual:                                                              

      10A      0.118522    11A      0.123021    12A      0.131536  
      13A      0.136868    14A      0.172731    15A      0.178871  
      16A      0.183620    17A      0.190671    18A      0.233995  
      19A      0.241453    20A      0.247035    21A      0.254875  
      22A      0.259095    23A      0.261302    24A      0.271039  
      25A      0.274005    26A      0.276761    27A      0.289196  
      28A      0.298150    29A      0.303941    30A      0.315469  
      31A      0.321023    32A      0.338763    33A      0.340287  
      34A      0.351395    35A      0.355640    36A      0.360293  
      37A      0.401683    38A      0.416747    39A      0.423247  
      40A      0.425640    41A      0.434548    42A      0.443009  
      43A      0.455524    44A      0.457227    45A      0.465559  
      46A      0.473013    47A      0.480457    48A      0.485302  
      49A      0.492444    50A      0.499091    51A      0.504708  
      52A      0.508790    53A      0.515370    54A      0.528027  
      55A      0.530493    56A      0.543390    57A      0.556472  
      58A      0.560790    59A      0.567045    60A      0.576510  
      61A      0.585184    62A      0.625144    63A      0.633103  
      64A      0.645783    65A      0.662275    66A      0.675093  
      67A      0.701057    68A      0.711649    69A      0.720659  
      70A      0.747281    71A      0.766691    72A      0.772088  
      73A      0.788014    74A      0.799283    75A      0.805639  
      76A      0.819781    77A      0.840509    78A      0.849246  
      79A      0.861728    80A      0.866714    81A      0.892600  
      82A      0.904747    83A      0.922649    84A      0.926699  
      85A      0.940409    86A      0.948844    87A      0.957216  
      88A      0.957822    89A      0.961170    90A      0.969596  
      91A      0.980805    92A      0.985196    93A      0.989938  
      94A      0.993892    95A      1.002163    96A      1.004266  
      97A      1.008822    98A      1.012732    99A      1.023499  
     100A      1.026542   101A      1.037538   102A      1.038122  
     103A      1.048559   104A      1.053120   105A      1.063768  
     106A      1.076989   107A      1.083204   108A      1.088642  
     109A      1.102497   110A      1.109216   111A      1.114932  
     112A      1.122135   113A      1.129754   114A      1.137540  
     115A      1.139715   116A      1.153746   117A      1.156479  
     118A      1.166704   119A      1.173521   120A      1.180053  
     121A      1.183957   122A      1.194139   123A      1.211104  
     124A      1.220768   125A      1.229726   126A      1.232087  
     127A      1.240066   128A      1.255245   129A      1.259221  
     130A      1.269538   131A      1.296532   132A      1.305806  
     133A      1.307911   134A      1.319155   135A      1.339652  
     136A      1.342431   137A      1.352513   138A      1.362811  
     139A      1.370670   140A      1.376742   141A      1.404572  
     142A      1.419141   143A      1.426248   144A      1.458959  
     145A      1.462117   146A      1.475449   147A      1.486337  
     148A      1.508132   149A      1.517150   150A      1.537115  
     151A      1.556768   152A      1.571993   153A      1.598577  
     154A      1.607920   155A      1.637095   156A      1.649475  
     157A      1.667078   158A      1.680627   159A      1.720076  
     160A      1.743589   161A      1.751504   162A      1.757020  
     163A      1.781487   164A      1.815332   165A      1.832068  
     166A      1.855024   167A      1.865752   168A      1.877744  
     169A      1.880171   170A      1.890648   171A      1.906468  
     172A      1.918706   173A      1.930422   174A      1.935975  
     175A      1.947205   176A      1.954441   177A      1.957541  
     178A      1.972951   179A      2.001294   180A      2.014255  
     181A      2.016832   182A      2.025228   183A      2.035488  
     184A      2.056166   185A      2.069790   186A      2.075168  
     187A      2.089975   188A      2.103762   189A      2.117164  
     190A      2.137088   191A      2.162335   192A      2.194347  
     193A      2.208788   194A      2.260853   195A      2.345497  
     196A      2.384539   197A      2.406860   198A      2.443274  
     199A      2.561525   200A      2.595458   201A      2.611980  
     202A      2.620101   203A      2.632749   204A      2.648709  
     205A      2.661076   206A      2.677768   207A      2.687457  
     208A      2.694813   209A      2.702350   210A      2.711476  
     211A      2.731112   212A      2.751885   213A      2.754750  
     214A      2.763068   215A      2.780996   216A      2.796131  
     217A      2.805236   218A      2.811296   219A      2.821961  
     220A      2.824648   221A      2.841477   222A      2.850595  
     223A      2.865190   224A      2.878689   225A      2.898217  
     226A      2.927048   227A      2.936928   228A      2.973630  
     229A      3.000345   230A      3.022738   231A      3.045743  
     232A      3.064239   233A      3.079348   234A      3.119492  
     235A      3.140771   236A      3.153724   237A      3.166558  
     238A      3.206646   239A      3.231466   240A      3.285569  
     241A      3.313702   242A      3.340319   243A      3.354622  
     244A      3.360561   245A      3.368400   246A      3.380277  
     247A      3.394365   248A      3.408305   249A      3.418020  
     250A      3.443192   251A      3.463285   252A      3.499327  
     253A      3.537608   254A      3.543852   255A      3.554329  
     256A      3.574223   257A      3.588739   258A      3.606391  
     259A      3.624080   260A      3.639846   261A      3.664032  
     262A      3.675200   263A      3.686075   264A      3.692973  
     265A      3.720097   266A      3.734180   267A      3.744500  
     268A      3.803451   269A      3.816313   270A      3.828778  
     271A      3.847615   272A      3.889959   273A      3.911294  
     274A      3.960529   275A      4.012572   276A      4.045303  
     277A      4.119144   278A      4.512990   279A      4.572264  
     280A      4.586507   281A      4.601483   282A      4.605325  
     283A      4.625467   284A      4.646226   285A      4.668227  
     286A      4.685821   287A      4.746361   288A      4.768804  
     289A      4.798105   290A      4.814782   291A      4.821496  
     292A      4.842152   293A      4.844431   294A      4.857387  
     295A      4.867030   296A      4.880727   297A      4.906174  
     298A      4.929411   299A      4.984239   300A      5.033809  
     301A      5.049716   302A      5.060893   303A      5.079829  
     304A      5.096278   305A      5.119440   306A      5.133118  
     307A      5.152368   308A      5.168189   309A      5.171568  
     310A      5.241467   311A      5.270986   312A      5.300276  
     313A      5.356642   314A      5.390946   315A      5.453109  
     316A      5.471117   317A      5.473859   318A      5.637560  
     319A      5.703272   320A      5.704516   321A      5.741755  
     322A      5.749520   323A      5.792067   324A      5.798373  
     325A      5.827623   326A      5.845683   327A      5.853025  
     328A      5.892158   329A      5.939099   330A      5.960810  
     331A      6.020427   332A      6.082662   333A      6.095061  
     334A      6.296408   335A      6.323370   336A      6.353861  
     337A      6.359236   338A      6.498333   339A      6.590163  
     340A      6.669807   341A      6.698482   342A      6.859072  
     343A      6.899884   344A      6.916830   345A      6.965929  
     346A      7.179454   347A      7.211263   348A      7.249832  
     349A      7.335936   350A      7.395089   351A      7.850006  
     352A      7.878371   353A      7.899220   354A      7.913163  
     355A      7.924713   356A      7.991503   357A      8.033392  
     358A      8.045015   359A      8.229879   360A      8.237738  
     361A      8.252805   362A      8.271587   363A      8.397394  
     364A      8.403901   365A      8.407988   366A      8.425534  
     367A      8.435515   368A      8.459788   369A      8.493215  
     370A      8.510874   371A      8.900043   372A      8.934567  
     373A      8.991638   374A      9.015811   375A      9.060870  
     376A      9.110638   377A      9.215261   378A      9.397304  
     379A      9.825919   380A      9.858948   381A      9.902046  
     382A      9.978261   383A     10.000458   384A     10.015195  
     385A     10.040144   386A     10.098426   387A     10.205790  
     388A     10.237881   389A     10.248709   390A     10.289780  
     391A     10.399039   392A     10.475649   393A     10.489960  
     394A     10.501459   395A     11.260841   396A     11.324308  
     397A     11.418401   398A     11.467846   399A     11.784241  
     400A     11.912861   401A     11.938210   402A     12.001937  
     403A     12.213210   404A     12.232214   405A     12.425143  
     406A     12.573019   407A     13.664844   408A     13.735118  
     409A     13.868450   410A     13.922616   411A     14.067269  
     412A     14.132482   413A     14.182204   414A     14.220929  
     415A     64.875898   416A     65.667511   417A     67.287507  
     418A     68.055126  

    Final Occupation by Irrep:
              A 
    DOCC [     9 ]
    NA   [     9 ]
    NB   [     9 ]

  @DF-RHF Final Energy:  -459.57355307557214

   => Energetics <=

    Nuclear Repulsion Energy =              0.0000000000000000
    One-Electron Energy =                -641.1279778951134176
    Two-Electron Energy =                 181.5544248195413104
    Total Energy =                       -459.5735530755721356

Computation Completed


Properties will be evaluated at   0.000000,   0.000000,   0.000000 [a0]

Properties computed using the SCF density matrix


 Multipole Moments:

 ------------------------------------------------------------------------------------
     Multipole            Electronic (a.u.)      Nuclear  (a.u.)        Total (a.u.)
 ------------------------------------------------------------------------------------

 L = 1.  Multiply by 2.5417464519 to convert [e a0] to [Debye]
 Dipole X            :         -0.0004316            0.0000000           -0.0004316
 Dipole Y            :          0.0003987            0.0000000            0.0003987
 Dipole Z            :          0.0004148            0.0000000            0.0004148
 Magnitude           :                                                    0.0007193

 ------------------------------------------------------------------------------------

*** tstop() called on ddmfs1 at Mon Jan 22 21:12:42 2024
Module time:
	user time   =      61.37 seconds =       1.02 minutes
	system time =       4.31 seconds =       0.07 minutes
	total time  =          4 seconds =       0.07 minutes
Total time:
	user time   =      61.37 seconds =       1.02 minutes
	system time =       4.31 seconds =       0.07 minutes
	total time  =          4 seconds =       0.07 minutes

*** tstart() called on ddmfs1
*** at Mon Jan 22 21:12:42 2024


  //>>>>>>>>>>>>>>>>>>>>>>>>>>>>>>>>>>>//
  //               DFMP2               //
  //<<<<<<<<<<<<<<<<<<<<<<<<<<<<<<<<<<<//

   => Loading Basis Set <=

    Name: (AUG-CC-PVTZ AUX)
    Role: RIFIT
    Keyword: DF_BASIS_MP2
    atoms 1                     entry CL         line   742 file /ddmfs1b/softs/psi4conda/share/psi4/basis/aug-cc-pvtz-ri.gbs 
    atoms 2, 5, 8, 11           entry O          line   264 file /ddmfs1b/softs/psi4conda/share/psi4/basis/aug-cc-pvtz-ri.gbs 
    atoms 3-4, 6-7, 9-10, 12-13 entry H          line    30 file /ddmfs1b/softs/psi4conda/share/psi4/basis/aug-cc-pvtz-ri.gbs 

	 --------------------------------------------------------
	                          DF-MP2                         
	      2nd-Order Density-Fitted Moller-Plesset Theory     
	              RMP2 Wavefunction,  20 Threads             
	                                                         
	        Rob Parrish, Justin Turney, Andy Simmonett,      
	           Ed Hohenstein, and C. David Sherrill          
	 --------------------------------------------------------

   => Auxiliary Basis Set <=

  Basis Set: (AUG-CC-PVTZ AUX)
    Blend: AUG-CC-PVTZ-RI
    Number of shells: 261
    Number of basis functions: 939
    Number of Cartesian functions: 1175
    Spherical Harmonics?: true
    Max angular momentum: 4

	 --------------------------------------------------------
	                 NBF =   418, NAUX =   939
	 --------------------------------------------------------
	   CLASS    FOCC     OCC    AOCC    AVIR     VIR    FVIR
	   PAIRS       0       9       9     409     409       0
	 --------------------------------------------------------

	-----------------------------------------------------------
	 ==================> DF-MP2 Energies <==================== 
	-----------------------------------------------------------
	 Reference Energy          =    -459.5735530755721356 [Eh]
	 Singles Energy            =      -0.0000000000000000 [Eh]
	 Same-Spin Energy          =      -0.0632409164630884 [Eh]
	 Opposite-Spin Energy      =      -0.1826026304579509 [Eh]
	 Correlation Energy        =      -0.2458435469210394 [Eh]
	 Total Energy              =    -459.8193966224931728 [Eh]
	-----------------------------------------------------------
	 ================> DF-SCS-MP2 Energies <================== 
	-----------------------------------------------------------
	 SCS Same-Spin Scale       =       0.3333333333333333 [-]
	 SCS Opposite-Spin Scale   =       1.2000000000000000 [-]
	 SCS Same-Spin Energy      =      -0.0210803054876961 [Eh]
	 SCS Opposite-Spin Energy  =      -0.2191231565495411 [Eh]
	 SCS Correlation Energy    =      -0.2402034620372372 [Eh]
	 SCS Total Energy          =    -459.8137565376093789 [Eh]
	-----------------------------------------------------------


*** tstop() called on ddmfs1 at Mon Jan 22 21:12:46 2024
Module time:
	user time   =      20.87 seconds =       0.35 minutes
	system time =       1.28 seconds =       0.02 minutes
	total time  =          4 seconds =       0.07 minutes
Total time:
	user time   =      82.26 seconds =       1.37 minutes
	system time =       5.60 seconds =       0.09 minutes
	total time  =          8 seconds =       0.13 minutes

    Psi4 stopped on: Monday, 22 January 2024 09:12PM
    Psi4 wall time for execution: 0:00:07.67

*** Psi4 exiting successfully. Buy a developer a beer!
