
    -----------------------------------------------------------------------
          Psi4: An Open-Source Ab Initio Electronic Structure Package
                               Psi4 1.8.2 release

                         Git: Rev {} zzzzzzz 


    D. G. A. Smith, L. A. Burns, A. C. Simmonett, R. M. Parrish,
    M. C. Schieber, R. Galvelis, P. Kraus, H. Kruse, R. Di Remigio,
    A. Alenaizan, A. M. James, S. Lehtola, J. P. Misiewicz, M. Scheurer,
    R. A. Shaw, J. B. Schriber, Y. Xie, Z. L. Glick, D. A. Sirianni,
    J. S. O'Brien, J. M. Waldrop, A. Kumar, E. G. Hohenstein,
    B. P. Pritchard, B. R. Brooks, H. F. Schaefer III, A. Yu. Sokolov,
    K. Patkowski, A. E. DePrince III, U. Bozkaya, R. A. King,
    F. A. Evangelista, J. M. Turney, T. D. Crawford, C. D. Sherrill,
    J. Chem. Phys. 152(18) 184108 (2020). https://doi.org/10.1063/5.0006002

                            Additional Code Authors
    E. T. Seidl, C. L. Janssen, E. F. Valeev, M. L. Leininger,
    J. F. Gonthier, R. M. Richard, H. R. McAlexander, M. Saitow, X. Wang,
    P. Verma, M. H. Lechner, A. Jiang, S. Behnle, A. G. Heide,
    M. F. Herbst, and D. L. Poole

             Previous Authors, Complete List of Code Contributors,
                       and Citations for Specific Modules
    https://github.com/psi4/psi4/blob/master/codemeta.json
    https://github.com/psi4/psi4/graphs/contributors
    http://psicode.org/psi4manual/master/introduction.html#citing-psifour

    -----------------------------------------------------------------------


    Psi4 started on: Monday, 22 January 2024 09:16PM

    Process ID: 108394
    Host:       ddmfs1
    PSIDATADIR: /ddmfs1b/softs/psi4conda/share/psi4
    Memory:     500.0 MiB
    Threads:    20
    
  ==> Input File <==

--------------------------------------------------------------------------
MEMORY 60 GB

molecule dimer {
0 1
Gh(Cl)     0.000000     0.000000     0.000000
Gh(O)     -3.072186    -0.943385    -1.151340
Gh(H)     -2.109297    -0.833410    -1.232254
Gh(H)     -3.480580    -0.069519    -1.336406
Gh(O)     -2.170564     2.085398    -0.537936
Gh(H)     -1.492369     1.468992    -0.217548
Gh(H)     -1.948541     2.234535    -1.504709
Gh(O)      1.715914     2.702458    -1.046000
Gh(H)      2.231407     2.871279    -1.844869
Gh(H)      1.155635     1.946575    -1.231334
O         -0.734965     0.285092    -3.206055
H         -0.613228     0.151032    -2.243593
H         -0.192858     1.041459    -3.457951
Gh(O)     -1.691451    -2.961899     0.571525
Gh(H)     -1.220428    -3.805275     0.457431
Gh(H)     -1.045938    -2.256831     0.320946

units ang
no_reorient
no_com
symmetry c1
}

set {
basis        aug-cc-pVTZ
scf_type     df
}

energy("mp2")
--------------------------------------------------------------------------

  Memory set to  55.879 GiB by Python driver.

Scratch directory: /ddmfs1a/scratch/
   => Libint2 <=

    Primary   basis highest AM E, G, H:  5, 4, 3
    Auxiliary basis highest AM E, G, H:  6, 5, 4
    Onebody   basis highest AM E, G, H:  6, 5, 4
    Solid Harmonics ordering:            gaussian

*** tstart() called on ddmfs1
*** at Mon Jan 22 21:16:34 2024

   => Loading Basis Set <=

    Name: AUG-CC-PVTZ
    Role: ORBITAL
    Keyword: BASIS
    atoms 1                            entry CL         line   988 file /ddmfs1b/softs/psi4conda/share/psi4/basis/aug-cc-pvtz.gbs 
    atoms 2, 5, 8, 11, 14              entry O          line   331 file /ddmfs1b/softs/psi4conda/share/psi4/basis/aug-cc-pvtz.gbs 
    atoms 3-4, 6-7, 9-10, 12-13, 15-16 entry H          line    40 file /ddmfs1b/softs/psi4conda/share/psi4/basis/aug-cc-pvtz.gbs 


         ---------------------------------------------------------
                                   SCF
               by Justin Turney, Rob Parrish, Andy Simmonett
                          and Daniel G. A. Smith
                              RHF Reference
                       20 Threads,  57220 MiB Core
         ---------------------------------------------------------

  ==> Geometry <==

    Molecular point group: c1
    Full point group: C1

    Geometry (in Angstrom), charge = 0, multiplicity = 1:

       Center              X                  Y                   Z               Mass       
    ------------   -----------------  -----------------  -----------------  -----------------
      Gh(CL)          0.000000000000     0.000000000000     0.000000000000    34.968852682000
      Gh(O)          -3.072186000000    -0.943385000000    -1.151340000000    15.994914619570
      Gh(H)          -2.109297000000    -0.833410000000    -1.232254000000     1.007825032230
      Gh(H)          -3.480580000000    -0.069519000000    -1.336406000000     1.007825032230
      Gh(O)          -2.170564000000     2.085398000000    -0.537936000000    15.994914619570
      Gh(H)          -1.492369000000     1.468992000000    -0.217548000000     1.007825032230
      Gh(H)          -1.948541000000     2.234535000000    -1.504709000000     1.007825032230
      Gh(O)           1.715914000000     2.702458000000    -1.046000000000    15.994914619570
      Gh(H)           2.231407000000     2.871279000000    -1.844869000000     1.007825032230
      Gh(H)           1.155635000000     1.946575000000    -1.231334000000     1.007825032230
         O           -0.734965000000     0.285092000000    -3.206055000000    15.994914619570
         H           -0.613228000000     0.151032000000    -2.243593000000     1.007825032230
         H           -0.192858000000     1.041459000000    -3.457951000000     1.007825032230
      Gh(O)          -1.691451000000    -2.961899000000     0.571525000000    15.994914619570
      Gh(H)          -1.220428000000    -3.805275000000     0.457431000000     1.007825032230
      Gh(H)          -1.045938000000    -2.256831000000     0.320946000000     1.007825032230

  Running in c1 symmetry.

  Rotational constants: A =      0.03564  B =      0.02708  C =      0.01932 [cm^-1]
  Rotational constants: A =   1068.34220  B =    811.74823  C =    579.18166 [MHz]
  Nuclear repulsion =    9.052374287295477

  Charge       = 0
  Multiplicity = 1
  Electrons    = 10
  Nalpha       = 5
  Nbeta        = 5

  ==> Algorithm <==

  SCF Algorithm Type is DF.
  DIIS enabled.
  MOM disabled.
  Fractional occupation disabled.
  Guess Type is SAD.
  Energy threshold   = 1.00e-08
  Density threshold  = 1.00e-08
  Integral threshold = 1.00e-12

  ==> Primary Basis <==

  Basis Set: AUG-CC-PVTZ
    Blend: AUG-CC-PVTZ
    Number of shells: 176
    Number of basis functions: 510
    Number of Cartesian functions: 584
    Spherical Harmonics?: true
    Max angular momentum: 3

   => Loading Basis Set <=

    Name: (AUG-CC-PVTZ AUX)
    Role: JKFIT
    Keyword: DF_BASIS_SCF
    atoms 1                            entry CL         line   816 file /ddmfs1b/softs/psi4conda/share/psi4/basis/aug-cc-pvtz-jkfit.gbs 
    atoms 2, 5, 8, 11, 14              entry O          line   286 file /ddmfs1b/softs/psi4conda/share/psi4/basis/aug-cc-pvtz-jkfit.gbs 
    atoms 3-4, 6-7, 9-10, 12-13, 15-16 entry H          line    70 file /ddmfs1b/softs/psi4conda/share/psi4/basis/aug-cc-pvtz-jkfit.gbs 

  ==> Integral Setup <==

  DFHelper Memory: AOs need 2.045 GiB; user supplied 41.910 GiB. 
  Using in-core AOs.

  ==> MemDFJK: Density-Fitted J/K Matrices <==

    J tasked:                   Yes
    K tasked:                   Yes
    wK tasked:                   No
    OpenMP threads:              20
    Memory [MiB]:             42915
    Algorithm:                 Core
    Schwarz Cutoff:           1E-12
    Mask sparsity (%):      10.8843
    Fitting Condition:        1E-10

   => Auxiliary Basis Set <=

  Basis Set: (AUG-CC-PVTZ AUX)
    Blend: AUG-CC-PVTZ-JKFIT
    Number of shells: 332
    Number of basis functions: 1126
    Number of Cartesian functions: 1385
    Spherical Harmonics?: true
    Max angular momentum: 4

  Minimum eigenvalue in the overlap matrix is 1.0110174542E-04.
  Reciprocal condition number of the overlap matrix is 7.1008569704E-06.
    Using symmetric orthogonalization.

  ==> Pre-Iterations <==

  SCF Guess: Superposition of Atomic Densities via on-the-fly atomic UHF (no occupation information).

   -------------------------
    Irrep   Nso     Nmo    
   -------------------------
     A        510     510 
   -------------------------
    Total     510     510
   -------------------------

  ==> Iterations <==

                           Total Energy        Delta E     RMS |[F,P]|

   @DF-RHF iter SAD:   -75.45865593921380   -7.54587e+01   0.00000e+00 
   @DF-RHF iter   1:   -75.97454922849784   -5.15893e-01   9.16644e-04 DIIS/ADIIS
   @DF-RHF iter   2:   -76.02656963519365   -5.20204e-02   6.31938e-04 DIIS/ADIIS
   @DF-RHF iter   3:   -76.05874837623922   -3.21787e-02   4.30664e-05 DIIS
   @DF-RHF iter   4:   -76.05915840017298   -4.10024e-04   1.05954e-05 DIIS
   @DF-RHF iter   5:   -76.05918556154111   -2.71614e-05   2.42972e-06 DIIS
   @DF-RHF iter   6:   -76.05918783826382   -2.27672e-06   5.40500e-07 DIIS
   @DF-RHF iter   7:   -76.05918796227147   -1.24008e-07   9.96797e-08 DIIS
   @DF-RHF iter   8:   -76.05918796596563   -3.69417e-09   1.68840e-08 DIIS
   @DF-RHF iter   9:   -76.05918796605090   -8.52651e-11   4.32190e-09 DIIS
  Energy and wave function converged.


  ==> Post-Iterations <==

    Orbital Energies [Eh]
    ---------------------

    Doubly Occupied:                                                      

       1A    -20.568435     2A     -1.344414     3A     -0.714732  
       4A     -0.577032     5A     -0.508359  

    Virtual:                                                              

       6A      0.016140     7A      0.029664     8A      0.040079  
       9A      0.043863    10A      0.054853    11A      0.057664  
      12A      0.063636    13A      0.069732    14A      0.078275  
      15A      0.083107    16A      0.099751    17A      0.111554  
      18A      0.121128    19A      0.128738    20A      0.132156  
      21A      0.136931    22A      0.147828    23A      0.149351  
      24A      0.154447    25A      0.162838    26A      0.169455  
      27A      0.174451    28A      0.176703    29A      0.185851  
      30A      0.192789    31A      0.195713    32A      0.197613  
      33A      0.205673    34A      0.220715    35A      0.226337  
      36A      0.239378    37A      0.241198    38A      0.253213  
      39A      0.260514    40A      0.271751    41A      0.273408  
      42A      0.276146    43A      0.287997    44A      0.301184  
      45A      0.311473    46A      0.321028    47A      0.323488  
      48A      0.328365    49A      0.337971    50A      0.339779  
      51A      0.352407    52A      0.357578    53A      0.363662  
      54A      0.368394    55A      0.370917    56A      0.380120  
      57A      0.382612    58A      0.392388    59A      0.397768  
      60A      0.399814    61A      0.405178    62A      0.412803  
      63A      0.422155    64A      0.435415    65A      0.442660  
      66A      0.453562    67A      0.457137    68A      0.463046  
      69A      0.474213    70A      0.476719    71A      0.488727  
      72A      0.493997    73A      0.496278    74A      0.503840  
      75A      0.518562    76A      0.533149    77A      0.539754  
      78A      0.563195    79A      0.583884    80A      0.589400  
      81A      0.601770    82A      0.620728    83A      0.641147  
      84A      0.642634    85A      0.665408    86A      0.672532  
      87A      0.678276    88A      0.686263    89A      0.695946  
      90A      0.696633    91A      0.707868    92A      0.727623  
      93A      0.731497    94A      0.745995    95A      0.753392  
      96A      0.763871    97A      0.768431    98A      0.770465  
      99A      0.779004   100A      0.784022   101A      0.791054  
     102A      0.811503   103A      0.812951   104A      0.817431  
     105A      0.821442   106A      0.826879   107A      0.834303  
     108A      0.847213   109A      0.853150   110A      0.856203  
     111A      0.862058   112A      0.873327   113A      0.878522  
     114A      0.885524   115A      0.893007   116A      0.902632  
     117A      0.905683   118A      0.911773   119A      0.918069  
     120A      0.931234   121A      0.936758   122A      0.942575  
     123A      0.952277   124A      0.953675   125A      0.961030  
     126A      0.966777   127A      0.969028   128A      0.976227  
     129A      0.982932   130A      0.991573   131A      1.000868  
     132A      1.008625   133A      1.015838   134A      1.021651  
     135A      1.026328   136A      1.035250   137A      1.046620  
     138A      1.049853   139A      1.061521   140A      1.072353  
     141A      1.079221   142A      1.081125   143A      1.086986  
     144A      1.102576   145A      1.112202   146A      1.116273  
     147A      1.122125   148A      1.131509   149A      1.139514  
     150A      1.150171   151A      1.161582   152A      1.172640  
     153A      1.178362   154A      1.191992   155A      1.207751  
     156A      1.216097   157A      1.229316   158A      1.237766  
     159A      1.249545   160A      1.259330   161A      1.270739  
     162A      1.272907   163A      1.290342   164A      1.306155  
     165A      1.313283   166A      1.318995   167A      1.339906  
     168A      1.344165   169A      1.354129   170A      1.371907  
     171A      1.382583   172A      1.391785   173A      1.398905  
     174A      1.418872   175A      1.428469   176A      1.451468  
     177A      1.451926   178A      1.461799   179A      1.483148  
     180A      1.489978   181A      1.500638   182A      1.513997  
     183A      1.518553   184A      1.529422   185A      1.540770  
     186A      1.554461   187A      1.560837   188A      1.569679  
     189A      1.587331   190A      1.603609   191A      1.621912  
     192A      1.625362   193A      1.647981   194A      1.673560  
     195A      1.675459   196A      1.693935   197A      1.712037  
     198A      1.726336   199A      1.740231   200A      1.743046  
     201A      1.755464   202A      1.761802   203A      1.769085  
     204A      1.780268   205A      1.788778   206A      1.796643  
     207A      1.800741   208A      1.815840   209A      1.818943  
     210A      1.843960   211A      1.859625   212A      1.869773  
     213A      1.876055   214A      1.885989   215A      1.895672  
     216A      1.907877   217A      1.915113   218A      1.927521  
     219A      1.939935   220A      1.963373   221A      1.973593  
     222A      1.991021   223A      1.992640   224A      2.002725  
     225A      2.028627   226A      2.037738   227A      2.054037  
     228A      2.079284   229A      2.105306   230A      2.117984  
     231A      2.139876   232A      2.159767   233A      2.180659  
     234A      2.192905   235A      2.221468   236A      2.241482  
     237A      2.305842   238A      2.350206   239A      2.384600  
     240A      2.448041   241A      2.458139   242A      2.474584  
     243A      2.478164   244A      2.488582   245A      2.520181  
     246A      2.529600   247A      2.532597   248A      2.548337  
     249A      2.559230   250A      2.564075   251A      2.576924  
     252A      2.581728   253A      2.605143   254A      2.622801  
     255A      2.627408   256A      2.637443   257A      2.642302  
     258A      2.659939   259A      2.663218   260A      2.670553  
     261A      2.679432   262A      2.686213   263A      2.708881  
     264A      2.714742   265A      2.744390   266A      2.750226  
     267A      2.763102   268A      2.775548   269A      2.783238  
     270A      2.799037   271A      2.803517   272A      2.828689  
     273A      2.833289   274A      2.856186   275A      2.885613  
     276A      2.905442   277A      2.935045   278A      2.952827  
     279A      2.975189   280A      2.992366   281A      3.004067  
     282A      3.015743   283A      3.046477   284A      3.057285  
     285A      3.090892   286A      3.100634   287A      3.145686  
     288A      3.189952   289A      3.195424   290A      3.200355  
     291A      3.210133   292A      3.230225   293A      3.265979  
     294A      3.284705   295A      3.293207   296A      3.320240  
     297A      3.346136   298A      3.351493   299A      3.400232  
     300A      3.406323   301A      3.423219   302A      3.437007  
     303A      3.470116   304A      3.484463   305A      3.490645  
     306A      3.530658   307A      3.578607   308A      3.593616  
     309A      3.615925   310A      3.650351   311A      3.717419  
     312A      3.788249   313A      3.805413   314A      3.813964  
     315A      3.855751   316A      3.861476   317A      4.020244  
     318A      4.088909   319A      4.113172   320A      4.137588  
     321A      4.168075   322A      4.214425   323A      4.240166  
     324A      4.288754   325A      4.319312   326A      4.327107  
     327A      4.359428   328A      4.364791   329A      4.394985  
     330A      4.408196   331A      4.415762   332A      4.425930  
     333A      4.441283   334A      4.459620   335A      4.467657  
     336A      4.478544   337A      4.489041   338A      4.497007  
     339A      4.507791   340A      4.516761   341A      4.527749  
     342A      4.542279   343A      4.570409   344A      4.585530  
     345A      4.605288   346A      4.613991   347A      4.624815  
     348A      4.628487   349A      4.635568   350A      4.660384  
     351A      4.680255   352A      4.685574   353A      4.703428  
     354A      4.719465   355A      4.741925   356A      4.759487  
     357A      4.767405   358A      4.782321   359A      4.807570  
     360A      4.835018   361A      4.854002   362A      4.886898  
     363A      4.894781   364A      4.909582   365A      4.941377  
     366A      4.949820   367A      4.958350   368A      4.973398  
     369A      5.001742   370A      5.004340   371A      5.023862  
     372A      5.052946   373A      5.074602   374A      5.090191  
     375A      5.105071   376A      5.119590   377A      5.144086  
     378A      5.171056   379A      5.202008   380A      5.246166  
     381A      5.275321   382A      5.283527   383A      5.317220  
     384A      5.328738   385A      5.342838   386A      5.378266  
     387A      5.438692   388A      5.455544   389A      5.471583  
     390A      5.505690   391A      5.522265   392A      5.527446  
     393A      5.544522   394A      5.562769   395A      5.594631  
     396A      5.611380   397A      5.621485   398A      5.658626  
     399A      5.662228   400A      5.684066   401A      5.730021  
     402A      5.811774   403A      5.857345   404A      5.870885  
     405A      5.877502   406A      5.894422   407A      6.138619  
     408A      6.185617   409A      6.203787   410A      6.237162  
     411A      6.296501   412A      6.387869   413A      6.423780  
     414A      6.431067   415A      6.454007   416A      6.591649  
     417A      6.630542   418A      6.654193   419A      6.712605  
     420A      6.740222   421A      6.839819   422A      6.987564  
     423A      7.009310   424A      7.051720   425A      7.073856  
     426A      7.096211   427A      7.182543   428A      7.328254  
     429A      7.351963   430A      7.418938   431A      7.476390  
     432A      7.505204   433A      7.713972   434A      7.748358  
     435A      7.774066   436A      7.798130   437A      7.815552  
     438A      7.827242   439A      7.840459   440A      7.866814  
     441A      7.889574   442A      7.967512   443A      8.027997  
     444A      8.061080   445A      8.068129   446A      8.142315  
     447A      8.164900   448A      8.188065   449A      8.238709  
     450A      8.250013   451A      8.267560   452A      8.282415  
     453A      8.285791   454A      8.294009   455A      8.331504  
     456A      8.701971   457A      8.722656   458A      8.758895  
     459A      8.780816   460A      8.794688   461A      8.822028  
     462A      8.897487   463A      8.918173   464A      8.971878  
     465A      9.671665   466A      9.681721   467A      9.783959  
     468A      9.812774   469A      9.858161   470A      9.882661  
     471A      9.920920   472A      9.969424   473A     10.055100  
     474A     10.067011   475A     10.098525   476A     10.145390  
     477A     10.276816   478A     10.311265   479A     10.359645  
     480A     10.381461   481A     11.052264   482A     11.100533  
     483A     11.116593   484A     11.199149   485A     11.671670  
     486A     11.716159   487A     11.788329   488A     11.833786  
     489A     11.937991   490A     12.034551   491A     12.073370  
     492A     12.123192   493A     13.495753   494A     13.552180  
     495A     13.568884   496A     13.595446   497A     13.926019  
     498A     13.978079   499A     13.996769   500A     14.018964  
     501A     16.033818   502A     16.882125   503A     28.221113  
     504A     28.309936   505A     28.462547   506A     64.459278  
     507A     65.302982   508A     65.721163   509A     65.919177  
     510A    160.996775  

    Final Occupation by Irrep:
              A 
    DOCC [     5 ]
    NA   [     5 ]
    NB   [     5 ]

  @DF-RHF Final Energy:   -76.05918796605090

   => Energetics <=

    Nuclear Repulsion Energy =              9.0523742872954767
    One-Electron Energy =                -122.7971767809837900
    Two-Electron Energy =                  37.6856145276373979
    Total Energy =                        -76.0591879660509136

Computation Completed


Properties will be evaluated at   0.000000,   0.000000,   0.000000 [a0]

Properties computed using the SCF density matrix


 Multipole Moments:

 ------------------------------------------------------------------------------------
     Multipole            Electronic (a.u.)      Nuclear  (a.u.)        Total (a.u.)
 ------------------------------------------------------------------------------------

 L = 1.  Multiply by 2.5417464519 to convert [e a0] to [Debye]
 Dipole X            :         13.0762319          -12.6343423            0.4418896
 Dipole Y            :         -6.1488322            6.5634478            0.4146156
 Dipole Z            :         59.7133375          -59.2428838            0.4704537
 Magnitude           :                                                    0.7671370

 ------------------------------------------------------------------------------------

*** tstop() called on ddmfs1 at Mon Jan 22 21:16:40 2024
Module time:
	user time   =      92.66 seconds =       1.54 minutes
	system time =       4.66 seconds =       0.08 minutes
	total time  =          6 seconds =       0.10 minutes
Total time:
	user time   =      92.66 seconds =       1.54 minutes
	system time =       4.66 seconds =       0.08 minutes
	total time  =          6 seconds =       0.10 minutes

*** tstart() called on ddmfs1
*** at Mon Jan 22 21:16:40 2024


  //>>>>>>>>>>>>>>>>>>>>>>>>>>>>>>>>>>>//
  //               DFMP2               //
  //<<<<<<<<<<<<<<<<<<<<<<<<<<<<<<<<<<<//

   => Loading Basis Set <=

    Name: (AUG-CC-PVTZ AUX)
    Role: RIFIT
    Keyword: DF_BASIS_MP2
    atoms 1                            entry CL         line   742 file /ddmfs1b/softs/psi4conda/share/psi4/basis/aug-cc-pvtz-ri.gbs 
    atoms 2, 5, 8, 11, 14              entry O          line   264 file /ddmfs1b/softs/psi4conda/share/psi4/basis/aug-cc-pvtz-ri.gbs 
    atoms 3-4, 6-7, 9-10, 12-13, 15-16 entry H          line    30 file /ddmfs1b/softs/psi4conda/share/psi4/basis/aug-cc-pvtz-ri.gbs 

	 --------------------------------------------------------
	                          DF-MP2                         
	      2nd-Order Density-Fitted Moller-Plesset Theory     
	              RMP2 Wavefunction,  20 Threads             
	                                                         
	        Rob Parrish, Justin Turney, Andy Simmonett,      
	           Ed Hohenstein, and C. David Sherrill          
	 --------------------------------------------------------

   => Auxiliary Basis Set <=

  Basis Set: (AUG-CC-PVTZ AUX)
    Blend: AUG-CC-PVTZ-RI
    Number of shells: 317
    Number of basis functions: 1137
    Number of Cartesian functions: 1421
    Spherical Harmonics?: true
    Max angular momentum: 4

	 --------------------------------------------------------
	                 NBF =   510, NAUX =  1137
	 --------------------------------------------------------
	   CLASS    FOCC     OCC    AOCC    AVIR     VIR    FVIR
	   PAIRS       0       5       5     505     505       0
	 --------------------------------------------------------

	-----------------------------------------------------------
	 ==================> DF-MP2 Energies <==================== 
	-----------------------------------------------------------
	 Reference Energy          =     -76.0591879660508994 [Eh]
	 Singles Energy            =      -0.0000000000000000 [Eh]
	 Same-Spin Energy          =      -0.0686228513003612 [Eh]
	 Opposite-Spin Energy      =      -0.2167705037018278 [Eh]
	 Correlation Energy        =      -0.2853933550021890 [Eh]
	 Total Energy              =     -76.3445813210530844 [Eh]
	-----------------------------------------------------------
	 ================> DF-SCS-MP2 Energies <================== 
	-----------------------------------------------------------
	 SCS Same-Spin Scale       =       0.3333333333333333 [-]
	 SCS Opposite-Spin Scale   =       1.2000000000000000 [-]
	 SCS Same-Spin Energy      =      -0.0228742837667871 [Eh]
	 SCS Opposite-Spin Energy  =      -0.2601246044421934 [Eh]
	 SCS Correlation Energy    =      -0.2829988882089804 [Eh]
	 SCS Total Energy          =     -76.3421868542598787 [Eh]
	-----------------------------------------------------------


*** tstop() called on ddmfs1 at Mon Jan 22 21:16:45 2024
Module time:
	user time   =      26.77 seconds =       0.45 minutes
	system time =       1.63 seconds =       0.03 minutes
	total time  =          5 seconds =       0.08 minutes
Total time:
	user time   =     119.45 seconds =       1.99 minutes
	system time =       6.29 seconds =       0.10 minutes
	total time  =         11 seconds =       0.18 minutes

    Psi4 stopped on: Monday, 22 January 2024 09:16PM
    Psi4 wall time for execution: 0:00:11.06

*** Psi4 exiting successfully. Buy a developer a beer!
