
    -----------------------------------------------------------------------
          Psi4: An Open-Source Ab Initio Electronic Structure Package
                               Psi4 1.8.2 release

                         Git: Rev {} zzzzzzz 


    D. G. A. Smith, L. A. Burns, A. C. Simmonett, R. M. Parrish,
    M. C. Schieber, R. Galvelis, P. Kraus, H. Kruse, R. Di Remigio,
    A. Alenaizan, A. M. James, S. Lehtola, J. P. Misiewicz, M. Scheurer,
    R. A. Shaw, J. B. Schriber, Y. Xie, Z. L. Glick, D. A. Sirianni,
    J. S. O'Brien, J. M. Waldrop, A. Kumar, E. G. Hohenstein,
    B. P. Pritchard, B. R. Brooks, H. F. Schaefer III, A. Yu. Sokolov,
    K. Patkowski, A. E. DePrince III, U. Bozkaya, R. A. King,
    F. A. Evangelista, J. M. Turney, T. D. Crawford, C. D. Sherrill,
    J. Chem. Phys. 152(18) 184108 (2020). https://doi.org/10.1063/5.0006002

                            Additional Code Authors
    E. T. Seidl, C. L. Janssen, E. F. Valeev, M. L. Leininger,
    J. F. Gonthier, R. M. Richard, H. R. McAlexander, M. Saitow, X. Wang,
    P. Verma, M. H. Lechner, A. Jiang, S. Behnle, A. G. Heide,
    M. F. Herbst, and D. L. Poole

             Previous Authors, Complete List of Code Contributors,
                       and Citations for Specific Modules
    https://github.com/psi4/psi4/blob/master/codemeta.json
    https://github.com/psi4/psi4/graphs/contributors
    http://psicode.org/psi4manual/master/introduction.html#citing-psifour

    -----------------------------------------------------------------------


    Psi4 started on: Monday, 22 January 2024 08:35PM

    Process ID: 104275
    Host:       ddmfs1
    PSIDATADIR: /ddmfs1b/softs/psi4conda/share/psi4
    Memory:     500.0 MiB
    Threads:    20
    
  ==> Input File <==

--------------------------------------------------------------------------
MEMORY 60 GB

molecule dimer {
0 1
Gh(Cl)     0.000000     0.000000     0.000000
Gh(O)      3.015981     0.151241    -1.457305
Gh(H)      2.845971    -0.567435    -2.049500
Gh(H)      2.230828     0.149298    -0.843213
O         -2.797673    -0.644207    -1.757639
H         -2.491546    -1.380346    -2.302014
H         -2.015250    -0.495737    -1.259297
Gh(O)     -0.715759     3.330850    -0.769336
Gh(H)      0.052831     3.505661    -0.203645
Gh(H)     -0.556393     2.470762    -1.223557
Gh(O)      0.652205     0.435816    -3.215109
Gh(H)      1.085218     1.200515    -2.995505
Gh(H)      0.387193     0.144769    -2.312401
Gh(O)      1.503331     1.130459     2.879779
Gh(H)      1.109970     0.660961     2.083685
Gh(H)      1.604155     0.401707     3.533176
Gh(O)      0.517922    -3.056007    -0.636675
Gh(H)     -0.210470    -3.438063    -1.173663
Gh(H)      0.434987    -2.108656    -0.643081

units ang
no_reorient
no_com
symmetry c1
}

set {
basis        aug-cc-pVTZ
scf_type     df
}

energy("mp2")
--------------------------------------------------------------------------

  Memory set to  55.879 GiB by Python driver.

Scratch directory: /ddmfs1a/scratch/
   => Libint2 <=

    Primary   basis highest AM E, G, H:  5, 4, 3
    Auxiliary basis highest AM E, G, H:  6, 5, 4
    Onebody   basis highest AM E, G, H:  6, 5, 4
    Solid Harmonics ordering:            gaussian

*** tstart() called on ddmfs1
*** at Mon Jan 22 20:35:26 2024

   => Loading Basis Set <=

    Name: AUG-CC-PVTZ
    Role: ORBITAL
    Keyword: BASIS
    atoms 1                                   entry CL         line   988 file /ddmfs1b/softs/psi4conda/share/psi4/basis/aug-cc-pvtz.gbs 
    atoms 2, 5, 8, 11, 14, 17                 entry O          line   331 file /ddmfs1b/softs/psi4conda/share/psi4/basis/aug-cc-pvtz.gbs 
    atoms 3-4, 6-7, 9-10, 12-13, 15-16, 18-19 entry H          line    40 file /ddmfs1b/softs/psi4conda/share/psi4/basis/aug-cc-pvtz.gbs 


         ---------------------------------------------------------
                                   SCF
               by Justin Turney, Rob Parrish, Andy Simmonett
                          and Daniel G. A. Smith
                              RHF Reference
                       20 Threads,  57220 MiB Core
         ---------------------------------------------------------

  ==> Geometry <==

    Molecular point group: c1
    Full point group: C1

    Geometry (in Angstrom), charge = 0, multiplicity = 1:

       Center              X                  Y                   Z               Mass       
    ------------   -----------------  -----------------  -----------------  -----------------
      Gh(CL)          0.000000000000     0.000000000000     0.000000000000    34.968852682000
      Gh(O)           3.015981000000     0.151241000000    -1.457305000000    15.994914619570
      Gh(H)           2.845971000000    -0.567435000000    -2.049500000000     1.007825032230
      Gh(H)           2.230828000000     0.149298000000    -0.843213000000     1.007825032230
         O           -2.797673000000    -0.644207000000    -1.757639000000    15.994914619570
         H           -2.491546000000    -1.380346000000    -2.302014000000     1.007825032230
         H           -2.015250000000    -0.495737000000    -1.259297000000     1.007825032230
      Gh(O)          -0.715759000000     3.330850000000    -0.769336000000    15.994914619570
      Gh(H)           0.052831000000     3.505661000000    -0.203645000000     1.007825032230
      Gh(H)          -0.556393000000     2.470762000000    -1.223557000000     1.007825032230
      Gh(O)           0.652205000000     0.435816000000    -3.215109000000    15.994914619570
      Gh(H)           1.085218000000     1.200515000000    -2.995505000000     1.007825032230
      Gh(H)           0.387193000000     0.144769000000    -2.312401000000     1.007825032230
      Gh(O)           1.503331000000     1.130459000000     2.879779000000    15.994914619570
      Gh(H)           1.109970000000     0.660961000000     2.083685000000     1.007825032230
      Gh(H)           1.604155000000     0.401707000000     3.533176000000     1.007825032230
      Gh(O)           0.517922000000    -3.056007000000    -0.636675000000    15.994914619570
      Gh(H)          -0.210470000000    -3.438063000000    -1.173663000000     1.007825032230
      Gh(H)           0.434987000000    -2.108656000000    -0.643081000000     1.007825032230

  Running in c1 symmetry.

  Rotational constants: A =      0.02375  B =      0.02066  C =      0.01945 [cm^-1]
  Rotational constants: A =    711.94354  B =    619.47865  C =    583.13330 [MHz]
  Nuclear repulsion =    9.256946435653338

  Charge       = 0
  Multiplicity = 1
  Electrons    = 10
  Nalpha       = 5
  Nbeta        = 5

  ==> Algorithm <==

  SCF Algorithm Type is DF.
  DIIS enabled.
  MOM disabled.
  Fractional occupation disabled.
  Guess Type is SAD.
  Energy threshold   = 1.00e-08
  Density threshold  = 1.00e-08
  Integral threshold = 1.00e-12

  ==> Primary Basis <==

  Basis Set: AUG-CC-PVTZ
    Blend: AUG-CC-PVTZ
    Number of shells: 208
    Number of basis functions: 602
    Number of Cartesian functions: 689
    Spherical Harmonics?: true
    Max angular momentum: 3

   => Loading Basis Set <=

    Name: (AUG-CC-PVTZ AUX)
    Role: JKFIT
    Keyword: DF_BASIS_SCF
    atoms 1                                   entry CL         line   816 file /ddmfs1b/softs/psi4conda/share/psi4/basis/aug-cc-pvtz-jkfit.gbs 
    atoms 2, 5, 8, 11, 14, 17                 entry O          line   286 file /ddmfs1b/softs/psi4conda/share/psi4/basis/aug-cc-pvtz-jkfit.gbs 
    atoms 3-4, 6-7, 9-10, 12-13, 15-16, 18-19 entry H          line    70 file /ddmfs1b/softs/psi4conda/share/psi4/basis/aug-cc-pvtz-jkfit.gbs 

  ==> Integral Setup <==

  DFHelper Memory: AOs need 3.172 GiB; user supplied 41.910 GiB. 
  Using in-core AOs.

  ==> MemDFJK: Density-Fitted J/K Matrices <==

    J tasked:                   Yes
    K tasked:                   Yes
    wK tasked:                   No
    OpenMP threads:              20
    Memory [MiB]:             42915
    Algorithm:                 Core
    Schwarz Cutoff:           1E-12
    Mask sparsity (%):      15.0484
    Fitting Condition:        1E-10

   => Auxiliary Basis Set <=

  Basis Set: (AUG-CC-PVTZ AUX)
    Blend: AUG-CC-PVTZ-JKFIT
    Number of shells: 390
    Number of basis functions: 1322
    Number of Cartesian functions: 1626
    Spherical Harmonics?: true
    Max angular momentum: 4

  Minimum eigenvalue in the overlap matrix is 9.9647318184E-05.
  Reciprocal condition number of the overlap matrix is 7.0707148313E-06.
    Using symmetric orthogonalization.

  ==> Pre-Iterations <==

  SCF Guess: Superposition of Atomic Densities via on-the-fly atomic UHF (no occupation information).

   -------------------------
    Irrep   Nso     Nmo    
   -------------------------
     A        602     602 
   -------------------------
    Total     602     602
   -------------------------

  ==> Iterations <==

                           Total Energy        Delta E     RMS |[F,P]|

   @DF-RHF iter SAD:   -75.48943996266237   -7.54894e+01   0.00000e+00 
   @DF-RHF iter   1:   -75.97454245466682   -4.85102e-01   7.80367e-04 DIIS/ADIIS
   @DF-RHF iter   2:   -76.02751232548286   -5.29699e-02   5.30844e-04 DIIS/ADIIS
   @DF-RHF iter   3:   -76.05893675899412   -3.14244e-02   3.58774e-05 DIIS
   @DF-RHF iter   4:   -76.05931255888909   -3.75800e-04   8.49936e-06 DIIS
   @DF-RHF iter   5:   -76.05933584881230   -2.32899e-05   1.95971e-06 DIIS
   @DF-RHF iter   6:   -76.05933778100565   -1.93219e-06   4.22707e-07 DIIS
   @DF-RHF iter   7:   -76.05933787882550   -9.78198e-08   7.22704e-08 DIIS
   @DF-RHF iter   8:   -76.05933788131721   -2.49170e-09   1.18715e-08 DIIS
   @DF-RHF iter   9:   -76.05933788136753   -5.03206e-11   2.70895e-09 DIIS
  Energy and wave function converged.


  ==> Post-Iterations <==

    Orbital Energies [Eh]
    ---------------------

    Doubly Occupied:                                                      

       1A    -20.568551     2A     -1.360418     3A     -0.709161  
       4A     -0.596777     5A     -0.512333  

    Virtual:                                                              

       6A      0.013431     7A      0.028953     8A      0.033862  
       9A      0.039516    10A      0.050881    11A      0.053795  
      12A      0.059128    13A      0.062660    14A      0.067056  
      15A      0.068562    16A      0.077098    17A      0.086738  
      18A      0.101506    19A      0.117111    20A      0.120120  
      21A      0.125830    22A      0.131379    23A      0.136690  
      24A      0.143379    25A      0.145413    26A      0.150734  
      27A      0.153840    28A      0.161198    29A      0.162680  
      30A      0.169848    31A      0.177578    32A      0.180317  
      33A      0.188642    34A      0.192094    35A      0.197357  
      36A      0.199663    37A      0.204408    38A      0.207113  
      39A      0.216473    40A      0.226620    41A      0.232466  
      42A      0.235965    43A      0.240611    44A      0.244969  
      45A      0.257624    46A      0.267643    47A      0.272087  
      48A      0.281158    49A      0.285948    50A      0.294864  
      51A      0.297730    52A      0.301145    53A      0.309955  
      54A      0.318804    55A      0.321492    56A      0.324853  
      57A      0.330592    58A      0.335476    59A      0.341912  
      60A      0.346890    61A      0.347939    62A      0.355745  
      63A      0.358889    64A      0.372096    65A      0.373509  
      66A      0.383466    67A      0.384548    68A      0.387311  
      69A      0.398736    70A      0.406746    71A      0.408448  
      72A      0.414070    73A      0.419651    74A      0.426904  
      75A      0.432029    76A      0.437856    77A      0.443034  
      78A      0.453645    79A      0.455245    80A      0.464240  
      81A      0.471957    82A      0.480545    83A      0.487683  
      84A      0.499652    85A      0.503974    86A      0.508784  
      87A      0.518633    88A      0.534453    89A      0.539107  
      90A      0.544060    91A      0.564109    92A      0.580591  
      93A      0.598976    94A      0.609015    95A      0.622089  
      96A      0.627147    97A      0.643718    98A      0.659121  
      99A      0.665550   100A      0.673664   101A      0.676350  
     102A      0.694274   103A      0.697766   104A      0.705595  
     105A      0.712543   106A      0.714121   107A      0.723433  
     108A      0.732430   109A      0.749790   110A      0.752687  
     111A      0.758183   112A      0.765409   113A      0.778147  
     114A      0.783922   115A      0.788912   116A      0.791524  
     117A      0.792081   118A      0.797088   119A      0.800158  
     120A      0.807392   121A      0.814191   122A      0.817929  
     123A      0.820568   124A      0.824231   125A      0.830155  
     126A      0.837778   127A      0.839968   128A      0.850297  
     129A      0.852865   130A      0.856304   131A      0.861169  
     132A      0.872444   133A      0.874526   134A      0.881984  
     135A      0.889948   136A      0.895830   137A      0.906233  
     138A      0.909097   139A      0.912524   140A      0.918879  
     141A      0.926513   142A      0.934822   143A      0.940657  
     144A      0.945658   145A      0.953635   146A      0.958426  
     147A      0.960892   148A      0.969226   149A      0.977035  
     150A      0.979012   151A      0.983903   152A      0.989535  
     153A      1.004550   154A      1.008912   155A      1.011473  
     156A      1.014392   157A      1.015145   158A      1.017917  
     159A      1.028372   160A      1.032047   161A      1.038134  
     162A      1.046680   163A      1.048877   164A      1.058710  
     165A      1.061943   166A      1.075000   167A      1.078333  
     168A      1.083795   169A      1.090855   170A      1.099649  
     171A      1.102711   172A      1.109048   173A      1.116734  
     174A      1.127541   175A      1.133477   176A      1.141419  
     177A      1.149382   178A      1.159834   179A      1.168140  
     180A      1.180528   181A      1.194858   182A      1.198853  
     183A      1.206707   184A      1.215050   185A      1.231330  
     186A      1.232470   187A      1.238210   188A      1.246266  
     189A      1.254658   190A      1.259029   191A      1.265660  
     192A      1.270923   193A      1.278030   194A      1.298724  
     195A      1.309351   196A      1.321456   197A      1.324134  
     198A      1.339995   199A      1.352289   200A      1.361061  
     201A      1.373300   202A      1.375024   203A      1.392992  
     204A      1.396680   205A      1.404261   206A      1.408239  
     207A      1.422683   208A      1.427533   209A      1.437582  
     210A      1.448522   211A      1.461453   212A      1.469444  
     213A      1.475861   214A      1.492453   215A      1.501850  
     216A      1.515781   217A      1.533725   218A      1.545815  
     219A      1.551394   220A      1.556448   221A      1.562087  
     222A      1.588844   223A      1.597454   224A      1.614501  
     225A      1.619199   226A      1.633725   227A      1.651389  
     228A      1.661213   229A      1.678301   230A      1.689359  
     231A      1.701930   232A      1.712572   233A      1.715494  
     234A      1.723511   235A      1.736858   236A      1.745478  
     237A      1.756015   238A      1.759622   239A      1.770618  
     240A      1.782373   241A      1.791732   242A      1.797218  
     243A      1.804236   244A      1.826727   245A      1.841781  
     246A      1.844815   247A      1.854878   248A      1.863366  
     249A      1.877805   250A      1.890339   251A      1.893457  
     252A      1.904627   253A      1.914279   254A      1.925822  
     255A      1.927399   256A      1.947166   257A      1.953830  
     258A      1.972545   259A      1.982484   260A      1.993555  
     261A      1.999366   262A      2.020155   263A      2.028167  
     264A      2.042251   265A      2.056255   266A      2.076643  
     267A      2.078443   268A      2.099761   269A      2.113884  
     270A      2.125062   271A      2.142175   272A      2.154062  
     273A      2.166677   274A      2.177156   275A      2.225796  
     276A      2.246816   277A      2.263501   278A      2.276320  
     279A      2.296309   280A      2.377762   281A      2.420732  
     282A      2.443990   283A      2.455099   284A      2.464281  
     285A      2.468418   286A      2.475211   287A      2.484595  
     288A      2.499364   289A      2.511338   290A      2.522897  
     291A      2.535447   292A      2.542710   293A      2.545356  
     294A      2.556794   295A      2.570422   296A      2.578905  
     297A      2.587156   298A      2.597070   299A      2.604064  
     300A      2.618849   301A      2.633587   302A      2.651549  
     303A      2.658153   304A      2.663274   305A      2.673702  
     306A      2.680537   307A      2.686779   308A      2.697646  
     309A      2.710401   310A      2.713893   311A      2.723371  
     312A      2.732626   313A      2.741206   314A      2.750712  
     315A      2.759678   316A      2.765852   317A      2.779149  
     318A      2.795537   319A      2.797738   320A      2.816350  
     321A      2.824874   322A      2.849850   323A      2.862609  
     324A      2.890810   325A      2.900965   326A      2.902445  
     327A      2.911713   328A      2.952369   329A      2.964723  
     330A      2.979723   331A      2.999688   332A      3.008208  
     333A      3.022013   334A      3.037877   335A      3.062902  
     336A      3.078309   337A      3.093327   338A      3.160303  
     339A      3.169306   340A      3.193651   341A      3.202817  
     342A      3.210742   343A      3.220494   344A      3.235209  
     345A      3.246295   346A      3.279164   347A      3.304795  
     348A      3.323409   349A      3.335810   350A      3.347005  
     351A      3.359737   352A      3.363447   353A      3.393135  
     354A      3.419744   355A      3.428574   356A      3.435179  
     357A      3.472235   358A      3.475552   359A      3.503735  
     360A      3.516620   361A      3.572803   362A      3.587773  
     363A      3.601118   364A      3.628362   365A      3.671991  
     366A      3.698601   367A      3.727079   368A      3.771587  
     369A      3.783417   370A      3.819139   371A      3.820037  
     372A      3.849163   373A      3.875172   374A      3.985173  
     375A      4.126814   376A      4.134023   377A      4.165454  
     378A      4.184627   379A      4.268026   380A      4.286398  
     381A      4.302236   382A      4.313769   383A      4.335244  
     384A      4.349815   385A      4.359452   386A      4.379013  
     387A      4.387249   388A      4.407290   389A      4.417833  
     390A      4.432138   391A      4.445851   392A      4.452436  
     393A      4.455661   394A      4.463143   395A      4.473052  
     396A      4.483028   397A      4.492705   398A      4.497710  
     399A      4.516380   400A      4.521416   401A      4.527710  
     402A      4.536970   403A      4.551301   404A      4.562524  
     405A      4.591840   406A      4.605537   407A      4.617932  
     408A      4.625413   409A      4.641382   410A      4.647015  
     411A      4.653231   412A      4.665888   413A      4.678623  
     414A      4.690365   415A      4.711483   416A      4.737803  
     417A      4.748206   418A      4.773815   419A      4.792985  
     420A      4.812750   421A      4.825346   422A      4.838372  
     423A      4.840968   424A      4.861749   425A      4.871975  
     426A      4.881427   427A      4.888486   428A      4.902395  
     429A      4.910628   430A      4.916736   431A      4.927263  
     432A      4.959671   433A      4.975003   434A      4.981723  
     435A      4.998165   436A      5.011782   437A      5.051429  
     438A      5.056869   439A      5.091021   440A      5.105610  
     441A      5.150597   442A      5.165226   443A      5.190226  
     444A      5.204198   445A      5.227493   446A      5.241893  
     447A      5.247981   448A      5.286470   449A      5.299301  
     450A      5.308436   451A      5.320098   452A      5.337053  
     453A      5.397474   454A      5.439335   455A      5.457502  
     456A      5.461582   457A      5.493900   458A      5.512205  
     459A      5.528532   460A      5.550994   461A      5.557532  
     462A      5.566774   463A      5.570878   464A      5.595495  
     465A      5.606495   466A      5.629989   467A      5.661527  
     468A      5.707439   469A      5.710305   470A      5.728731  
     471A      5.733171   472A      5.802010   473A      5.837474  
     474A      5.848581   475A      5.883781   476A      5.935290  
     477A      6.045791   478A      6.134594   479A      6.144233  
     480A      6.180909   481A      6.183610   482A      6.210580  
     483A      6.331981   484A      6.343840   485A      6.349564  
     486A      6.408526   487A      6.457951   488A      6.511820  
     489A      6.539748   490A      6.541549   491A      6.656284  
     492A      6.663040   493A      6.767130   494A      6.803095  
     495A      6.832904   496A      6.942063   497A      7.028679  
     498A      7.071129   499A      7.096656   500A      7.125028  
     501A      7.179051   502A      7.256053   503A      7.303081  
     504A      7.324595   505A      7.381524   506A      7.457136  
     507A      7.492128   508A      7.677439   509A      7.714391  
     510A      7.734558   511A      7.755086   512A      7.774186  
     513A      7.804089   514A      7.809321   515A      7.815585  
     516A      7.849566   517A      7.895008   518A      7.935147  
     519A      7.997962   520A      8.005602   521A      8.073512  
     522A      8.088276   523A      8.096712   524A      8.099472  
     525A      8.141821   526A      8.191678   527A      8.222263  
     528A      8.228486   529A      8.233107   530A      8.256541  
     531A      8.264003   532A      8.279471   533A      8.293530  
     534A      8.323430   535A      8.421162   536A      8.659436  
     537A      8.720957   538A      8.767177   539A      8.794363  
     540A      8.807398   541A      8.862491   542A      8.889718  
     543A      8.927633   544A      8.998651   545A      9.044275  
     546A      9.074368   547A      9.639355   548A      9.697320  
     549A      9.756591   550A      9.781810   551A      9.849046  
     552A      9.853138   553A      9.871476   554A      9.884774  
     555A      9.926728   556A      9.984997   557A     10.047067  
     558A     10.070553   559A     10.078066   560A     10.092561  
     561A     10.144046   562A     10.268499   563A     10.285596  
     564A     10.331641   565A     10.335160   566A     10.371809  
     567A     11.035973   568A     11.092160   569A     11.128542  
     570A     11.132696   571A     11.298775   572A     11.624168  
     573A     11.707620   574A     11.775488   575A     11.788636  
     576A     11.806704   577A     11.914887   578A     11.967189  
     579A     12.140110   580A     12.176621   581A     12.597445  
     582A     13.428938   583A     13.472045   584A     13.597173  
     585A     13.678490   586A     13.876909   587A     13.919596  
     588A     13.945111   589A     13.964426   590A     14.006454  
     591A     14.071553   592A     16.289661   593A     17.338836  
     594A     28.369143   595A     28.408817   596A     28.464507  
     597A     64.130261   598A     64.759131   599A     65.847544  
     600A     66.761543   601A     68.183753   602A    161.004865  

    Final Occupation by Irrep:
              A 
    DOCC [     5 ]
    NA   [     5 ]
    NB   [     5 ]

  @DF-RHF Final Energy:   -76.05933788136753

   => Energetics <=

    Nuclear Repulsion Energy =              9.2569464356533384
    One-Electron Energy =                -123.1380865965791997
    Two-Electron Energy =                  37.8218022795583266
    Total Energy =                        -76.0593378813675400

Computation Completed


Properties will be evaluated at   0.000000,   0.000000,   0.000000 [a0]

Properties computed using the SCF density matrix


 Multipole Moments:

 ------------------------------------------------------------------------------------
     Multipole            Electronic (a.u.)      Nuclear  (a.u.)        Total (a.u.)
 ------------------------------------------------------------------------------------

 L = 1.  Multiply by 2.5417464519 to convert [e a0] to [Debye]
 Dipole X            :         51.5283316          -50.8112962            0.7170354
 Dipole Y            :         12.9014234          -13.2842814           -0.3828580
 Dipole Z            :         33.2753748          -33.3015531           -0.0261784
 Magnitude           :                                                    0.8132683

 ------------------------------------------------------------------------------------

*** tstop() called on ddmfs1 at Mon Jan 22 20:35:35 2024
Module time:
	user time   =     130.35 seconds =       2.17 minutes
	system time =       6.52 seconds =       0.11 minutes
	total time  =          9 seconds =       0.15 minutes
Total time:
	user time   =     130.35 seconds =       2.17 minutes
	system time =       6.52 seconds =       0.11 minutes
	total time  =          9 seconds =       0.15 minutes

*** tstart() called on ddmfs1
*** at Mon Jan 22 20:35:35 2024


  //>>>>>>>>>>>>>>>>>>>>>>>>>>>>>>>>>>>//
  //               DFMP2               //
  //<<<<<<<<<<<<<<<<<<<<<<<<<<<<<<<<<<<//

   => Loading Basis Set <=

    Name: (AUG-CC-PVTZ AUX)
    Role: RIFIT
    Keyword: DF_BASIS_MP2
    atoms 1                                   entry CL         line   742 file /ddmfs1b/softs/psi4conda/share/psi4/basis/aug-cc-pvtz-ri.gbs 
    atoms 2, 5, 8, 11, 14, 17                 entry O          line   264 file /ddmfs1b/softs/psi4conda/share/psi4/basis/aug-cc-pvtz-ri.gbs 
    atoms 3-4, 6-7, 9-10, 12-13, 15-16, 18-19 entry H          line    30 file /ddmfs1b/softs/psi4conda/share/psi4/basis/aug-cc-pvtz-ri.gbs 

	 --------------------------------------------------------
	                          DF-MP2                         
	      2nd-Order Density-Fitted Moller-Plesset Theory     
	              RMP2 Wavefunction,  20 Threads             
	                                                         
	        Rob Parrish, Justin Turney, Andy Simmonett,      
	           Ed Hohenstein, and C. David Sherrill          
	 --------------------------------------------------------

   => Auxiliary Basis Set <=

  Basis Set: (AUG-CC-PVTZ AUX)
    Blend: AUG-CC-PVTZ-RI
    Number of shells: 373
    Number of basis functions: 1335
    Number of Cartesian functions: 1667
    Spherical Harmonics?: true
    Max angular momentum: 4

	 --------------------------------------------------------
	                 NBF =   602, NAUX =  1335
	 --------------------------------------------------------
	   CLASS    FOCC     OCC    AOCC    AVIR     VIR    FVIR
	   PAIRS       0       5       5     597     597       0
	 --------------------------------------------------------

	-----------------------------------------------------------
	 ==================> DF-MP2 Energies <==================== 
	-----------------------------------------------------------
	 Reference Energy          =     -76.0593378813675258 [Eh]
	 Singles Energy            =      -0.0000000000000000 [Eh]
	 Same-Spin Energy          =      -0.0684486611723494 [Eh]
	 Opposite-Spin Energy      =      -0.2160628711559642 [Eh]
	 Correlation Energy        =      -0.2845115323283136 [Eh]
	 Total Energy              =     -76.3438494136958354 [Eh]
	-----------------------------------------------------------
	 ================> DF-SCS-MP2 Energies <================== 
	-----------------------------------------------------------
	 SCS Same-Spin Scale       =       0.3333333333333333 [-]
	 SCS Opposite-Spin Scale   =       1.2000000000000000 [-]
	 SCS Same-Spin Energy      =      -0.0228162203907831 [Eh]
	 SCS Opposite-Spin Energy  =      -0.2592754453871571 [Eh]
	 SCS Correlation Energy    =      -0.2820916657779402 [Eh]
	 SCS Total Energy          =     -76.3414295471454665 [Eh]
	-----------------------------------------------------------


*** tstop() called on ddmfs1 at Mon Jan 22 20:35:41 2024
Module time:
	user time   =      35.99 seconds =       0.60 minutes
	system time =       2.02 seconds =       0.03 minutes
	total time  =          6 seconds =       0.10 minutes
Total time:
	user time   =     166.36 seconds =       2.77 minutes
	system time =       8.54 seconds =       0.14 minutes
	total time  =         15 seconds =       0.25 minutes

    Psi4 stopped on: Monday, 22 January 2024 08:35PM
    Psi4 wall time for execution: 0:00:15.47

*** Psi4 exiting successfully. Buy a developer a beer!
