
    -----------------------------------------------------------------------
          Psi4: An Open-Source Ab Initio Electronic Structure Package
                               Psi4 1.8.2 release

                         Git: Rev {} zzzzzzz 


    D. G. A. Smith, L. A. Burns, A. C. Simmonett, R. M. Parrish,
    M. C. Schieber, R. Galvelis, P. Kraus, H. Kruse, R. Di Remigio,
    A. Alenaizan, A. M. James, S. Lehtola, J. P. Misiewicz, M. Scheurer,
    R. A. Shaw, J. B. Schriber, Y. Xie, Z. L. Glick, D. A. Sirianni,
    J. S. O'Brien, J. M. Waldrop, A. Kumar, E. G. Hohenstein,
    B. P. Pritchard, B. R. Brooks, H. F. Schaefer III, A. Yu. Sokolov,
    K. Patkowski, A. E. DePrince III, U. Bozkaya, R. A. King,
    F. A. Evangelista, J. M. Turney, T. D. Crawford, C. D. Sherrill,
    J. Chem. Phys. 152(18) 184108 (2020). https://doi.org/10.1063/5.0006002

                            Additional Code Authors
    E. T. Seidl, C. L. Janssen, E. F. Valeev, M. L. Leininger,
    J. F. Gonthier, R. M. Richard, H. R. McAlexander, M. Saitow, X. Wang,
    P. Verma, M. H. Lechner, A. Jiang, S. Behnle, A. G. Heide,
    M. F. Herbst, and D. L. Poole

             Previous Authors, Complete List of Code Contributors,
                       and Citations for Specific Modules
    https://github.com/psi4/psi4/blob/master/codemeta.json
    https://github.com/psi4/psi4/graphs/contributors
    http://psicode.org/psi4manual/master/introduction.html#citing-psifour

    -----------------------------------------------------------------------


    Psi4 started on: Monday, 22 January 2024 09:01PM

    Process ID: 106864
    Host:       ddmfs1
    PSIDATADIR: /ddmfs1b/softs/psi4conda/share/psi4
    Memory:     500.0 MiB
    Threads:    20
    
  ==> Input File <==

--------------------------------------------------------------------------
MEMORY 60 GB

molecule dimer {
0 1
Gh(Cl)     0.000000     0.000000     0.000000
Gh(O)     -1.652811    -1.435957     2.395903
Gh(H)     -1.528767    -2.339541     2.643559
Gh(H)     -1.043488    -1.261638     1.661966
Gh(O)      2.190527    -2.113525     1.676719
Gh(H)      3.042459    -1.604979     1.864963
Gh(H)      2.252391    -2.309383     0.719254
Gh(O)     -1.852063     2.109778     1.864448
Gh(H)     -1.394061     2.041390     2.691589
Gh(H)     -1.471182     1.475343     1.236059
Gh(O)     -2.723100     0.051082    -1.912710
Gh(H)     -3.515131     0.614816    -1.963275
Gh(H)     -2.101677     0.471886    -1.368991
O         -0.158646     3.092762    -0.275158
H         -0.735780     3.182659    -1.002850
H         -0.140681     2.112324    -0.117622

units ang
no_reorient
no_com
symmetry c1
}

set {
basis        aug-cc-pVTZ
scf_type     df
}

energy("mp2")
--------------------------------------------------------------------------

  Memory set to  55.879 GiB by Python driver.

Scratch directory: /ddmfs1a/scratch/
   => Libint2 <=

    Primary   basis highest AM E, G, H:  5, 4, 3
    Auxiliary basis highest AM E, G, H:  6, 5, 4
    Onebody   basis highest AM E, G, H:  6, 5, 4
    Solid Harmonics ordering:            gaussian

*** tstart() called on ddmfs1
*** at Mon Jan 22 21:01:40 2024

   => Loading Basis Set <=

    Name: AUG-CC-PVTZ
    Role: ORBITAL
    Keyword: BASIS
    atoms 1                            entry CL         line   988 file /ddmfs1b/softs/psi4conda/share/psi4/basis/aug-cc-pvtz.gbs 
    atoms 2, 5, 8, 11, 14              entry O          line   331 file /ddmfs1b/softs/psi4conda/share/psi4/basis/aug-cc-pvtz.gbs 
    atoms 3-4, 6-7, 9-10, 12-13, 15-16 entry H          line    40 file /ddmfs1b/softs/psi4conda/share/psi4/basis/aug-cc-pvtz.gbs 


         ---------------------------------------------------------
                                   SCF
               by Justin Turney, Rob Parrish, Andy Simmonett
                          and Daniel G. A. Smith
                              RHF Reference
                       20 Threads,  57220 MiB Core
         ---------------------------------------------------------

  ==> Geometry <==

    Molecular point group: c1
    Full point group: C1

    Geometry (in Angstrom), charge = 0, multiplicity = 1:

       Center              X                  Y                   Z               Mass       
    ------------   -----------------  -----------------  -----------------  -----------------
      Gh(CL)          0.000000000000     0.000000000000     0.000000000000    34.968852682000
      Gh(O)          -1.652811000000    -1.435957000000     2.395903000000    15.994914619570
      Gh(H)          -1.528767000000    -2.339541000000     2.643559000000     1.007825032230
      Gh(H)          -1.043488000000    -1.261638000000     1.661966000000     1.007825032230
      Gh(O)           2.190527000000    -2.113525000000     1.676719000000    15.994914619570
      Gh(H)           3.042459000000    -1.604979000000     1.864963000000     1.007825032230
      Gh(H)           2.252391000000    -2.309383000000     0.719254000000     1.007825032230
      Gh(O)          -1.852063000000     2.109778000000     1.864448000000    15.994914619570
      Gh(H)          -1.394061000000     2.041390000000     2.691589000000     1.007825032230
      Gh(H)          -1.471182000000     1.475343000000     1.236059000000     1.007825032230
      Gh(O)          -2.723100000000     0.051082000000    -1.912710000000    15.994914619570
      Gh(H)          -3.515131000000     0.614816000000    -1.963275000000     1.007825032230
      Gh(H)          -2.101677000000     0.471886000000    -1.368991000000     1.007825032230
         O           -0.158646000000     3.092762000000    -0.275158000000    15.994914619570
         H           -0.735780000000     3.182659000000    -1.002850000000     1.007825032230
         H           -0.140681000000     2.112324000000    -0.117622000000     1.007825032230

  Running in c1 symmetry.

  Rotational constants: A =      0.03522  B =      0.02368  C =      0.02186 [cm^-1]
  Rotational constants: A =   1055.94866  B =    709.77655  C =    655.35527 [MHz]
  Nuclear repulsion =    9.149573459767925

  Charge       = 0
  Multiplicity = 1
  Electrons    = 10
  Nalpha       = 5
  Nbeta        = 5

  ==> Algorithm <==

  SCF Algorithm Type is DF.
  DIIS enabled.
  MOM disabled.
  Fractional occupation disabled.
  Guess Type is SAD.
  Energy threshold   = 1.00e-08
  Density threshold  = 1.00e-08
  Integral threshold = 1.00e-12

  ==> Primary Basis <==

  Basis Set: AUG-CC-PVTZ
    Blend: AUG-CC-PVTZ
    Number of shells: 176
    Number of basis functions: 510
    Number of Cartesian functions: 584
    Spherical Harmonics?: true
    Max angular momentum: 3

   => Loading Basis Set <=

    Name: (AUG-CC-PVTZ AUX)
    Role: JKFIT
    Keyword: DF_BASIS_SCF
    atoms 1                            entry CL         line   816 file /ddmfs1b/softs/psi4conda/share/psi4/basis/aug-cc-pvtz-jkfit.gbs 
    atoms 2, 5, 8, 11, 14              entry O          line   286 file /ddmfs1b/softs/psi4conda/share/psi4/basis/aug-cc-pvtz-jkfit.gbs 
    atoms 3-4, 6-7, 9-10, 12-13, 15-16 entry H          line    70 file /ddmfs1b/softs/psi4conda/share/psi4/basis/aug-cc-pvtz-jkfit.gbs 

  ==> Integral Setup <==

  DFHelper Memory: AOs need 1.973 GiB; user supplied 41.910 GiB. 
  Using in-core AOs.

  ==> MemDFJK: Density-Fitted J/K Matrices <==

    J tasked:                   Yes
    K tasked:                   Yes
    wK tasked:                   No
    OpenMP threads:              20
    Memory [MiB]:             42915
    Algorithm:                 Core
    Schwarz Cutoff:           1E-12
    Mask sparsity (%):      14.1822
    Fitting Condition:        1E-10

   => Auxiliary Basis Set <=

  Basis Set: (AUG-CC-PVTZ AUX)
    Blend: AUG-CC-PVTZ-JKFIT
    Number of shells: 332
    Number of basis functions: 1126
    Number of Cartesian functions: 1385
    Spherical Harmonics?: true
    Max angular momentum: 4

  Minimum eigenvalue in the overlap matrix is 1.2148631666E-04.
  Reciprocal condition number of the overlap matrix is 9.8016803011E-06.
    Using symmetric orthogonalization.

  ==> Pre-Iterations <==

  SCF Guess: Superposition of Atomic Densities via on-the-fly atomic UHF (no occupation information).

   -------------------------
    Irrep   Nso     Nmo    
   -------------------------
     A        510     510 
   -------------------------
    Total     510     510
   -------------------------

  ==> Iterations <==

                           Total Energy        Delta E     RMS |[F,P]|

   @DF-RHF iter SAD:   -75.47152886161838   -7.54715e+01   0.00000e+00 
   @DF-RHF iter   1:   -75.97329228306096   -5.01763e-01   9.20199e-04 DIIS/ADIIS
   @DF-RHF iter   2:   -76.02596271241174   -5.26704e-02   6.31167e-04 DIIS/ADIIS
   @DF-RHF iter   3:   -76.05797121523018   -3.20085e-02   4.30037e-05 DIIS
   @DF-RHF iter   4:   -76.05837271368614   -4.01498e-04   1.04510e-05 DIIS
   @DF-RHF iter   5:   -76.05839885766012   -2.61440e-05   2.42657e-06 DIIS
   @DF-RHF iter   6:   -76.05840107735126   -2.21969e-06   5.35440e-07 DIIS
   @DF-RHF iter   7:   -76.05840119533714   -1.17986e-07   9.46117e-08 DIIS
   @DF-RHF iter   8:   -76.05840119854477   -3.20763e-09   1.60261e-08 DIIS
   @DF-RHF iter   9:   -76.05840119861821   -7.34417e-11   4.07748e-09 DIIS
  Energy and wave function converged.


  ==> Post-Iterations <==

    Orbital Energies [Eh]
    ---------------------

    Doubly Occupied:                                                      

       1A    -20.568482     2A     -1.352223     3A     -0.712501  
       4A     -0.585793     5A     -0.510275  

    Virtual:                                                              

       6A      0.014376     7A      0.028724     8A      0.037235  
       9A      0.040674    10A      0.049514    11A      0.054195  
      12A      0.060402    13A      0.064734    14A      0.076141  
      15A      0.081588    16A      0.102560    17A      0.110064  
      18A      0.118044    19A      0.122474    20A      0.136341  
      21A      0.138830    22A      0.141103    23A      0.147220  
      24A      0.150226    25A      0.160952    26A      0.163471  
      27A      0.167306    28A      0.176056    29A      0.178895  
      30A      0.181753    31A      0.195576    32A      0.200781  
      33A      0.201139    34A      0.211696    35A      0.219225  
      36A      0.224638    37A      0.230077    38A      0.243879  
      39A      0.249674    40A      0.264667    41A      0.268566  
      42A      0.275329    43A      0.283821    44A      0.292410  
      45A      0.298717    46A      0.307941    47A      0.318784  
      48A      0.320180    49A      0.331284    50A      0.335075  
      51A      0.342067    52A      0.346064    53A      0.348737  
      54A      0.350733    55A      0.359064    56A      0.367951  
      57A      0.370289    58A      0.376801    59A      0.378234  
      60A      0.387269    61A      0.389515    62A      0.400905  
      63A      0.407522    64A      0.411765    65A      0.418727  
      66A      0.425968    67A      0.433328    68A      0.438853  
      69A      0.445719    70A      0.445747    71A      0.461422  
      72A      0.468314    73A      0.479849    74A      0.487417  
      75A      0.496578    76A      0.506923    77A      0.523018  
      78A      0.549447    79A      0.561133    80A      0.575786  
      81A      0.585030    82A      0.607649    83A      0.615009  
      84A      0.635910    85A      0.644693    86A      0.660289  
      87A      0.665967    88A      0.683575    89A      0.687751  
      90A      0.696198    91A      0.699676    92A      0.716627  
      93A      0.726241    94A      0.728485    95A      0.743492  
      96A      0.749240    97A      0.760513    98A      0.762830  
      99A      0.768742   100A      0.775422   101A      0.780736  
     102A      0.787710   103A      0.794018   104A      0.796080  
     105A      0.809611   106A      0.810741   107A      0.813475  
     108A      0.818540   109A      0.832109   110A      0.834602  
     111A      0.836259   112A      0.853211   113A      0.859126  
     114A      0.867655   115A      0.872973   116A      0.876723  
     117A      0.885028   118A      0.888042   119A      0.899163  
     120A      0.904913   121A      0.912164   122A      0.916228  
     123A      0.919974   124A      0.930403   125A      0.935413  
     126A      0.944398   127A      0.945608   128A      0.952482  
     129A      0.958461   130A      0.968848   131A      0.980107  
     132A      0.981465   133A      0.992434   134A      0.999655  
     135A      1.001946   136A      1.015843   137A      1.017873  
     138A      1.022473   139A      1.028961   140A      1.039686  
     141A      1.041344   142A      1.049303   143A      1.056903  
     144A      1.062263   145A      1.066688   146A      1.074842  
     147A      1.082369   148A      1.088940   149A      1.094749  
     150A      1.111877   151A      1.117834   152A      1.129620  
     153A      1.131188   154A      1.141525   155A      1.158222  
     156A      1.162504   157A      1.169478   158A      1.175439  
     159A      1.187511   160A      1.193351   161A      1.199855  
     162A      1.207194   163A      1.229978   164A      1.238352  
     165A      1.241191   166A      1.251002   167A      1.257854  
     168A      1.259288   169A      1.274247   170A      1.284965  
     171A      1.299728   172A      1.314952   173A      1.329504  
     174A      1.352200   175A      1.352846   176A      1.375897  
     177A      1.389821   178A      1.403030   179A      1.407726  
     180A      1.412002   181A      1.446535   182A      1.452606  
     183A      1.463646   184A      1.473393   185A      1.496531  
     186A      1.500899   187A      1.513502   188A      1.537759  
     189A      1.547801   190A      1.559897   191A      1.586951  
     192A      1.595959   193A      1.605446   194A      1.621248  
     195A      1.628332   196A      1.650813   197A      1.663653  
     198A      1.684569   199A      1.701421   200A      1.719312  
     201A      1.721720   202A      1.726278   203A      1.730430  
     204A      1.750850   205A      1.756569   206A      1.775100  
     207A      1.782077   208A      1.790788   209A      1.801166  
     210A      1.814283   211A      1.819799   212A      1.830590  
     213A      1.833669   214A      1.841238   215A      1.854361  
     216A      1.858984   217A      1.861599   218A      1.894554  
     219A      1.905577   220A      1.913251   221A      1.922657  
     222A      1.940201   223A      1.941291   224A      1.967358  
     225A      1.986956   226A      1.995371   227A      2.015364  
     228A      2.034504   229A      2.041921   230A      2.063993  
     231A      2.091325   232A      2.113460   233A      2.120502  
     234A      2.151532   235A      2.211273   236A      2.266953  
     237A      2.297378   238A      2.322874   239A      2.356793  
     240A      2.399321   241A      2.403833   242A      2.440352  
     243A      2.458398   244A      2.471737   245A      2.480035  
     246A      2.496536   247A      2.504687   248A      2.512617  
     249A      2.516417   250A      2.530937   251A      2.541429  
     252A      2.546736   253A      2.553878   254A      2.558973  
     255A      2.564470   256A      2.579463   257A      2.584307  
     258A      2.599101   259A      2.600712   260A      2.614919  
     261A      2.629832   262A      2.633133   263A      2.645810  
     264A      2.675222   265A      2.680495   266A      2.691618  
     267A      2.707323   268A      2.722461   269A      2.726658  
     270A      2.735648   271A      2.747126   272A      2.771016  
     273A      2.779382   274A      2.789431   275A      2.816654  
     276A      2.822237   277A      2.832169   278A      2.862329  
     279A      2.867517   280A      2.885495   281A      2.938463  
     282A      2.979925   283A      2.988256   284A      3.023939  
     285A      3.052529   286A      3.075180   287A      3.124753  
     288A      3.142572   289A      3.146604   290A      3.184330  
     291A      3.192399   292A      3.227165   293A      3.231775  
     294A      3.250175   295A      3.268130   296A      3.272098  
     297A      3.282290   298A      3.287204   299A      3.299141  
     300A      3.305007   301A      3.349071   302A      3.400484  
     303A      3.423760   304A      3.457119   305A      3.478581  
     306A      3.517823   307A      3.533540   308A      3.538324  
     309A      3.599492   310A      3.605770   311A      3.689822  
     312A      3.702002   313A      3.797406   314A      3.813534  
     315A      3.831992   316A      3.849256   317A      3.988067  
     318A      4.089553   319A      4.101831   320A      4.133107  
     321A      4.158549   322A      4.181938   323A      4.222609  
     324A      4.256368   325A      4.283113   326A      4.295048  
     327A      4.321556   328A      4.330799   329A      4.346109  
     330A      4.365454   331A      4.380686   332A      4.402540  
     333A      4.407908   334A      4.434900   335A      4.442954  
     336A      4.450811   337A      4.462870   338A      4.476881  
     339A      4.491830   340A      4.511336   341A      4.524539  
     342A      4.529513   343A      4.542688   344A      4.553874  
     345A      4.571603   346A      4.576667   347A      4.592439  
     348A      4.619403   349A      4.626385   350A      4.633754  
     351A      4.651395   352A      4.657741   353A      4.662352  
     354A      4.682590   355A      4.698978   356A      4.722986  
     357A      4.739593   358A      4.777444   359A      4.788323  
     360A      4.811439   361A      4.844621   362A      4.856673  
     363A      4.865153   364A      4.889152   365A      4.894329  
     366A      4.909009   367A      4.927721   368A      4.935826  
     369A      4.946586   370A      4.954898   371A      4.979682  
     372A      4.993010   373A      5.011008   374A      5.041332  
     375A      5.065272   376A      5.073096   377A      5.095104  
     378A      5.149544   379A      5.169004   380A      5.200577  
     381A      5.203814   382A      5.237861   383A      5.292724  
     384A      5.322749   385A      5.341707   386A      5.375554  
     387A      5.419372   388A      5.457429   389A      5.474547  
     390A      5.529486   391A      5.553960   392A      5.559053  
     393A      5.566009   394A      5.575563   395A      5.578247  
     396A      5.592169   397A      5.608905   398A      5.676542  
     399A      5.702250   400A      5.749814   401A      5.773271  
     402A      5.779096   403A      5.789577   404A      5.867107  
     405A      5.893989   406A      5.915688   407A      6.107895  
     408A      6.165904   409A      6.172543   410A      6.221724  
     411A      6.271804   412A      6.307965   413A      6.443199  
     414A      6.463385   415A      6.478286   416A      6.490128  
     417A      6.595752   418A      6.744328   419A      6.753736  
     420A      6.804568   421A      6.827619   422A      6.915372  
     423A      6.995416   424A      7.131619   425A      7.147591  
     426A      7.164798   427A      7.194221   428A      7.327857  
     429A      7.380859   430A      7.400317   431A      7.461661  
     432A      7.541177   433A      7.658801   434A      7.716302  
     435A      7.735618   436A      7.748737   437A      7.782903  
     438A      7.790656   439A      7.813783   440A      7.831702  
     441A      7.855292   442A      7.985563   443A      8.010182  
     444A      8.050569   445A      8.070008   446A      8.084673  
     447A      8.090400   448A      8.139069   449A      8.221411  
     450A      8.232247   451A      8.269581   452A      8.290151  
     453A      8.312183   454A      8.330657   455A      8.362364  
     456A      8.523030   457A      8.675251   458A      8.824905  
     459A      8.832519   460A      8.849193   461A      8.877743  
     462A      8.962977   463A      9.040581   464A      9.115906  
     465A      9.682299   466A      9.718833   467A      9.723564  
     468A      9.840063   469A      9.852301   470A      9.863828  
     471A      9.887528   472A      9.918987   473A      9.992798  
     474A     10.060453   475A     10.078924   476A     10.113520  
     477A     10.212418   478A     10.279536   479A     10.301859  
     480A     10.365133   481A     10.999988   482A     11.210433  
     483A     11.212831   484A     11.234183   485A     11.571918  
     486A     11.698057   487A     11.760106   488A     11.780306  
     489A     11.839324   490A     12.215422   491A     12.268770  
     492A     12.311160   493A     13.320725   494A     13.648082  
     495A     13.681995   496A     13.711439   497A     13.845647  
     498A     13.945030   499A     13.961840   500A     14.003098  
     501A     15.994125   502A     17.062358   503A     28.134755  
     504A     28.223216   505A     28.505595   506A     63.031210  
     507A     65.896120   508A     66.664188   509A     66.925449  
     510A    160.980178  

    Final Occupation by Irrep:
              A 
    DOCC [     5 ]
    NA   [     5 ]
    NB   [     5 ]

  @DF-RHF Final Energy:   -76.05840119861821

   => Energetics <=

    Nuclear Repulsion Energy =              9.1495734597679252
    One-Electron Energy =                -122.9573972317711821
    Two-Electron Energy =                  37.7494225733850399
    Total Energy =                        -76.0584011986182134

Computation Completed


Properties will be evaluated at   0.000000,   0.000000,   0.000000 [a0]

Properties computed using the SCF density matrix


 Multipole Moments:

 ------------------------------------------------------------------------------------
     Multipole            Electronic (a.u.)      Nuclear  (a.u.)        Total (a.u.)
 ------------------------------------------------------------------------------------

 L = 1.  Multiply by 2.5417464519 to convert [e a0] to [Debye]
 Dipole X            :          3.6811021           -4.0546512           -0.3735490
 Dipole Y            :        -57.3429169           56.7618529           -0.5810640
 Dipole Z            :          5.8941045           -6.2771713           -0.3830668
 Magnitude           :                                                    0.7898825

 ------------------------------------------------------------------------------------

*** tstop() called on ddmfs1 at Mon Jan 22 21:01:46 2024
Module time:
	user time   =      90.15 seconds =       1.50 minutes
	system time =       4.73 seconds =       0.08 minutes
	total time  =          6 seconds =       0.10 minutes
Total time:
	user time   =      90.15 seconds =       1.50 minutes
	system time =       4.73 seconds =       0.08 minutes
	total time  =          6 seconds =       0.10 minutes

*** tstart() called on ddmfs1
*** at Mon Jan 22 21:01:46 2024


  //>>>>>>>>>>>>>>>>>>>>>>>>>>>>>>>>>>>//
  //               DFMP2               //
  //<<<<<<<<<<<<<<<<<<<<<<<<<<<<<<<<<<<//

   => Loading Basis Set <=

    Name: (AUG-CC-PVTZ AUX)
    Role: RIFIT
    Keyword: DF_BASIS_MP2
    atoms 1                            entry CL         line   742 file /ddmfs1b/softs/psi4conda/share/psi4/basis/aug-cc-pvtz-ri.gbs 
    atoms 2, 5, 8, 11, 14              entry O          line   264 file /ddmfs1b/softs/psi4conda/share/psi4/basis/aug-cc-pvtz-ri.gbs 
    atoms 3-4, 6-7, 9-10, 12-13, 15-16 entry H          line    30 file /ddmfs1b/softs/psi4conda/share/psi4/basis/aug-cc-pvtz-ri.gbs 

	 --------------------------------------------------------
	                          DF-MP2                         
	      2nd-Order Density-Fitted Moller-Plesset Theory     
	              RMP2 Wavefunction,  20 Threads             
	                                                         
	        Rob Parrish, Justin Turney, Andy Simmonett,      
	           Ed Hohenstein, and C. David Sherrill          
	 --------------------------------------------------------

   => Auxiliary Basis Set <=

  Basis Set: (AUG-CC-PVTZ AUX)
    Blend: AUG-CC-PVTZ-RI
    Number of shells: 317
    Number of basis functions: 1137
    Number of Cartesian functions: 1421
    Spherical Harmonics?: true
    Max angular momentum: 4

	 --------------------------------------------------------
	                 NBF =   510, NAUX =  1137
	 --------------------------------------------------------
	   CLASS    FOCC     OCC    AOCC    AVIR     VIR    FVIR
	   PAIRS       0       5       5     505     505       0
	 --------------------------------------------------------

	-----------------------------------------------------------
	 ==================> DF-MP2 Energies <==================== 
	-----------------------------------------------------------
	 Reference Energy          =     -76.0584011986182134 [Eh]
	 Singles Energy            =      -0.0000000000000000 [Eh]
	 Same-Spin Energy          =      -0.0685232832522967 [Eh]
	 Opposite-Spin Energy      =      -0.2164607286968245 [Eh]
	 Correlation Energy        =      -0.2849840119491212 [Eh]
	 Total Energy              =     -76.3433852105673338 [Eh]
	-----------------------------------------------------------
	 ================> DF-SCS-MP2 Energies <================== 
	-----------------------------------------------------------
	 SCS Same-Spin Scale       =       0.3333333333333333 [-]
	 SCS Opposite-Spin Scale   =       1.2000000000000000 [-]
	 SCS Same-Spin Energy      =      -0.0228410944174322 [Eh]
	 SCS Opposite-Spin Energy  =      -0.2597528744361894 [Eh]
	 SCS Correlation Energy    =      -0.2825939688536216 [Eh]
	 SCS Total Energy          =     -76.3409951674718315 [Eh]
	-----------------------------------------------------------


*** tstop() called on ddmfs1 at Mon Jan 22 21:01:51 2024
Module time:
	user time   =      26.55 seconds =       0.44 minutes
	system time =       1.62 seconds =       0.03 minutes
	total time  =          5 seconds =       0.08 minutes
Total time:
	user time   =     116.72 seconds =       1.95 minutes
	system time =       6.36 seconds =       0.11 minutes
	total time  =         11 seconds =       0.18 minutes

    Psi4 stopped on: Monday, 22 January 2024 09:01PM
    Psi4 wall time for execution: 0:00:10.93

*** Psi4 exiting successfully. Buy a developer a beer!
