
    -----------------------------------------------------------------------
          Psi4: An Open-Source Ab Initio Electronic Structure Package
                               Psi4 1.8.2 release

                         Git: Rev {} zzzzzzz 


    D. G. A. Smith, L. A. Burns, A. C. Simmonett, R. M. Parrish,
    M. C. Schieber, R. Galvelis, P. Kraus, H. Kruse, R. Di Remigio,
    A. Alenaizan, A. M. James, S. Lehtola, J. P. Misiewicz, M. Scheurer,
    R. A. Shaw, J. B. Schriber, Y. Xie, Z. L. Glick, D. A. Sirianni,
    J. S. O'Brien, J. M. Waldrop, A. Kumar, E. G. Hohenstein,
    B. P. Pritchard, B. R. Brooks, H. F. Schaefer III, A. Yu. Sokolov,
    K. Patkowski, A. E. DePrince III, U. Bozkaya, R. A. King,
    F. A. Evangelista, J. M. Turney, T. D. Crawford, C. D. Sherrill,
    J. Chem. Phys. 152(18) 184108 (2020). https://doi.org/10.1063/5.0006002

                            Additional Code Authors
    E. T. Seidl, C. L. Janssen, E. F. Valeev, M. L. Leininger,
    J. F. Gonthier, R. M. Richard, H. R. McAlexander, M. Saitow, X. Wang,
    P. Verma, M. H. Lechner, A. Jiang, S. Behnle, A. G. Heide,
    M. F. Herbst, and D. L. Poole

             Previous Authors, Complete List of Code Contributors,
                       and Citations for Specific Modules
    https://github.com/psi4/psi4/blob/master/codemeta.json
    https://github.com/psi4/psi4/graphs/contributors
    http://psicode.org/psi4manual/master/introduction.html#citing-psifour

    -----------------------------------------------------------------------


    Psi4 started on: Monday, 22 January 2024 09:13PM

    Process ID: 107976
    Host:       ddmfs1
    PSIDATADIR: /ddmfs1b/softs/psi4conda/share/psi4
    Memory:     500.0 MiB
    Threads:    20
    
  ==> Input File <==

--------------------------------------------------------------------------
MEMORY 60 GB

molecule dimer {
0 1
Gh(Cl)     0.000000     0.000000     0.000000
Gh(O)      3.112411    -0.510579     1.136854
Gh(H)      2.370520    -0.257961     1.690682
Gh(H)      3.753338    -1.047204     1.647019
Gh(O)     -2.960096    -1.202549     0.650023
Gh(H)     -2.871814    -2.140675     0.467832
Gh(H)     -2.150687    -0.805819     0.422640
Gh(O)     -2.286463     2.389191     0.707858
Gh(H)     -1.879680     1.516328     0.601139
Gh(H)     -3.105064     2.383095     0.187160
O          0.222845     1.410868     2.777416
H          0.764077     2.178359     2.611442
H          0.077727     1.005070     1.910475

units ang
no_reorient
no_com
symmetry c1
}

set {
basis        aug-cc-pVTZ
scf_type     df
}

energy("mp2")
--------------------------------------------------------------------------

  Memory set to  55.879 GiB by Python driver.

Scratch directory: /ddmfs1a/scratch/
   => Libint2 <=

    Primary   basis highest AM E, G, H:  5, 4, 3
    Auxiliary basis highest AM E, G, H:  6, 5, 4
    Onebody   basis highest AM E, G, H:  6, 5, 4
    Solid Harmonics ordering:            gaussian

*** tstart() called on ddmfs1
*** at Mon Jan 22 21:13:11 2024

   => Loading Basis Set <=

    Name: AUG-CC-PVTZ
    Role: ORBITAL
    Keyword: BASIS
    atoms 1                     entry CL         line   988 file /ddmfs1b/softs/psi4conda/share/psi4/basis/aug-cc-pvtz.gbs 
    atoms 2, 5, 8, 11           entry O          line   331 file /ddmfs1b/softs/psi4conda/share/psi4/basis/aug-cc-pvtz.gbs 
    atoms 3-4, 6-7, 9-10, 12-13 entry H          line    40 file /ddmfs1b/softs/psi4conda/share/psi4/basis/aug-cc-pvtz.gbs 


         ---------------------------------------------------------
                                   SCF
               by Justin Turney, Rob Parrish, Andy Simmonett
                          and Daniel G. A. Smith
                              RHF Reference
                       20 Threads,  57220 MiB Core
         ---------------------------------------------------------

  ==> Geometry <==

    Molecular point group: c1
    Full point group: C1

    Geometry (in Angstrom), charge = 0, multiplicity = 1:

       Center              X                  Y                   Z               Mass       
    ------------   -----------------  -----------------  -----------------  -----------------
      Gh(CL)          0.000000000000     0.000000000000     0.000000000000    34.968852682000
      Gh(O)           3.112411000000    -0.510579000000     1.136854000000    15.994914619570
      Gh(H)           2.370520000000    -0.257961000000     1.690682000000     1.007825032230
      Gh(H)           3.753338000000    -1.047204000000     1.647019000000     1.007825032230
      Gh(O)          -2.960096000000    -1.202549000000     0.650023000000    15.994914619570
      Gh(H)          -2.871814000000    -2.140675000000     0.467832000000     1.007825032230
      Gh(H)          -2.150687000000    -0.805819000000     0.422640000000     1.007825032230
      Gh(O)          -2.286463000000     2.389191000000     0.707858000000    15.994914619570
      Gh(H)          -1.879680000000     1.516328000000     0.601139000000     1.007825032230
      Gh(H)          -3.105064000000     2.383095000000     0.187160000000     1.007825032230
         O            0.222845000000     1.410868000000     2.777416000000    15.994914619570
         H            0.764077000000     2.178359000000     2.611442000000     1.007825032230
         H            0.077727000000     1.005070000000     1.910475000000     1.007825032230

  Running in c1 symmetry.

  Rotational constants: A =      0.05036  B =      0.03185  C =      0.02474 [cm^-1]
  Rotational constants: A =   1509.75998  B =    954.84668  C =    741.60981 [MHz]
  Nuclear repulsion =    9.157678507479487

  Charge       = 0
  Multiplicity = 1
  Electrons    = 10
  Nalpha       = 5
  Nbeta        = 5

  ==> Algorithm <==

  SCF Algorithm Type is DF.
  DIIS enabled.
  MOM disabled.
  Fractional occupation disabled.
  Guess Type is SAD.
  Energy threshold   = 1.00e-08
  Density threshold  = 1.00e-08
  Integral threshold = 1.00e-12

  ==> Primary Basis <==

  Basis Set: AUG-CC-PVTZ
    Blend: AUG-CC-PVTZ
    Number of shells: 144
    Number of basis functions: 418
    Number of Cartesian functions: 479
    Spherical Harmonics?: true
    Max angular momentum: 3

   => Loading Basis Set <=

    Name: (AUG-CC-PVTZ AUX)
    Role: JKFIT
    Keyword: DF_BASIS_SCF
    atoms 1                     entry CL         line   816 file /ddmfs1b/softs/psi4conda/share/psi4/basis/aug-cc-pvtz-jkfit.gbs 
    atoms 2, 5, 8, 11           entry O          line   286 file /ddmfs1b/softs/psi4conda/share/psi4/basis/aug-cc-pvtz-jkfit.gbs 
    atoms 3-4, 6-7, 9-10, 12-13 entry H          line    70 file /ddmfs1b/softs/psi4conda/share/psi4/basis/aug-cc-pvtz-jkfit.gbs 

  ==> Integral Setup <==

  DFHelper Memory: AOs need 1.132 GiB; user supplied 41.910 GiB. 
  Using in-core AOs.

  ==> MemDFJK: Density-Fitted J/K Matrices <==

    J tasked:                   Yes
    K tasked:                   Yes
    wK tasked:                   No
    OpenMP threads:              20
    Memory [MiB]:             42915
    Algorithm:                 Core
    Schwarz Cutoff:           1E-12
    Mask sparsity (%):      12.0464
    Fitting Condition:        1E-10

   => Auxiliary Basis Set <=

  Basis Set: (AUG-CC-PVTZ AUX)
    Blend: AUG-CC-PVTZ-JKFIT
    Number of shells: 274
    Number of basis functions: 930
    Number of Cartesian functions: 1144
    Spherical Harmonics?: true
    Max angular momentum: 4

  Minimum eigenvalue in the overlap matrix is 1.6951597980E-04.
  Reciprocal condition number of the overlap matrix is 1.5139586670E-05.
    Using symmetric orthogonalization.

  ==> Pre-Iterations <==

  SCF Guess: Superposition of Atomic Densities via on-the-fly atomic UHF (no occupation information).

   -------------------------
    Irrep   Nso     Nmo    
   -------------------------
     A        418     418 
   -------------------------
    Total     418     418
   -------------------------

  ==> Iterations <==

                           Total Energy        Delta E     RMS |[F,P]|

   @DF-RHF iter SAD:   -75.47280481346060   -7.54728e+01   0.00000e+00 
   @DF-RHF iter   1:   -75.97602724632604   -5.03222e-01   1.12065e-03 DIIS/ADIIS
   @DF-RHF iter   2:   -76.02846512336021   -5.24379e-02   7.64405e-04 DIIS/ADIIS
   @DF-RHF iter   3:   -76.05993949477889   -3.14744e-02   5.20064e-05 DIIS
   @DF-RHF iter   4:   -76.06033272332418   -3.93229e-04   1.24759e-05 DIIS
   @DF-RHF iter   5:   -76.06035740215427   -2.46788e-05   2.83567e-06 DIIS
   @DF-RHF iter   6:   -76.06035942998203   -2.02783e-06   6.25494e-07 DIIS
   @DF-RHF iter   7:   -76.06035953892942   -1.08947e-07   1.14457e-07 DIIS
   @DF-RHF iter   8:   -76.06035954213920   -3.20978e-09   1.91344e-08 DIIS
   @DF-RHF iter   9:   -76.06035954221056   -7.13669e-11   4.76645e-09 DIIS
  Energy and wave function converged.


  ==> Post-Iterations <==

    Orbital Energies [Eh]
    ---------------------

    Doubly Occupied:                                                      

       1A    -20.567317     2A     -1.351001     3A     -0.717580  
       4A     -0.582299     5A     -0.509755  

    Virtual:                                                              

       6A      0.017887     7A      0.032544     8A      0.036999  
       9A      0.048352    10A      0.053178    11A      0.074475  
      12A      0.076490    13A      0.079112    14A      0.099477  
      15A      0.107679    16A      0.114255    17A      0.120104  
      18A      0.134224    19A      0.139025    20A      0.145957  
      21A      0.152351    22A      0.154086    23A      0.162810  
      24A      0.169846    25A      0.182703    26A      0.186797  
      27A      0.189676    28A      0.197526    29A      0.207522  
      30A      0.215940    31A      0.227545    32A      0.230032  
      33A      0.246552    34A      0.267004    35A      0.281370  
      36A      0.282958    37A      0.295840    38A      0.303597  
      39A      0.313150    40A      0.315984    41A      0.324314  
      42A      0.324974    43A      0.339921    44A      0.342299  
      45A      0.347107    46A      0.355241    47A      0.364887  
      48A      0.367054    49A      0.377801    50A      0.379713  
      51A      0.387877    52A      0.393821    53A      0.394979  
      54A      0.411106    55A      0.422448    56A      0.433049  
      57A      0.443481    58A      0.447864    59A      0.459789  
      60A      0.472112    61A      0.487537    62A      0.497320  
      63A      0.513475    64A      0.520697    65A      0.538202  
      66A      0.560596    67A      0.578868    68A      0.597822  
      69A      0.602964    70A      0.618363    71A      0.631139  
      72A      0.639569    73A      0.658771    74A      0.670380  
      75A      0.682901    76A      0.693258    77A      0.695093  
      78A      0.711341    79A      0.725806    80A      0.745635  
      81A      0.750347    82A      0.760251    83A      0.766201  
      84A      0.781261    85A      0.801645    86A      0.804376  
      87A      0.806494    88A      0.816311    89A      0.822377  
      90A      0.829508    91A      0.837032    92A      0.840932  
      93A      0.845116    94A      0.845993    95A      0.850969  
      96A      0.853668    97A      0.867439    98A      0.878220  
      99A      0.880687   100A      0.884720   101A      0.888417  
     102A      0.913867   103A      0.924654   104A      0.930103  
     105A      0.944731   106A      0.948529   107A      0.959847  
     108A      0.965281   109A      0.974443   110A      0.983203  
     111A      0.988472   112A      0.998194   113A      1.002170  
     114A      1.009893   115A      1.016774   116A      1.024984  
     117A      1.040179   118A      1.042192   119A      1.053891  
     120A      1.056319   121A      1.064330   122A      1.071137  
     123A      1.083361   124A      1.096583   125A      1.106339  
     126A      1.121910   127A      1.128256   128A      1.132694  
     129A      1.151486   130A      1.166242   131A      1.176457  
     132A      1.180366   133A      1.193915   134A      1.207081  
     135A      1.209697   136A      1.223887   137A      1.249857  
     138A      1.271678   139A      1.273824   140A      1.283318  
     141A      1.295509   142A      1.311961   143A      1.338681  
     144A      1.360128   145A      1.368133   146A      1.382010  
     147A      1.399102   148A      1.411007   149A      1.429461  
     150A      1.444940   151A      1.475289   152A      1.479368  
     153A      1.496679   154A      1.523232   155A      1.531552  
     156A      1.550583   157A      1.559253   158A      1.578411  
     159A      1.611843   160A      1.622234   161A      1.634236  
     162A      1.650848   163A      1.662818   164A      1.672226  
     165A      1.675138   166A      1.696897   167A      1.713892  
     168A      1.722324   169A      1.729965   170A      1.738190  
     171A      1.757874   172A      1.771756   173A      1.780972  
     174A      1.789340   175A      1.799059   176A      1.806012  
     177A      1.819753   178A      1.836310   179A      1.840901  
     180A      1.865989   181A      1.877026   182A      1.883618  
     183A      1.905895   184A      1.921112   185A      1.929132  
     186A      1.936456   187A      1.977163   188A      1.992944  
     189A      2.003819   190A      2.024462   191A      2.066514  
     192A      2.086470   193A      2.094226   194A      2.173084  
     195A      2.210761   196A      2.267323   197A      2.279461  
     198A      2.340592   199A      2.397756   200A      2.432698  
     201A      2.443907   202A      2.464956   203A      2.466329  
     204A      2.492940   205A      2.500410   206A      2.514564  
     207A      2.524536   208A      2.529805   209A      2.547748  
     210A      2.550885   211A      2.556442   212A      2.563640  
     213A      2.597326   214A      2.604912   215A      2.618940  
     216A      2.633584   217A      2.635615   218A      2.657485  
     219A      2.660622   220A      2.667385   221A      2.684326  
     222A      2.701185   223A      2.722803   224A      2.738473  
     225A      2.747764   226A      2.756933   227A      2.796302  
     228A      2.817924   229A      2.845110   230A      2.867963  
     231A      2.892961   232A      2.914195   233A      2.964360  
     234A      3.001230   235A      3.002471   236A      3.035984  
     237A      3.108354   238A      3.174705   239A      3.202362  
     240A      3.205594   241A      3.212928   242A      3.230100  
     243A      3.244017   244A      3.249405   245A      3.286850  
     246A      3.332441   247A      3.382991   248A      3.384369  
     249A      3.414994   250A      3.456356   251A      3.474561  
     252A      3.529242   253A      3.569175   254A      3.632636  
     255A      3.658747   256A      3.741618   257A      3.795246  
     258A      3.812821   259A      3.848038   260A      3.988008  
     261A      4.033889   262A      4.065396   263A      4.109360  
     264A      4.116772   265A      4.136122   266A      4.171411  
     267A      4.216612   268A      4.248468   269A      4.284947  
     270A      4.305453   271A      4.316384   272A      4.341812  
     273A      4.374895   274A      4.380794   275A      4.397226  
     276A      4.415870   277A      4.439475   278A      4.448329  
     279A      4.473752   280A      4.487886   281A      4.494629  
     282A      4.499175   283A      4.512902   284A      4.540232  
     285A      4.549211   286A      4.569058   287A      4.580122  
     288A      4.611820   289A      4.636640   290A      4.641450  
     291A      4.656613   292A      4.663574   293A      4.676928  
     294A      4.723711   295A      4.728877   296A      4.747502  
     297A      4.768050   298A      4.799672   299A      4.812030  
     300A      4.825975   301A      4.857244   302A      4.898266  
     303A      4.901570   304A      4.908867   305A      4.929170  
     306A      4.938083   307A      4.960060   308A      4.966799  
     309A      4.990431   310A      5.057108   311A      5.088182  
     312A      5.103851   313A      5.147424   314A      5.172260  
     315A      5.202401   316A      5.226897   317A      5.244882  
     318A      5.305668   319A      5.320166   320A      5.359353  
     321A      5.467418   322A      5.493619   323A      5.507628  
     324A      5.557793   325A      5.593836   326A      5.608090  
     327A      5.614383   328A      5.646770   329A      5.661388  
     330A      5.663935   331A      5.757427   332A      5.787711  
     333A      5.796621   334A      5.863276   335A      5.928168  
     336A      6.141781   337A      6.152448   338A      6.181417  
     339A      6.277108   340A      6.350352   341A      6.421026  
     342A      6.519283   343A      6.595396   344A      6.724355  
     345A      6.754168   346A      6.799002   347A      6.811432  
     348A      6.970183   349A      7.048325   350A      7.079010  
     351A      7.181153   352A      7.210990   353A      7.354864  
     354A      7.367638   355A      7.388039   356A      7.434465  
     357A      7.535766   358A      7.690439   359A      7.712467  
     360A      7.740002   361A      7.751573   362A      7.775805  
     363A      7.841113   364A      7.875164   365A      7.982609  
     366A      8.015879   367A      8.076332   368A      8.079765  
     369A      8.090124   370A      8.238627   371A      8.245052  
     372A      8.249596   373A      8.268100   374A      8.293427  
     375A      8.328146   376A      8.741287   377A      8.777374  
     378A      8.831683   379A      8.860709   380A      8.893908  
     381A      8.950348   382A      9.214420   383A      9.665878  
     384A      9.705592   385A      9.739086   386A      9.838073  
     387A      9.853381   388A      9.869026   389A     10.044309  
     390A     10.077260   391A     10.086979   392A     10.234434  
     393A     10.315870   394A     10.336829   395A     11.103158  
     396A     11.163015   397A     11.301757   398A     11.625491  
     399A     11.749255   400A     11.773080   401A     12.050991  
     402A     12.071028   403A     12.398903   404A     13.506473  
     405A     13.574602   406A     13.758840   407A     13.903164  
     408A     13.961419   409A     14.047033   410A     15.438658  
     411A     16.947657   412A     27.977483   413A     28.243136  
     414A     28.333587   415A     64.726270   416A     65.522468  
     417A     67.889801   418A    160.923420  

    Final Occupation by Irrep:
              A 
    DOCC [     5 ]
    NA   [     5 ]
    NB   [     5 ]

  @DF-RHF Final Energy:   -76.06035954221056

   => Energetics <=

    Nuclear Repulsion Energy =              9.1576785074794866
    One-Electron Energy =                -122.9801694103828140
    Two-Electron Energy =                  37.7621313606927629
    Total Energy =                        -76.0603595422105627

Computation Completed


Properties will be evaluated at   0.000000,   0.000000,   0.000000 [a0]

Properties computed using the SCF density matrix


 Multipole Moments:

 ------------------------------------------------------------------------------------
     Multipole            Electronic (a.u.)      Nuclear  (a.u.)        Total (a.u.)
 ------------------------------------------------------------------------------------

 L = 1.  Multiply by 2.5417464519 to convert [e a0] to [Debye]
 Dipole X            :         -4.6951229            4.9597072            0.2645842
 Dipole Y            :        -27.1026944           27.3450419            0.2423475
 Dipole Z            :        -51.2201537           50.5336293           -0.6865244
 Magnitude           :                                                    0.7746308

 ------------------------------------------------------------------------------------

*** tstop() called on ddmfs1 at Mon Jan 22 21:13:15 2024
Module time:
	user time   =      61.05 seconds =       1.02 minutes
	system time =       3.36 seconds =       0.06 minutes
	total time  =          4 seconds =       0.07 minutes
Total time:
	user time   =      61.05 seconds =       1.02 minutes
	system time =       3.36 seconds =       0.06 minutes
	total time  =          4 seconds =       0.07 minutes

*** tstart() called on ddmfs1
*** at Mon Jan 22 21:13:15 2024


  //>>>>>>>>>>>>>>>>>>>>>>>>>>>>>>>>>>>//
  //               DFMP2               //
  //<<<<<<<<<<<<<<<<<<<<<<<<<<<<<<<<<<<//

   => Loading Basis Set <=

    Name: (AUG-CC-PVTZ AUX)
    Role: RIFIT
    Keyword: DF_BASIS_MP2
    atoms 1                     entry CL         line   742 file /ddmfs1b/softs/psi4conda/share/psi4/basis/aug-cc-pvtz-ri.gbs 
    atoms 2, 5, 8, 11           entry O          line   264 file /ddmfs1b/softs/psi4conda/share/psi4/basis/aug-cc-pvtz-ri.gbs 
    atoms 3-4, 6-7, 9-10, 12-13 entry H          line    30 file /ddmfs1b/softs/psi4conda/share/psi4/basis/aug-cc-pvtz-ri.gbs 

	 --------------------------------------------------------
	                          DF-MP2                         
	      2nd-Order Density-Fitted Moller-Plesset Theory     
	              RMP2 Wavefunction,  20 Threads             
	                                                         
	        Rob Parrish, Justin Turney, Andy Simmonett,      
	           Ed Hohenstein, and C. David Sherrill          
	 --------------------------------------------------------

   => Auxiliary Basis Set <=

  Basis Set: (AUG-CC-PVTZ AUX)
    Blend: AUG-CC-PVTZ-RI
    Number of shells: 261
    Number of basis functions: 939
    Number of Cartesian functions: 1175
    Spherical Harmonics?: true
    Max angular momentum: 4

	 --------------------------------------------------------
	                 NBF =   418, NAUX =   939
	 --------------------------------------------------------
	   CLASS    FOCC     OCC    AOCC    AVIR     VIR    FVIR
	   PAIRS       0       5       5     413     413       0
	 --------------------------------------------------------

	-----------------------------------------------------------
	 ==================> DF-MP2 Energies <==================== 
	-----------------------------------------------------------
	 Reference Energy          =     -76.0603595422105627 [Eh]
	 Singles Energy            =      -0.0000000000000000 [Eh]
	 Same-Spin Energy          =      -0.0684505278006645 [Eh]
	 Opposite-Spin Energy      =      -0.2161955557613220 [Eh]
	 Correlation Energy        =      -0.2846460835619866 [Eh]
	 Total Energy              =     -76.3450056257725436 [Eh]
	-----------------------------------------------------------
	 ================> DF-SCS-MP2 Energies <================== 
	-----------------------------------------------------------
	 SCS Same-Spin Scale       =       0.3333333333333333 [-]
	 SCS Opposite-Spin Scale   =       1.2000000000000000 [-]
	 SCS Same-Spin Energy      =      -0.0228168426002215 [Eh]
	 SCS Opposite-Spin Energy  =      -0.2594346669135864 [Eh]
	 SCS Correlation Energy    =      -0.2822515095138079 [Eh]
	 SCS Total Energy          =     -76.3426110517243757 [Eh]
	-----------------------------------------------------------


*** tstop() called on ddmfs1 at Mon Jan 22 21:13:19 2024
Module time:
	user time   =      19.45 seconds =       0.32 minutes
	system time =       1.16 seconds =       0.02 minutes
	total time  =          4 seconds =       0.07 minutes
Total time:
	user time   =      80.52 seconds =       1.34 minutes
	system time =       4.52 seconds =       0.08 minutes
	total time  =          8 seconds =       0.13 minutes

    Psi4 stopped on: Monday, 22 January 2024 09:13PM
    Psi4 wall time for execution: 0:00:07.60

*** Psi4 exiting successfully. Buy a developer a beer!
