
    -----------------------------------------------------------------------
          Psi4: An Open-Source Ab Initio Electronic Structure Package
                               Psi4 1.8.2 release

                         Git: Rev {} zzzzzzz 


    D. G. A. Smith, L. A. Burns, A. C. Simmonett, R. M. Parrish,
    M. C. Schieber, R. Galvelis, P. Kraus, H. Kruse, R. Di Remigio,
    A. Alenaizan, A. M. James, S. Lehtola, J. P. Misiewicz, M. Scheurer,
    R. A. Shaw, J. B. Schriber, Y. Xie, Z. L. Glick, D. A. Sirianni,
    J. S. O'Brien, J. M. Waldrop, A. Kumar, E. G. Hohenstein,
    B. P. Pritchard, B. R. Brooks, H. F. Schaefer III, A. Yu. Sokolov,
    K. Patkowski, A. E. DePrince III, U. Bozkaya, R. A. King,
    F. A. Evangelista, J. M. Turney, T. D. Crawford, C. D. Sherrill,
    J. Chem. Phys. 152(18) 184108 (2020). https://doi.org/10.1063/5.0006002

                            Additional Code Authors
    E. T. Seidl, C. L. Janssen, E. F. Valeev, M. L. Leininger,
    J. F. Gonthier, R. M. Richard, H. R. McAlexander, M. Saitow, X. Wang,
    P. Verma, M. H. Lechner, A. Jiang, S. Behnle, A. G. Heide,
    M. F. Herbst, and D. L. Poole

             Previous Authors, Complete List of Code Contributors,
                       and Citations for Specific Modules
    https://github.com/psi4/psi4/blob/master/codemeta.json
    https://github.com/psi4/psi4/graphs/contributors
    http://psicode.org/psi4manual/master/introduction.html#citing-psifour

    -----------------------------------------------------------------------


    Psi4 started on: Monday, 22 January 2024 09:36PM

    Process ID: 110068
    Host:       ddmfs1
    PSIDATADIR: /ddmfs1b/softs/psi4conda/share/psi4
    Memory:     500.0 MiB
    Threads:    20
    
  ==> Input File <==

--------------------------------------------------------------------------
MEMORY 60 GB

molecule dimer {
-1 1
Cl         0.000000     0.000000     0.000000
O          1.349723     3.144590     0.491977
H          0.675618     2.449119     0.560682
H          1.543742     3.300192    -0.440350
O         -0.434395     1.153350    -2.878709
H         -0.293618     0.819358    -1.949994
H         -1.094274     1.844104    -2.701477
O         -0.112666    -3.172677    -0.818981
H         -0.440484    -3.464567    -1.684643
H         -0.573775    -2.384919    -0.634122
O          2.707321     0.923269    -1.525442
H          1.858217     0.675925    -1.212679
H          2.622540     1.151439    -2.426239
O         -2.976873     1.483817    -0.382684
H         -2.949395     2.384073    -0.726030
H         -2.058380     1.184344    -0.550989

units ang
no_reorient
no_com
symmetry c1
}

set {
basis        aug-cc-pVTZ
scf_type     df
}

energy("mp2")
--------------------------------------------------------------------------

  Memory set to  55.879 GiB by Python driver.

Scratch directory: /ddmfs1a/scratch/
   => Libint2 <=

    Primary   basis highest AM E, G, H:  5, 4, 3
    Auxiliary basis highest AM E, G, H:  6, 5, 4
    Onebody   basis highest AM E, G, H:  6, 5, 4
    Solid Harmonics ordering:            gaussian

*** tstart() called on ddmfs1
*** at Mon Jan 22 21:36:06 2024

   => Loading Basis Set <=

    Name: AUG-CC-PVTZ
    Role: ORBITAL
    Keyword: BASIS
    atoms 1                            entry CL         line   988 file /ddmfs1b/softs/psi4conda/share/psi4/basis/aug-cc-pvtz.gbs 
    atoms 2, 5, 8, 11, 14              entry O          line   331 file /ddmfs1b/softs/psi4conda/share/psi4/basis/aug-cc-pvtz.gbs 
    atoms 3-4, 6-7, 9-10, 12-13, 15-16 entry H          line    40 file /ddmfs1b/softs/psi4conda/share/psi4/basis/aug-cc-pvtz.gbs 


         ---------------------------------------------------------
                                   SCF
               by Justin Turney, Rob Parrish, Andy Simmonett
                          and Daniel G. A. Smith
                              RHF Reference
                       20 Threads,  57220 MiB Core
         ---------------------------------------------------------

  ==> Geometry <==

    Molecular point group: c1
    Full point group: C1

    Geometry (in Angstrom), charge = -1, multiplicity = 1:

       Center              X                  Y                   Z               Mass       
    ------------   -----------------  -----------------  -----------------  -----------------
         CL           0.000000000000     0.000000000000     0.000000000000    34.968852682000
         O            1.349723000000     3.144590000000     0.491977000000    15.994914619570
         H            0.675618000000     2.449119000000     0.560682000000     1.007825032230
         H            1.543742000000     3.300192000000    -0.440350000000     1.007825032230
         O           -0.434395000000     1.153350000000    -2.878709000000    15.994914619570
         H           -0.293618000000     0.819358000000    -1.949994000000     1.007825032230
         H           -1.094274000000     1.844104000000    -2.701477000000     1.007825032230
         O           -0.112666000000    -3.172677000000    -0.818981000000    15.994914619570
         H           -0.440484000000    -3.464567000000    -1.684643000000     1.007825032230
         H           -0.573775000000    -2.384919000000    -0.634122000000     1.007825032230
         O            2.707321000000     0.923269000000    -1.525442000000    15.994914619570
         H            1.858217000000     0.675925000000    -1.212679000000     1.007825032230
         H            2.622540000000     1.151439000000    -2.426239000000     1.007825032230
         O           -2.976873000000     1.483817000000    -0.382684000000    15.994914619570
         H           -2.949395000000     2.384073000000    -0.726030000000     1.007825032230
         H           -2.058380000000     1.184344000000    -0.550989000000     1.007825032230

  Running in c1 symmetry.

  Rotational constants: A =      0.03270  B =      0.02566  C =      0.02216 [cm^-1]
  Rotational constants: A =    980.31388  B =    769.23209  C =    664.39862 [MHz]
  Nuclear repulsion =  307.587782530461766

  Charge       = -1
  Multiplicity = 1
  Electrons    = 68
  Nalpha       = 34
  Nbeta        = 34

  ==> Algorithm <==

  SCF Algorithm Type is DF.
  DIIS enabled.
  MOM disabled.
  Fractional occupation disabled.
  Guess Type is SAD.
  Energy threshold   = 1.00e-08
  Density threshold  = 1.00e-08
  Integral threshold = 1.00e-12

  ==> Primary Basis <==

  Basis Set: AUG-CC-PVTZ
    Blend: AUG-CC-PVTZ
    Number of shells: 176
    Number of basis functions: 510
    Number of Cartesian functions: 584
    Spherical Harmonics?: true
    Max angular momentum: 3

   => Loading Basis Set <=

    Name: (AUG-CC-PVTZ AUX)
    Role: JKFIT
    Keyword: DF_BASIS_SCF
    atoms 1                            entry CL         line   816 file /ddmfs1b/softs/psi4conda/share/psi4/basis/aug-cc-pvtz-jkfit.gbs 
    atoms 2, 5, 8, 11, 14              entry O          line   286 file /ddmfs1b/softs/psi4conda/share/psi4/basis/aug-cc-pvtz-jkfit.gbs 
    atoms 3-4, 6-7, 9-10, 12-13, 15-16 entry H          line    70 file /ddmfs1b/softs/psi4conda/share/psi4/basis/aug-cc-pvtz-jkfit.gbs 

  ==> Integral Setup <==

  DFHelper Memory: AOs need 2.015 GiB; user supplied 41.910 GiB. 
  Using in-core AOs.

  ==> MemDFJK: Density-Fitted J/K Matrices <==

    J tasked:                   Yes
    K tasked:                   Yes
    wK tasked:                   No
    OpenMP threads:              20
    Memory [MiB]:             42915
    Algorithm:                 Core
    Schwarz Cutoff:           1E-12
    Mask sparsity (%):      12.2776
    Fitting Condition:        1E-10

   => Auxiliary Basis Set <=

  Basis Set: (AUG-CC-PVTZ AUX)
    Blend: AUG-CC-PVTZ-JKFIT
    Number of shells: 332
    Number of basis functions: 1126
    Number of Cartesian functions: 1385
    Spherical Harmonics?: true
    Max angular momentum: 4

  Minimum eigenvalue in the overlap matrix is 1.4974333430E-04.
  Reciprocal condition number of the overlap matrix is 1.1193754275E-05.
    Using symmetric orthogonalization.

  ==> Pre-Iterations <==

  SCF Guess: Superposition of Atomic Densities via on-the-fly atomic UHF (no occupation information).

   -------------------------
    Irrep   Nso     Nmo    
   -------------------------
     A        510     510 
   -------------------------
    Total     510     510
   -------------------------

  ==> Iterations <==

                           Total Energy        Delta E     RMS |[F,P]|

   @DF-RHF iter SAD:  -836.87455433412242   -8.36875e+02   0.00000e+00 
   @DF-RHF iter   1:  -839.48871527577990   -2.61416e+00   2.09078e-03 DIIS/ADIIS
   @DF-RHF iter   2:  -839.76310239599377   -2.74387e-01   1.41096e-03 DIIS/ADIIS
   @DF-RHF iter   3:  -839.92303981036309   -1.59937e-01   1.02257e-04 DIIS/ADIIS
   @DF-RHF iter   4:  -839.92518993828639   -2.15013e-03   3.52314e-05 DIIS
   @DF-RHF iter   5:  -839.92539019071626   -2.00252e-04   8.98612e-06 DIIS
   @DF-RHF iter   6:  -839.92540990305474   -1.97123e-05   3.27222e-06 DIIS
   @DF-RHF iter   7:  -839.92541212890649   -2.22585e-06   1.10792e-06 DIIS
   @DF-RHF iter   8:  -839.92541244455037   -3.15644e-07   2.64213e-07 DIIS
   @DF-RHF iter   9:  -839.92541246800147   -2.34511e-08   5.44872e-08 DIIS
   @DF-RHF iter  10:  -839.92541246884775   -8.46285e-10   2.04682e-08 DIIS
   @DF-RHF iter  11:  -839.92541246891028   -6.25278e-11   5.94452e-09 DIIS
  Energy and wave function converged.


  ==> Post-Iterations <==

    Orbital Energies [Eh]
    ---------------------

    Doubly Occupied:                                                      

       1A   -104.589137     2A    -20.440579     3A    -20.430147  
       4A    -20.424398     5A    -20.420249     6A    -20.405931  
       7A    -10.314345     8A     -7.780472     9A     -7.780374  
      10A     -7.780351    11A     -1.220603    12A     -1.216351  
      13A     -1.210699    14A     -1.206177    15A     -1.200371  
      16A     -0.833826    17A     -0.584932    18A     -0.582929  
      19A     -0.576130    20A     -0.575889    21A     -0.558927  
      22A     -0.469309    23A     -0.452474    24A     -0.446539  
      25A     -0.435777    26A     -0.432706    27A     -0.383070  
      28A     -0.372518    29A     -0.371426    30A     -0.368980  
      31A     -0.353972    32A     -0.246043    33A     -0.243401  
      34A     -0.241938  

    Virtual:                                                              

      35A      0.111715    36A      0.121172    37A      0.128576  
      38A      0.141194    39A      0.145164    40A      0.160190  
      41A      0.164516    42A      0.176031    43A      0.187128  
      44A      0.193271    45A      0.226544    46A      0.246997  
      47A      0.251701    48A      0.260292    49A      0.263225  
      50A      0.268724    51A      0.275271    52A      0.288637  
      53A      0.292503    54A      0.294447    55A      0.300725  
      56A      0.308115    57A      0.315952    58A      0.317856  
      59A      0.325144    60A      0.328573    61A      0.332358  
      62A      0.334737    63A      0.349297    64A      0.353547  
      65A      0.360148    66A      0.366614    67A      0.368366  
      68A      0.375169    69A      0.379376    70A      0.388199  
      71A      0.399961    72A      0.406051    73A      0.417429  
      74A      0.419663    75A      0.440381    76A      0.446167  
      77A      0.449183    78A      0.458208    79A      0.462305  
      80A      0.470310    81A      0.477012    82A      0.485661  
      83A      0.504665    84A      0.509369    85A      0.517267  
      86A      0.522472    87A      0.526876    88A      0.529307  
      89A      0.536911    90A      0.546421    91A      0.553995  
      92A      0.560196    93A      0.567218    94A      0.575870  
      95A      0.587760    96A      0.593826    97A      0.599553  
      98A      0.607429    99A      0.615873   100A      0.623784  
     101A      0.635768   102A      0.654943   103A      0.665061  
     104A      0.683936   105A      0.699431   106A      0.703516  
     107A      0.707574   108A      0.719117   109A      0.731618  
     110A      0.747682   111A      0.748901   112A      0.757514  
     113A      0.770297   114A      0.778993   115A      0.796901  
     116A      0.807425   117A      0.820528   118A      0.827902  
     119A      0.835886   120A      0.838997   121A      0.854144  
     122A      0.863645   123A      0.864590   124A      0.866062  
     125A      0.872906   126A      0.880091   127A      0.889895  
     128A      0.898672   129A      0.909317   130A      0.914859  
     131A      0.924522   132A      0.927435   133A      0.932839  
     134A      0.945202   135A      0.968344   136A      0.969974  
     137A      0.975323   138A      0.988495   139A      0.994129  
     140A      0.996721   141A      1.007988   142A      1.010409  
     143A      1.020866   144A      1.029179   145A      1.032600  
     146A      1.038418   147A      1.043607   148A      1.053582  
     149A      1.054773   150A      1.061435   151A      1.068916  
     152A      1.074767   153A      1.086732   154A      1.093677  
     155A      1.095072   156A      1.100278   157A      1.109506  
     158A      1.118903   159A      1.122800   160A      1.128874  
     161A      1.136392   162A      1.142242   163A      1.153037  
     164A      1.158843   165A      1.168031   166A      1.177702  
     167A      1.181862   168A      1.193674   169A      1.196983  
     170A      1.199794   171A      1.213001   172A      1.220194  
     173A      1.226228   174A      1.227425   175A      1.234842  
     176A      1.241389   177A      1.252256   178A      1.260861  
     179A      1.267666   180A      1.276854   181A      1.294470  
     182A      1.298980   183A      1.304721   184A      1.315216  
     185A      1.321626   186A      1.328910   187A      1.344209  
     188A      1.353254   189A      1.362885   190A      1.369585  
     191A      1.374768   192A      1.381051   193A      1.385840  
     194A      1.397101   195A      1.406011   196A      1.412400  
     197A      1.420834   198A      1.434276   199A      1.445072  
     200A      1.454929   201A      1.470643   202A      1.472602  
     203A      1.481280   204A      1.503571   205A      1.513429  
     206A      1.520244   207A      1.530242   208A      1.545881  
     209A      1.555701   210A      1.576938   211A      1.588368  
     212A      1.609849   213A      1.625486   214A      1.628413  
     215A      1.660968   216A      1.662870   217A      1.679657  
     218A      1.684922   219A      1.690976   220A      1.697976  
     221A      1.722451   222A      1.729414   223A      1.737981  
     224A      1.746822   225A      1.767887   226A      1.769514  
     227A      1.779556   228A      1.800159   229A      1.819716  
     230A      1.825887   231A      1.842045   232A      1.855565  
     233A      1.862087   234A      1.874698   235A      1.893389  
     236A      1.919688   237A      1.926108   238A      1.946631  
     239A      1.955099   240A      1.976291   241A      1.990724  
     242A      2.006641   243A      2.023038   244A      2.039807  
     245A      2.058728   246A      2.062451   247A      2.077873  
     248A      2.097497   249A      2.113414   250A      2.114558  
     251A      2.142655   252A      2.155916   253A      2.171502  
     254A      2.198919   255A      2.219893   256A      2.237928  
     257A      2.248026   258A      2.287561   259A      2.353506  
     260A      2.394854   261A      2.443866   262A      2.454000  
     263A      2.475262   264A      2.484430   265A      2.493328  
     266A      2.500994   267A      2.515042   268A      2.527628  
     269A      2.540282   270A      2.560230   271A      2.568211  
     272A      2.576309   273A      2.584305   274A      2.591893  
     275A      2.602129   276A      2.606184   277A      2.617458  
     278A      2.631828   279A      2.638907   280A      2.648457  
     281A      2.662322   282A      2.667535   283A      2.671610  
     284A      2.677855   285A      2.683582   286A      2.707929  
     287A      2.720614   288A      2.722331   289A      2.735917  
     290A      2.754526   291A      2.763199   292A      2.776700  
     293A      2.802886   294A      2.807028   295A      2.815441  
     296A      2.828739   297A      2.850032   298A      2.858787  
     299A      2.869998   300A      2.882836   301A      2.895617  
     302A      2.901697   303A      2.905118   304A      2.926006  
     305A      2.936458   306A      2.948362   307A      2.962697  
     308A      2.970586   309A      2.985819   310A      2.993754  
     311A      2.999092   312A      3.012438   313A      3.024001  
     314A      3.029762   315A      3.050047   316A      3.069496  
     317A      3.083197   318A      3.096567   319A      3.105099  
     320A      3.124606   321A      3.132039   322A      3.159302  
     323A      3.175296   324A      3.219191   325A      3.227348  
     326A      3.278732   327A      3.291980   328A      3.311518  
     329A      3.363959   330A      3.462337   331A      3.509087  
     332A      3.517450   333A      3.602922   334A      3.613682  
     335A      3.661684   336A      3.689052   337A      3.724963  
     338A      3.768964   339A      3.786891   340A      3.869018  
     341A      3.887241   342A      3.900440   343A      3.960062  
     344A      4.006079   345A      4.043404   346A      4.096017  
     347A      4.130733   348A      4.192351   349A      4.221863  
     350A      4.228806   351A      4.247137   352A      4.251761  
     353A      4.292746   354A      4.329455   355A      4.353364  
     356A      4.359638   357A      4.364820   358A      4.370541  
     359A      4.400518   360A      4.409559   361A      4.420640  
     362A      4.425898   363A      4.447890   364A      4.452422  
     365A      4.456523   366A      4.463588   367A      4.472813  
     368A      4.484446   369A      4.507294   370A      4.511246  
     371A      4.519279   372A      4.536857   373A      4.541710  
     374A      4.561346   375A      4.569154   376A      4.576317  
     377A      4.578901   378A      4.579679   379A      4.591853  
     380A      4.608685   381A      4.620327   382A      4.627040  
     383A      4.634270   384A      4.657966   385A      4.662460  
     386A      4.679825   387A      4.707628   388A      4.720588  
     389A      4.746135   390A      4.757442   391A      4.787816  
     392A      4.802515   393A      4.810865   394A      4.837684  
     395A      4.922266   396A      4.929883   397A      4.946308  
     398A      5.004629   399A      5.012191   400A      5.032233  
     401A      5.075856   402A      5.093568   403A      5.152981  
     404A      5.195897   405A      5.258954   406A      5.270813  
     407A      5.303425   408A      5.308165   409A      5.324826  
     410A      5.326617   411A      5.343617   412A      5.394363  
     413A      5.414154   414A      5.416325   415A      5.453846  
     416A      5.465800   417A      5.480544   418A      5.502173  
     419A      5.516888   420A      5.519330   421A      5.530044  
     422A      5.588225   423A      5.592352   424A      5.649815  
     425A      5.657616   426A      5.664024   427A      5.714073  
     428A      5.761126   429A      5.780886   430A      5.807471  
     431A      5.814819   432A      5.880615   433A      5.919208  
     434A      6.017649   435A      6.345432   436A      6.368511  
     437A      6.420690   438A      6.424822   439A      6.498408  
     440A      6.676150   441A      6.691786   442A      6.701769  
     443A      6.719430   444A      6.750844   445A      6.923631  
     446A      6.933787   447A      6.966051   448A      6.982842  
     449A      7.035123   450A      7.050005   451A      7.096868  
     452A      7.111566   453A      7.144000   454A      7.164728  
     455A      7.270547   456A      7.293990   457A      7.337597  
     458A      7.346013   459A      7.357811   460A      7.405151  
     461A      7.414723   462A      7.431379   463A      7.441652  
     464A      7.448947   465A      7.459403   466A      7.459983  
     467A      7.470642   468A      7.479311   469A      7.491065  
     470A      7.501375   471A      7.509898   472A      7.518172  
     473A      7.529241   474A      7.541630   475A      7.548198  
     476A      7.563691   477A      7.567923   478A      7.583950  
     479A      7.612895   480A      7.625403   481A      7.636769  
     482A      7.664509   483A      7.685997   484A      7.700881  
     485A      7.741855   486A      7.794759   487A      7.822685  
     488A      7.854031   489A      7.900460   490A      8.033142  
     491A      8.062659   492A      8.070887   493A      8.081592  
     494A      8.122615   495A      8.128663   496A      8.145877  
     497A      8.170258   498A      8.175406   499A      8.217664  
     500A      8.340479   501A      8.902990   502A      8.932867  
     503A      8.940103   504A      9.003020   505A      9.122613  
     506A     16.186996   507A     16.231741   508A     16.455958  
     509A     16.531956   510A     17.842427  

    Final Occupation by Irrep:
              A 
    DOCC [    34 ]
    NA   [    34 ]
    NB   [    34 ]

  @DF-RHF Final Energy:  -839.92541246891028

   => Energetics <=

    Nuclear Repulsion Energy =            307.5877825304617659
    One-Electron Energy =               -1785.1244384522265136
    Two-Electron Energy =                 637.6112434528545236
    Total Energy =                       -839.9254124689102809

Computation Completed


Properties will be evaluated at   0.000000,   0.000000,   0.000000 [a0]

Properties computed using the SCF density matrix


 Multipole Moments:

 ------------------------------------------------------------------------------------
     Multipole            Electronic (a.u.)      Nuclear  (a.u.)        Total (a.u.)
 ------------------------------------------------------------------------------------

 L = 1.  Multiply by 2.5417464519 to convert [e a0] to [Debye]
 Dipole X            :         -7.7798689            6.7181105           -1.0617583
 Dipole Y            :        -68.4611868           68.4418363           -0.0193505
 Dipole Z            :         99.2424089          -99.5442584           -0.3018495
 Magnitude           :                                                    1.1040010

 ------------------------------------------------------------------------------------

*** tstop() called on ddmfs1 at Mon Jan 22 21:36:15 2024
Module time:
	user time   =     141.17 seconds =       2.35 minutes
	system time =       8.53 seconds =       0.14 minutes
	total time  =          9 seconds =       0.15 minutes
Total time:
	user time   =     141.17 seconds =       2.35 minutes
	system time =       8.53 seconds =       0.14 minutes
	total time  =          9 seconds =       0.15 minutes

*** tstart() called on ddmfs1
*** at Mon Jan 22 21:36:15 2024


  //>>>>>>>>>>>>>>>>>>>>>>>>>>>>>>>>>>>//
  //               DFMP2               //
  //<<<<<<<<<<<<<<<<<<<<<<<<<<<<<<<<<<<//

   => Loading Basis Set <=

    Name: (AUG-CC-PVTZ AUX)
    Role: RIFIT
    Keyword: DF_BASIS_MP2
    atoms 1                            entry CL         line   742 file /ddmfs1b/softs/psi4conda/share/psi4/basis/aug-cc-pvtz-ri.gbs 
    atoms 2, 5, 8, 11, 14              entry O          line   264 file /ddmfs1b/softs/psi4conda/share/psi4/basis/aug-cc-pvtz-ri.gbs 
    atoms 3-4, 6-7, 9-10, 12-13, 15-16 entry H          line    30 file /ddmfs1b/softs/psi4conda/share/psi4/basis/aug-cc-pvtz-ri.gbs 

	 --------------------------------------------------------
	                          DF-MP2                         
	      2nd-Order Density-Fitted Moller-Plesset Theory     
	              RMP2 Wavefunction,  20 Threads             
	                                                         
	        Rob Parrish, Justin Turney, Andy Simmonett,      
	           Ed Hohenstein, and C. David Sherrill          
	 --------------------------------------------------------

   => Auxiliary Basis Set <=

  Basis Set: (AUG-CC-PVTZ AUX)
    Blend: AUG-CC-PVTZ-RI
    Number of shells: 317
    Number of basis functions: 1137
    Number of Cartesian functions: 1421
    Spherical Harmonics?: true
    Max angular momentum: 4

	 --------------------------------------------------------
	                 NBF =   510, NAUX =  1137
	 --------------------------------------------------------
	   CLASS    FOCC     OCC    AOCC    AVIR     VIR    FVIR
	   PAIRS       0      34      34     476     476       0
	 --------------------------------------------------------

	-----------------------------------------------------------
	 ==================> DF-MP2 Energies <==================== 
	-----------------------------------------------------------
	 Reference Energy          =    -839.9254124689102809 [Eh]
	 Singles Energy            =      -0.0000000000000000 [Eh]
	 Same-Spin Energy          =      -0.4167905485989913 [Eh]
	 Opposite-Spin Energy      =      -1.2731249325105833 [Eh]
	 Correlation Energy        =      -1.6899154811095747 [Eh]
	 Total Energy              =    -841.6153279500198323 [Eh]
	-----------------------------------------------------------
	 ================> DF-SCS-MP2 Energies <================== 
	-----------------------------------------------------------
	 SCS Same-Spin Scale       =       0.3333333333333333 [-]
	 SCS Opposite-Spin Scale   =       1.2000000000000000 [-]
	 SCS Same-Spin Energy      =      -0.1389301828663304 [Eh]
	 SCS Opposite-Spin Energy  =      -1.5277499190127000 [Eh]
	 SCS Correlation Energy    =      -1.6666801018790305 [Eh]
	 SCS Total Energy          =    -841.5920925707893048 [Eh]
	-----------------------------------------------------------


*** tstop() called on ddmfs1 at Mon Jan 22 21:36:21 2024
Module time:
	user time   =      46.59 seconds =       0.78 minutes
	system time =       2.37 seconds =       0.04 minutes
	total time  =          6 seconds =       0.10 minutes
Total time:
	user time   =     187.78 seconds =       3.13 minutes
	system time =      10.90 seconds =       0.18 minutes
	total time  =         15 seconds =       0.25 minutes

    Psi4 stopped on: Monday, 22 January 2024 09:36PM
    Psi4 wall time for execution: 0:00:15.12

*** Psi4 exiting successfully. Buy a developer a beer!
