
    -----------------------------------------------------------------------
          Psi4: An Open-Source Ab Initio Electronic Structure Package
                               Psi4 1.8.2 release

                         Git: Rev {} zzzzzzz 


    D. G. A. Smith, L. A. Burns, A. C. Simmonett, R. M. Parrish,
    M. C. Schieber, R. Galvelis, P. Kraus, H. Kruse, R. Di Remigio,
    A. Alenaizan, A. M. James, S. Lehtola, J. P. Misiewicz, M. Scheurer,
    R. A. Shaw, J. B. Schriber, Y. Xie, Z. L. Glick, D. A. Sirianni,
    J. S. O'Brien, J. M. Waldrop, A. Kumar, E. G. Hohenstein,
    B. P. Pritchard, B. R. Brooks, H. F. Schaefer III, A. Yu. Sokolov,
    K. Patkowski, A. E. DePrince III, U. Bozkaya, R. A. King,
    F. A. Evangelista, J. M. Turney, T. D. Crawford, C. D. Sherrill,
    J. Chem. Phys. 152(18) 184108 (2020). https://doi.org/10.1063/5.0006002

                            Additional Code Authors
    E. T. Seidl, C. L. Janssen, E. F. Valeev, M. L. Leininger,
    J. F. Gonthier, R. M. Richard, H. R. McAlexander, M. Saitow, X. Wang,
    P. Verma, M. H. Lechner, A. Jiang, S. Behnle, A. G. Heide,
    M. F. Herbst, and D. L. Poole

             Previous Authors, Complete List of Code Contributors,
                       and Citations for Specific Modules
    https://github.com/psi4/psi4/blob/master/codemeta.json
    https://github.com/psi4/psi4/graphs/contributors
    http://psicode.org/psi4manual/master/introduction.html#citing-psifour

    -----------------------------------------------------------------------


    Psi4 started on: Monday, 22 January 2024 08:35PM

    Process ID: 104297
    Host:       ddmfs1
    PSIDATADIR: /ddmfs1b/softs/psi4conda/share/psi4
    Memory:     500.0 MiB
    Threads:    20
    
  ==> Input File <==

--------------------------------------------------------------------------
MEMORY 60 GB

molecule dimer {
0 1
Gh(Cl)     0.000000     0.000000     0.000000
Gh(O)      3.015981     0.151241    -1.457305
Gh(H)      2.845971    -0.567435    -2.049500
Gh(H)      2.230828     0.149298    -0.843213
Gh(O)     -2.797673    -0.644207    -1.757639
Gh(H)     -2.491546    -1.380346    -2.302014
Gh(H)     -2.015250    -0.495737    -1.259297
O         -0.715759     3.330850    -0.769336
H          0.052831     3.505661    -0.203645
H         -0.556393     2.470762    -1.223557
Gh(O)      0.652205     0.435816    -3.215109
Gh(H)      1.085218     1.200515    -2.995505
Gh(H)      0.387193     0.144769    -2.312401
Gh(O)      1.503331     1.130459     2.879779
Gh(H)      1.109970     0.660961     2.083685
Gh(H)      1.604155     0.401707     3.533176
Gh(O)      0.517922    -3.056007    -0.636675
Gh(H)     -0.210470    -3.438063    -1.173663
Gh(H)      0.434987    -2.108656    -0.643081

units ang
no_reorient
no_com
symmetry c1
}

set {
basis        aug-cc-pVTZ
scf_type     df
}

energy("mp2")
--------------------------------------------------------------------------

  Memory set to  55.879 GiB by Python driver.

Scratch directory: /ddmfs1a/scratch/
   => Libint2 <=

    Primary   basis highest AM E, G, H:  5, 4, 3
    Auxiliary basis highest AM E, G, H:  6, 5, 4
    Onebody   basis highest AM E, G, H:  6, 5, 4
    Solid Harmonics ordering:            gaussian

*** tstart() called on ddmfs1
*** at Mon Jan 22 20:35:42 2024

   => Loading Basis Set <=

    Name: AUG-CC-PVTZ
    Role: ORBITAL
    Keyword: BASIS
    atoms 1                                   entry CL         line   988 file /ddmfs1b/softs/psi4conda/share/psi4/basis/aug-cc-pvtz.gbs 
    atoms 2, 5, 8, 11, 14, 17                 entry O          line   331 file /ddmfs1b/softs/psi4conda/share/psi4/basis/aug-cc-pvtz.gbs 
    atoms 3-4, 6-7, 9-10, 12-13, 15-16, 18-19 entry H          line    40 file /ddmfs1b/softs/psi4conda/share/psi4/basis/aug-cc-pvtz.gbs 


         ---------------------------------------------------------
                                   SCF
               by Justin Turney, Rob Parrish, Andy Simmonett
                          and Daniel G. A. Smith
                              RHF Reference
                       20 Threads,  57220 MiB Core
         ---------------------------------------------------------

  ==> Geometry <==

    Molecular point group: c1
    Full point group: C1

    Geometry (in Angstrom), charge = 0, multiplicity = 1:

       Center              X                  Y                   Z               Mass       
    ------------   -----------------  -----------------  -----------------  -----------------
      Gh(CL)          0.000000000000     0.000000000000     0.000000000000    34.968852682000
      Gh(O)           3.015981000000     0.151241000000    -1.457305000000    15.994914619570
      Gh(H)           2.845971000000    -0.567435000000    -2.049500000000     1.007825032230
      Gh(H)           2.230828000000     0.149298000000    -0.843213000000     1.007825032230
      Gh(O)          -2.797673000000    -0.644207000000    -1.757639000000    15.994914619570
      Gh(H)          -2.491546000000    -1.380346000000    -2.302014000000     1.007825032230
      Gh(H)          -2.015250000000    -0.495737000000    -1.259297000000     1.007825032230
         O           -0.715759000000     3.330850000000    -0.769336000000    15.994914619570
         H            0.052831000000     3.505661000000    -0.203645000000     1.007825032230
         H           -0.556393000000     2.470762000000    -1.223557000000     1.007825032230
      Gh(O)           0.652205000000     0.435816000000    -3.215109000000    15.994914619570
      Gh(H)           1.085218000000     1.200515000000    -2.995505000000     1.007825032230
      Gh(H)           0.387193000000     0.144769000000    -2.312401000000     1.007825032230
      Gh(O)           1.503331000000     1.130459000000     2.879779000000    15.994914619570
      Gh(H)           1.109970000000     0.660961000000     2.083685000000     1.007825032230
      Gh(H)           1.604155000000     0.401707000000     3.533176000000     1.007825032230
      Gh(O)           0.517922000000    -3.056007000000    -0.636675000000    15.994914619570
      Gh(H)          -0.210470000000    -3.438063000000    -1.173663000000     1.007825032230
      Gh(H)           0.434987000000    -2.108656000000    -0.643081000000     1.007825032230

  Running in c1 symmetry.

  Rotational constants: A =      0.02375  B =      0.02066  C =      0.01945 [cm^-1]
  Rotational constants: A =    711.94354  B =    619.47865  C =    583.13330 [MHz]
  Nuclear repulsion =    8.994437349140185

  Charge       = 0
  Multiplicity = 1
  Electrons    = 10
  Nalpha       = 5
  Nbeta        = 5

  ==> Algorithm <==

  SCF Algorithm Type is DF.
  DIIS enabled.
  MOM disabled.
  Fractional occupation disabled.
  Guess Type is SAD.
  Energy threshold   = 1.00e-08
  Density threshold  = 1.00e-08
  Integral threshold = 1.00e-12

  ==> Primary Basis <==

  Basis Set: AUG-CC-PVTZ
    Blend: AUG-CC-PVTZ
    Number of shells: 208
    Number of basis functions: 602
    Number of Cartesian functions: 689
    Spherical Harmonics?: true
    Max angular momentum: 3

   => Loading Basis Set <=

    Name: (AUG-CC-PVTZ AUX)
    Role: JKFIT
    Keyword: DF_BASIS_SCF
    atoms 1                                   entry CL         line   816 file /ddmfs1b/softs/psi4conda/share/psi4/basis/aug-cc-pvtz-jkfit.gbs 
    atoms 2, 5, 8, 11, 14, 17                 entry O          line   286 file /ddmfs1b/softs/psi4conda/share/psi4/basis/aug-cc-pvtz-jkfit.gbs 
    atoms 3-4, 6-7, 9-10, 12-13, 15-16, 18-19 entry H          line    70 file /ddmfs1b/softs/psi4conda/share/psi4/basis/aug-cc-pvtz-jkfit.gbs 

  ==> Integral Setup <==

  DFHelper Memory: AOs need 3.172 GiB; user supplied 41.910 GiB. 
  Using in-core AOs.

  ==> MemDFJK: Density-Fitted J/K Matrices <==

    J tasked:                   Yes
    K tasked:                   Yes
    wK tasked:                   No
    OpenMP threads:              20
    Memory [MiB]:             42915
    Algorithm:                 Core
    Schwarz Cutoff:           1E-12
    Mask sparsity (%):      15.0484
    Fitting Condition:        1E-10

   => Auxiliary Basis Set <=

  Basis Set: (AUG-CC-PVTZ AUX)
    Blend: AUG-CC-PVTZ-JKFIT
    Number of shells: 390
    Number of basis functions: 1322
    Number of Cartesian functions: 1626
    Spherical Harmonics?: true
    Max angular momentum: 4

  Minimum eigenvalue in the overlap matrix is 9.9647318184E-05.
  Reciprocal condition number of the overlap matrix is 7.0707148313E-06.
    Using symmetric orthogonalization.

  ==> Pre-Iterations <==

  SCF Guess: Superposition of Atomic Densities via on-the-fly atomic UHF (no occupation information).

   -------------------------
    Irrep   Nso     Nmo    
   -------------------------
     A        602     602 
   -------------------------
    Total     602     602
   -------------------------

  ==> Iterations <==

                           Total Energy        Delta E     RMS |[F,P]|

   @DF-RHF iter SAD:   -75.45116523308036   -7.54512e+01   0.00000e+00 
   @DF-RHF iter   1:   -75.97337182500112   -5.22207e-01   7.75756e-04 ADIIS/DIIS
   @DF-RHF iter   2:   -76.02517735745722   -5.18055e-02   5.38450e-04 ADIIS/DIIS
   @DF-RHF iter   3:   -76.05783079967738   -3.26534e-02   3.67287e-05 DIIS
   @DF-RHF iter   4:   -76.05825019376817   -4.19394e-04   9.16186e-06 DIIS
   @DF-RHF iter   5:   -76.05827883835862   -2.86446e-05   2.11155e-06 DIIS
   @DF-RHF iter   6:   -76.05828126129268   -2.42293e-06   4.70289e-07 DIIS
   @DF-RHF iter   7:   -76.05828139301416   -1.31721e-07   8.64128e-08 DIIS
   @DF-RHF iter   8:   -76.05828139689615   -3.88199e-09   1.47929e-08 DIIS
   @DF-RHF iter   9:   -76.05828139698858   -9.24274e-11   3.83173e-09 DIIS
  Energy and wave function converged.


  ==> Post-Iterations <==

    Orbital Energies [Eh]
    ---------------------

    Doubly Occupied:                                                      

       1A    -20.569416     2A     -1.341247     3A     -0.711749  
       4A     -0.575476     5A     -0.507803  

    Virtual:                                                              

       6A      0.013583     7A      0.029166     8A      0.034636  
       9A      0.038185    10A      0.050511    11A      0.053974  
      12A      0.058222    13A      0.061942    14A      0.064537  
      15A      0.073793    16A      0.078305    17A      0.084811  
      18A      0.101070    19A      0.118008    20A      0.121092  
      21A      0.123614    22A      0.128276    23A      0.138696  
      24A      0.142584    25A      0.145199    26A      0.150608  
      27A      0.158616    28A      0.160436    29A      0.162111  
      30A      0.169023    31A      0.177735    32A      0.179273  
      33A      0.183004    34A      0.187501    35A      0.197056  
      36A      0.200085    37A      0.205521    38A      0.210518  
      39A      0.220423    40A      0.228870    41A      0.232848  
      42A      0.234537    43A      0.242196    44A      0.243214  
      45A      0.250504    46A      0.266469    47A      0.272761  
      48A      0.281524    49A      0.287587    50A      0.291803  
      51A      0.294723    52A      0.304146    53A      0.307810  
      54A      0.312265    55A      0.321978    56A      0.322368  
      57A      0.331558    58A      0.337963    59A      0.343588  
      60A      0.346561    61A      0.351628    62A      0.359318  
      63A      0.359711    64A      0.364332    65A      0.374475  
      66A      0.382394    67A      0.386550    68A      0.395205  
      69A      0.396815    70A      0.399726    71A      0.404909  
      72A      0.412670    73A      0.422878    74A      0.429713  
      75A      0.434284    76A      0.438587    77A      0.442239  
      78A      0.447662    79A      0.452851    80A      0.459101  
      81A      0.474419    82A      0.479590    83A      0.487790  
      84A      0.497704    85A      0.509938    86A      0.512945  
      87A      0.530845    88A      0.533459    89A      0.540720  
      90A      0.549154    91A      0.562001    92A      0.581275  
      93A      0.591449    94A      0.608503    95A      0.611019  
      96A      0.624650    97A      0.635578    98A      0.655228  
      99A      0.666397   100A      0.671898   101A      0.683759  
     102A      0.687922   103A      0.694922   104A      0.697564  
     105A      0.716686   106A      0.723076   107A      0.726769  
     108A      0.736478   109A      0.747591   110A      0.752793  
     111A      0.760660   112A      0.762138   113A      0.771342  
     114A      0.775793   115A      0.779819   116A      0.785052  
     117A      0.795637   118A      0.798527   119A      0.804296  
     120A      0.809298   121A      0.811553   122A      0.818269  
     123A      0.824219   124A      0.835839   125A      0.837642  
     126A      0.841087   127A      0.848686   128A      0.852129  
     129A      0.856798   130A      0.858253   131A      0.862932  
     132A      0.875086   133A      0.878371   134A      0.883036  
     135A      0.886966   136A      0.895918   137A      0.897830  
     138A      0.905094   139A      0.907301   140A      0.912793  
     141A      0.916364   142A      0.919258   143A      0.925264  
     144A      0.938982   145A      0.947218   146A      0.952175  
     147A      0.966876   148A      0.969861   149A      0.976711  
     150A      0.982449   151A      0.987691   152A      0.993689  
     153A      1.000450   154A      1.004304   155A      1.013781  
     156A      1.015159   157A      1.022253   158A      1.030103  
     159A      1.032094   160A      1.037538   161A      1.039554  
     162A      1.045122   163A      1.049873   164A      1.055753  
     165A      1.061338   166A      1.066490   167A      1.076697  
     168A      1.082276   169A      1.095855   170A      1.101839  
     171A      1.104980   172A      1.109749   173A      1.112748  
     174A      1.124706   175A      1.131092   176A      1.135645  
     177A      1.146724   178A      1.156547   179A      1.162110  
     180A      1.171711   181A      1.188576   182A      1.194981  
     183A      1.212728   184A      1.216314   185A      1.224983  
     186A      1.230058   187A      1.235203   188A      1.246565  
     189A      1.255843   190A      1.261932   191A      1.275460  
     192A      1.281577   193A      1.294809   194A      1.306925  
     195A      1.308947   196A      1.322984   197A      1.334186  
     198A      1.348633   199A      1.357416   200A      1.363616  
     201A      1.366399   202A      1.383874   203A      1.390119  
     204A      1.396038   205A      1.404113   206A      1.417336  
     207A      1.420563   208A      1.428336   209A      1.447048  
     210A      1.452895   211A      1.459853   212A      1.471578  
     213A      1.482270   214A      1.487841   215A      1.497976  
     216A      1.514717   217A      1.529624   218A      1.538229  
     219A      1.551307   220A      1.554928   221A      1.573227  
     222A      1.585418   223A      1.595959   224A      1.606238  
     225A      1.618765   226A      1.625514   227A      1.641421  
     228A      1.659292   229A      1.681347   230A      1.692617  
     231A      1.712639   232A      1.720176   233A      1.727481  
     234A      1.740013   235A      1.747010   236A      1.750742  
     237A      1.760114   238A      1.769942   239A      1.780305  
     240A      1.786833   241A      1.796772   242A      1.805992  
     243A      1.811286   244A      1.822093   245A      1.839672  
     246A      1.843264   247A      1.853858   248A      1.857089  
     249A      1.861859   250A      1.870226   251A      1.882993  
     252A      1.894492   253A      1.903484   254A      1.911020  
     255A      1.926725   256A      1.946053   257A      1.954211  
     258A      1.960999   259A      1.968296   260A      1.980987  
     261A      2.004349   262A      2.010132   263A      2.026963  
     264A      2.044788   265A      2.066756   266A      2.076289  
     267A      2.095105   268A      2.108799   269A      2.134098  
     270A      2.136514   271A      2.155723   272A      2.155946  
     273A      2.185965   274A      2.209454   275A      2.233753  
     276A      2.253733   277A      2.270912   278A      2.297270  
     279A      2.324532   280A      2.351468   281A      2.371882  
     282A      2.422255   283A      2.450532   284A      2.456601  
     285A      2.467644   286A      2.471064   287A      2.493117  
     288A      2.496900   289A      2.503179   290A      2.510894  
     291A      2.521418   292A      2.530373   293A      2.532604  
     294A      2.539942   295A      2.556108   296A      2.562081  
     297A      2.577427   298A      2.583629   299A      2.594011  
     300A      2.601087   301A      2.618737   302A      2.642999  
     303A      2.651289   304A      2.654842   305A      2.674688  
     306A      2.679338   307A      2.682964   308A      2.697989  
     309A      2.712592   310A      2.722647   311A      2.728067  
     312A      2.728173   313A      2.742986   314A      2.754605  
     315A      2.762877   316A      2.775004   317A      2.787240  
     318A      2.794616   319A      2.814453   320A      2.825934  
     321A      2.835436   322A      2.841904   323A      2.863471  
     324A      2.879988   325A      2.890150   326A      2.902800  
     327A      2.918475   328A      2.931485   329A      2.949371  
     330A      2.964521   331A      2.983245   332A      3.017378  
     333A      3.035166   334A      3.048266   335A      3.059843  
     336A      3.070073   337A      3.076060   338A      3.160064  
     339A      3.166234   340A      3.186256   341A      3.203827  
     342A      3.213669   343A      3.227540   344A      3.235529  
     345A      3.257646   346A      3.278621   347A      3.314787  
     348A      3.318982   349A      3.339774   350A      3.343146  
     351A      3.361831   352A      3.389959   353A      3.411896  
     354A      3.429916   355A      3.434442   356A      3.478649  
     357A      3.495823   358A      3.500414   359A      3.523914  
     360A      3.545144   361A      3.576272   362A      3.591349  
     363A      3.612383   364A      3.653155   365A      3.671330  
     366A      3.694685   367A      3.713743   368A      3.731625  
     369A      3.811977   370A      3.817145   371A      3.837125  
     372A      3.867487   373A      3.875670   374A      3.892981  
     375A      4.084865   376A      4.147429   377A      4.172395  
     378A      4.233477   379A      4.250087   380A      4.257960  
     381A      4.276541   382A      4.319273   383A      4.336393  
     384A      4.352995   385A      4.369196   386A      4.377452  
     387A      4.390085   388A      4.402999   389A      4.419363  
     390A      4.438331   391A      4.449405   392A      4.458724  
     393A      4.466316   394A      4.479196   395A      4.483292  
     396A      4.494171   397A      4.498137   398A      4.503120  
     399A      4.508035   400A      4.519985   401A      4.538784  
     402A      4.553340   403A      4.564725   404A      4.576052  
     405A      4.582180   406A      4.596357   407A      4.601573  
     408A      4.635299   409A      4.640359   410A      4.648134  
     411A      4.655185   412A      4.657496   413A      4.678235  
     414A      4.700477   415A      4.738877   416A      4.749489  
     417A      4.760379   418A      4.771337   419A      4.778623  
     420A      4.806470   421A      4.813428   422A      4.823568  
     423A      4.853169   424A      4.861239   425A      4.871102  
     426A      4.878266   427A      4.881986   428A      4.886749  
     429A      4.898434   430A      4.908753   431A      4.928422  
     432A      4.932468   433A      4.939772   434A      4.955406  
     435A      4.969384   436A      4.994004   437A      5.011700  
     438A      5.029216   439A      5.083895   440A      5.104879  
     441A      5.120928   442A      5.156276   443A      5.162434  
     444A      5.182636   445A      5.222434   446A      5.245693  
     447A      5.252141   448A      5.282471   449A      5.299772  
     450A      5.307699   451A      5.318267   452A      5.339610  
     453A      5.347493   454A      5.394364   455A      5.441002  
     456A      5.477133   457A      5.499458   458A      5.512376  
     459A      5.532371   460A      5.550717   461A      5.556286  
     462A      5.573864   463A      5.605822   464A      5.632582  
     465A      5.639838   466A      5.674872   467A      5.702735  
     468A      5.705611   469A      5.730038   470A      5.735262  
     471A      5.764970   472A      5.841236   473A      5.849850  
     474A      5.879616   475A      5.932709   476A      5.972752  
     477A      6.044163   478A      6.132230   479A      6.162846  
     480A      6.168389   481A      6.185001   482A      6.194555  
     483A      6.220166   484A      6.343384   485A      6.387098  
     486A      6.416390   487A      6.450581   488A      6.506978  
     489A      6.536724   490A      6.575075   491A      6.653697  
     492A      6.733110   493A      6.774781   494A      6.785007  
     495A      6.809246   496A      6.892866   497A      6.939715  
     498A      7.094445   499A      7.129513   500A      7.170616  
     501A      7.196462   502A      7.253400   503A      7.292468  
     504A      7.307605   505A      7.347266   506A      7.367524  
     507A      7.464251   508A      7.660741   509A      7.675079  
     510A      7.735892   511A      7.760356   512A      7.775408  
     513A      7.808597   514A      7.818712   515A      7.837476  
     516A      7.889423   517A      7.910318   518A      7.955948  
     519A      7.964552   520A      7.994954   521A      8.003310  
     522A      8.078497   523A      8.090186   524A      8.102044  
     525A      8.145304   526A      8.157721   527A      8.208136  
     528A      8.219166   529A      8.227202   530A      8.257577  
     531A      8.287300   532A      8.312738   533A      8.321169  
     534A      8.343572   535A      8.418418   536A      8.656818  
     537A      8.712354   538A      8.774548   539A      8.792149  
     540A      8.804505   541A      8.842823   542A      8.887207  
     543A      8.995303   544A      9.039795   545A      9.080226  
     546A      9.090909   547A      9.636113   548A      9.729616  
     549A      9.778200   550A      9.793678   551A      9.846149  
     552A      9.856362   553A      9.877420   554A      9.921403  
     555A      9.925612   556A      9.980247   557A     10.043721  
     558A     10.068553   559A     10.075098   560A     10.093702  
     561A     10.145930   562A     10.282555   563A     10.327662  
     564A     10.332570   565A     10.358094   566A     10.369726  
     567A     11.033225   568A     11.128147   569A     11.138534  
     570A     11.294027   571A     11.321704   572A     11.621479  
     573A     11.767155   574A     11.786478   575A     11.794497  
     576A     11.832871   577A     11.911853   578A     12.138224  
     579A     12.182890   580A     12.339369   581A     12.592114  
     582A     13.428129   583A     13.604150   584A     13.675842  
     585A     13.704275   586A     13.876280   587A     13.939471  
     588A     13.960541   589A     14.003471   590A     14.035016  
     591A     14.066969   592A     15.756556   593A     16.494476  
     594A     28.376674   595A     28.416292   596A     28.471755  
     597A     64.123312   598A     65.843829   599A     66.768943  
     600A     67.584235   601A     68.186480   602A    161.012434  

    Final Occupation by Irrep:
              A 
    DOCC [     5 ]
    NA   [     5 ]
    NB   [     5 ]

  @DF-RHF Final Energy:   -76.05828139698858

   => Energetics <=

    Nuclear Repulsion Energy =              8.9944373491401848
    One-Electron Energy =                -122.6940510078376008
    Two-Electron Energy =                  37.6413322617088255
    Total Energy =                        -76.0582813969885905

Computation Completed


Properties will be evaluated at   0.000000,   0.000000,   0.000000 [a0]

Properties computed using the SCF density matrix


 Multipole Moments:

 ------------------------------------------------------------------------------------
     Multipole            Electronic (a.u.)      Nuclear  (a.u.)        Total (a.u.)
 ------------------------------------------------------------------------------------

 L = 1.  Multiply by 2.5417464519 to convert [e a0] to [Debye]
 Dipole X            :         12.3879409          -11.7723021            0.6156388
 Dipole Y            :        -62.1014809           61.6489568           -0.4525241
 Dipole Z            :         14.4028085          -14.3276956            0.0751129
 Magnitude           :                                                    0.7677442

 ------------------------------------------------------------------------------------

*** tstop() called on ddmfs1 at Mon Jan 22 20:35:51 2024
Module time:
	user time   =     130.25 seconds =       2.17 minutes
	system time =       6.45 seconds =       0.11 minutes
	total time  =          9 seconds =       0.15 minutes
Total time:
	user time   =     130.25 seconds =       2.17 minutes
	system time =       6.45 seconds =       0.11 minutes
	total time  =          9 seconds =       0.15 minutes

*** tstart() called on ddmfs1
*** at Mon Jan 22 20:35:51 2024


  //>>>>>>>>>>>>>>>>>>>>>>>>>>>>>>>>>>>//
  //               DFMP2               //
  //<<<<<<<<<<<<<<<<<<<<<<<<<<<<<<<<<<<//

   => Loading Basis Set <=

    Name: (AUG-CC-PVTZ AUX)
    Role: RIFIT
    Keyword: DF_BASIS_MP2
    atoms 1                                   entry CL         line   742 file /ddmfs1b/softs/psi4conda/share/psi4/basis/aug-cc-pvtz-ri.gbs 
    atoms 2, 5, 8, 11, 14, 17                 entry O          line   264 file /ddmfs1b/softs/psi4conda/share/psi4/basis/aug-cc-pvtz-ri.gbs 
    atoms 3-4, 6-7, 9-10, 12-13, 15-16, 18-19 entry H          line    30 file /ddmfs1b/softs/psi4conda/share/psi4/basis/aug-cc-pvtz-ri.gbs 

	 --------------------------------------------------------
	                          DF-MP2                         
	      2nd-Order Density-Fitted Moller-Plesset Theory     
	              RMP2 Wavefunction,  20 Threads             
	                                                         
	        Rob Parrish, Justin Turney, Andy Simmonett,      
	           Ed Hohenstein, and C. David Sherrill          
	 --------------------------------------------------------

   => Auxiliary Basis Set <=

  Basis Set: (AUG-CC-PVTZ AUX)
    Blend: AUG-CC-PVTZ-RI
    Number of shells: 373
    Number of basis functions: 1335
    Number of Cartesian functions: 1667
    Spherical Harmonics?: true
    Max angular momentum: 4

	 --------------------------------------------------------
	                 NBF =   602, NAUX =  1335
	 --------------------------------------------------------
	   CLASS    FOCC     OCC    AOCC    AVIR     VIR    FVIR
	   PAIRS       0       5       5     597     597       0
	 --------------------------------------------------------

	-----------------------------------------------------------
	 ==================> DF-MP2 Energies <==================== 
	-----------------------------------------------------------
	 Reference Energy          =     -76.0582813969885763 [Eh]
	 Singles Energy            =      -0.0000000000000000 [Eh]
	 Same-Spin Energy          =      -0.0686928306819383 [Eh]
	 Opposite-Spin Energy      =      -0.2166147269523842 [Eh]
	 Correlation Energy        =      -0.2853075576343225 [Eh]
	 Total Energy              =     -76.3435889546229021 [Eh]
	-----------------------------------------------------------
	 ================> DF-SCS-MP2 Energies <================== 
	-----------------------------------------------------------
	 SCS Same-Spin Scale       =       0.3333333333333333 [-]
	 SCS Opposite-Spin Scale   =       1.2000000000000000 [-]
	 SCS Same-Spin Energy      =      -0.0228976102273128 [Eh]
	 SCS Opposite-Spin Energy  =      -0.2599376723428611 [Eh]
	 SCS Correlation Energy    =      -0.2828352825701739 [Eh]
	 SCS Total Energy          =     -76.3411166795587519 [Eh]
	-----------------------------------------------------------


*** tstop() called on ddmfs1 at Mon Jan 22 20:35:58 2024
Module time:
	user time   =      34.90 seconds =       0.58 minutes
	system time =       2.12 seconds =       0.04 minutes
	total time  =          7 seconds =       0.12 minutes
Total time:
	user time   =     165.17 seconds =       2.75 minutes
	system time =       8.58 seconds =       0.14 minutes
	total time  =         16 seconds =       0.27 minutes

    Psi4 stopped on: Monday, 22 January 2024 08:35PM
    Psi4 wall time for execution: 0:00:15.43

*** Psi4 exiting successfully. Buy a developer a beer!
