
    -----------------------------------------------------------------------
          Psi4: An Open-Source Ab Initio Electronic Structure Package
                               Psi4 1.8.2 release

                         Git: Rev {} zzzzzzz 


    D. G. A. Smith, L. A. Burns, A. C. Simmonett, R. M. Parrish,
    M. C. Schieber, R. Galvelis, P. Kraus, H. Kruse, R. Di Remigio,
    A. Alenaizan, A. M. James, S. Lehtola, J. P. Misiewicz, M. Scheurer,
    R. A. Shaw, J. B. Schriber, Y. Xie, Z. L. Glick, D. A. Sirianni,
    J. S. O'Brien, J. M. Waldrop, A. Kumar, E. G. Hohenstein,
    B. P. Pritchard, B. R. Brooks, H. F. Schaefer III, A. Yu. Sokolov,
    K. Patkowski, A. E. DePrince III, U. Bozkaya, R. A. King,
    F. A. Evangelista, J. M. Turney, T. D. Crawford, C. D. Sherrill,
    J. Chem. Phys. 152(18) 184108 (2020). https://doi.org/10.1063/5.0006002

                            Additional Code Authors
    E. T. Seidl, C. L. Janssen, E. F. Valeev, M. L. Leininger,
    J. F. Gonthier, R. M. Richard, H. R. McAlexander, M. Saitow, X. Wang,
    P. Verma, M. H. Lechner, A. Jiang, S. Behnle, A. G. Heide,
    M. F. Herbst, and D. L. Poole

             Previous Authors, Complete List of Code Contributors,
                       and Citations for Specific Modules
    https://github.com/psi4/psi4/blob/master/codemeta.json
    https://github.com/psi4/psi4/graphs/contributors
    http://psicode.org/psi4manual/master/introduction.html#citing-psifour

    -----------------------------------------------------------------------


    Psi4 started on: Monday, 22 January 2024 09:08PM

    Process ID: 107466
    Host:       ddmfs1
    PSIDATADIR: /ddmfs1b/softs/psi4conda/share/psi4
    Memory:     500.0 MiB
    Threads:    20
    
  ==> Input File <==

--------------------------------------------------------------------------
MEMORY 60 GB

molecule dimer {
0 1
Gh(Cl)     0.000000     0.000000     0.000000
Gh(O)      0.601726    -2.589847     1.985255
Gh(H)      0.625102    -1.734398     1.410853
Gh(H)      0.202443    -2.311978     2.805266
Gh(O)      1.654373     2.108704     2.134861
Gh(H)      1.639621     3.020507     1.745273
Gh(H)      1.118820     1.502198     1.596433
O         -1.660561     0.569143     2.400854
H         -1.309075     0.235507     1.599810
H         -1.163770     0.257029     3.177412
Gh(O)     -1.490632    -2.685195    -0.853034
Gh(H)     -1.987793    -3.157702    -0.165193
Gh(H)     -0.816107    -2.123214    -0.480627
Gh(O)      3.208264     0.379661    -0.437533
Gh(H)      3.780426     0.542681     0.324217
Gh(H)      2.259776     0.321939    -0.255342

units ang
no_reorient
no_com
symmetry c1
}

set {
basis        aug-cc-pVTZ
scf_type     df
}

energy("mp2")
--------------------------------------------------------------------------

  Memory set to  55.879 GiB by Python driver.

Scratch directory: /ddmfs1a/scratch/
   => Libint2 <=

    Primary   basis highest AM E, G, H:  5, 4, 3
    Auxiliary basis highest AM E, G, H:  6, 5, 4
    Onebody   basis highest AM E, G, H:  6, 5, 4
    Solid Harmonics ordering:            gaussian

*** tstart() called on ddmfs1
*** at Mon Jan 22 21:08:06 2024

   => Loading Basis Set <=

    Name: AUG-CC-PVTZ
    Role: ORBITAL
    Keyword: BASIS
    atoms 1                            entry CL         line   988 file /ddmfs1b/softs/psi4conda/share/psi4/basis/aug-cc-pvtz.gbs 
    atoms 2, 5, 8, 11, 14              entry O          line   331 file /ddmfs1b/softs/psi4conda/share/psi4/basis/aug-cc-pvtz.gbs 
    atoms 3-4, 6-7, 9-10, 12-13, 15-16 entry H          line    40 file /ddmfs1b/softs/psi4conda/share/psi4/basis/aug-cc-pvtz.gbs 


         ---------------------------------------------------------
                                   SCF
               by Justin Turney, Rob Parrish, Andy Simmonett
                          and Daniel G. A. Smith
                              RHF Reference
                       20 Threads,  57220 MiB Core
         ---------------------------------------------------------

  ==> Geometry <==

    Molecular point group: c1
    Full point group: C1

    Geometry (in Angstrom), charge = 0, multiplicity = 1:

       Center              X                  Y                   Z               Mass       
    ------------   -----------------  -----------------  -----------------  -----------------
      Gh(CL)          0.000000000000     0.000000000000     0.000000000000    34.968852682000
      Gh(O)           0.601726000000    -2.589847000000     1.985255000000    15.994914619570
      Gh(H)           0.625102000000    -1.734398000000     1.410853000000     1.007825032230
      Gh(H)           0.202443000000    -2.311978000000     2.805266000000     1.007825032230
      Gh(O)           1.654373000000     2.108704000000     2.134861000000    15.994914619570
      Gh(H)           1.639621000000     3.020507000000     1.745273000000     1.007825032230
      Gh(H)           1.118820000000     1.502198000000     1.596433000000     1.007825032230
         O           -1.660561000000     0.569143000000     2.400854000000    15.994914619570
         H           -1.309075000000     0.235507000000     1.599810000000     1.007825032230
         H           -1.163770000000     0.257029000000     3.177412000000     1.007825032230
      Gh(O)          -1.490632000000    -2.685195000000    -0.853034000000    15.994914619570
      Gh(H)          -1.987793000000    -3.157702000000    -0.165193000000     1.007825032230
      Gh(H)          -0.816107000000    -2.123214000000    -0.480627000000     1.007825032230
      Gh(O)           3.208264000000     0.379661000000    -0.437533000000    15.994914619570
      Gh(H)           3.780426000000     0.542681000000     0.324217000000     1.007825032230
      Gh(H)           2.259776000000     0.321939000000    -0.255342000000     1.007825032230

  Running in c1 symmetry.

  Rotational constants: A =      0.03527  B =      0.02549  C =      0.02317 [cm^-1]
  Rotational constants: A =   1057.30612  B =    764.16267  C =    694.76540 [MHz]
  Nuclear repulsion =    9.205432030071899

  Charge       = 0
  Multiplicity = 1
  Electrons    = 10
  Nalpha       = 5
  Nbeta        = 5

  ==> Algorithm <==

  SCF Algorithm Type is DF.
  DIIS enabled.
  MOM disabled.
  Fractional occupation disabled.
  Guess Type is SAD.
  Energy threshold   = 1.00e-08
  Density threshold  = 1.00e-08
  Integral threshold = 1.00e-12

  ==> Primary Basis <==

  Basis Set: AUG-CC-PVTZ
    Blend: AUG-CC-PVTZ
    Number of shells: 176
    Number of basis functions: 510
    Number of Cartesian functions: 584
    Spherical Harmonics?: true
    Max angular momentum: 3

   => Loading Basis Set <=

    Name: (AUG-CC-PVTZ AUX)
    Role: JKFIT
    Keyword: DF_BASIS_SCF
    atoms 1                            entry CL         line   816 file /ddmfs1b/softs/psi4conda/share/psi4/basis/aug-cc-pvtz-jkfit.gbs 
    atoms 2, 5, 8, 11, 14              entry O          line   286 file /ddmfs1b/softs/psi4conda/share/psi4/basis/aug-cc-pvtz-jkfit.gbs 
    atoms 3-4, 6-7, 9-10, 12-13, 15-16 entry H          line    70 file /ddmfs1b/softs/psi4conda/share/psi4/basis/aug-cc-pvtz-jkfit.gbs 

  ==> Integral Setup <==

  DFHelper Memory: AOs need 2.026 GiB; user supplied 41.910 GiB. 
  Using in-core AOs.

  ==> MemDFJK: Density-Fitted J/K Matrices <==

    J tasked:                   Yes
    K tasked:                   Yes
    wK tasked:                   No
    OpenMP threads:              20
    Memory [MiB]:             42915
    Algorithm:                 Core
    Schwarz Cutoff:           1E-12
    Mask sparsity (%):      11.7609
    Fitting Condition:        1E-10

   => Auxiliary Basis Set <=

  Basis Set: (AUG-CC-PVTZ AUX)
    Blend: AUG-CC-PVTZ-JKFIT
    Number of shells: 332
    Number of basis functions: 1126
    Number of Cartesian functions: 1385
    Spherical Harmonics?: true
    Max angular momentum: 4

  Minimum eigenvalue in the overlap matrix is 1.5652832093E-04.
  Reciprocal condition number of the overlap matrix is 1.1970165041E-05.
    Using symmetric orthogonalization.

  ==> Pre-Iterations <==

  SCF Guess: Superposition of Atomic Densities via on-the-fly atomic UHF (no occupation information).

   -------------------------
    Irrep   Nso     Nmo    
   -------------------------
     A        510     510 
   -------------------------
    Total     510     510
   -------------------------

  ==> Iterations <==

                           Total Energy        Delta E     RMS |[F,P]|

   @DF-RHF iter SAD:   -75.47331455570078   -7.54733e+01   0.00000e+00 
   @DF-RHF iter   1:   -75.97558199453698   -5.02267e-01   9.20643e-04 ADIIS/DIIS
   @DF-RHF iter   2:   -76.02804163836049   -5.24596e-02   6.20485e-04 ADIIS/DIIS
   @DF-RHF iter   3:   -76.05875932755562   -3.07177e-02   4.21027e-05 DIIS
   @DF-RHF iter   4:   -76.05915142854690   -3.92101e-04   1.00694e-05 DIIS
   @DF-RHF iter   5:   -76.05917559105798   -2.41625e-05   2.28438e-06 DIIS
   @DF-RHF iter   6:   -76.05917761512055   -2.02406e-06   5.19761e-07 DIIS
   @DF-RHF iter   7:   -76.05917773207835   -1.16958e-07   1.00786e-07 DIIS
   @DF-RHF iter   8:   -76.05917773597899   -3.90064e-09   1.63395e-08 DIIS
   @DF-RHF iter   9:   -76.05917773605987   -8.08740e-11   4.06540e-09 DIIS
  Energy and wave function converged.


  ==> Post-Iterations <==

    Orbital Energies [Eh]
    ---------------------

    Doubly Occupied:                                                      

       1A    -20.563095     2A     -1.349831     3A     -0.733328  
       4A     -0.570506     5A     -0.508274  

    Virtual:                                                              

       6A      0.015584     7A      0.031909     8A      0.036028  
       9A      0.042252    10A      0.050877    11A      0.061007  
      12A      0.061804    13A      0.064294    14A      0.073744  
      15A      0.075397    16A      0.100466    17A      0.113095  
      18A      0.120376    19A      0.124139    20A      0.130720  
      21A      0.141764    22A      0.142414    23A      0.146025  
      24A      0.159044    25A      0.159616    26A      0.168066  
      27A      0.172819    28A      0.178335    29A      0.185810  
      30A      0.189699    31A      0.195838    32A      0.198449  
      33A      0.207817    34A      0.212789    35A      0.222504  
      36A      0.225082    37A      0.231411    38A      0.236755  
      39A      0.253607    40A      0.254996    41A      0.266236  
      42A      0.277228    43A      0.280474    44A      0.286726  
      45A      0.303561    46A      0.306980    47A      0.315032  
      48A      0.324186    49A      0.326461    50A      0.336537  
      51A      0.338416    52A      0.349165    53A      0.353063  
      54A      0.358795    55A      0.366229    56A      0.369267  
      57A      0.377676    58A      0.380865    59A      0.383640  
      60A      0.386575    61A      0.396593    62A      0.411649  
      63A      0.413045    64A      0.419317    65A      0.423640  
      66A      0.440794    67A      0.449267    68A      0.452918  
      69A      0.464489    70A      0.477648    71A      0.480689  
      72A      0.489688    73A      0.490514    74A      0.502575  
      75A      0.509597    76A      0.523045    77A      0.539512  
      78A      0.560374    79A      0.576808    80A      0.585212  
      81A      0.605949    82A      0.626319    83A      0.634826  
      84A      0.649533    85A      0.656000    86A      0.666598  
      87A      0.669126    88A      0.676734    89A      0.699609  
      90A      0.705444    91A      0.711407    92A      0.722678  
      93A      0.732820    94A      0.738552    95A      0.744662  
      96A      0.755892    97A      0.759342    98A      0.769753  
      99A      0.781005   100A      0.785180   101A      0.800857  
     102A      0.804696   103A      0.807643   104A      0.818304  
     105A      0.823247   106A      0.824639   107A      0.830339  
     108A      0.837479   109A      0.844355   110A      0.849643  
     111A      0.851899   112A      0.857706   113A      0.869859  
     114A      0.877038   115A      0.879548   116A      0.882266  
     117A      0.883635   118A      0.893854   119A      0.902933  
     120A      0.909821   121A      0.914575   122A      0.932083  
     123A      0.939435   124A      0.943349   125A      0.945806  
     126A      0.953318   127A      0.957390   128A      0.966786  
     129A      0.974190   130A      0.976866   131A      0.987333  
     132A      0.998127   133A      1.004142   134A      1.017333  
     135A      1.019188   136A      1.033591   137A      1.035761  
     138A      1.046105   139A      1.050769   140A      1.057074  
     141A      1.063362   142A      1.067295   143A      1.075970  
     144A      1.078427   145A      1.095125   146A      1.096791  
     147A      1.104159   148A      1.114903   149A      1.120459  
     150A      1.137873   151A      1.146000   152A      1.156590  
     153A      1.162974   154A      1.166141   155A      1.171557  
     156A      1.179658   157A      1.194056   158A      1.203236  
     159A      1.225250   160A      1.226645   161A      1.240836  
     162A      1.259856   163A      1.261449   164A      1.270310  
     165A      1.285763   166A      1.292983   167A      1.302535  
     168A      1.312519   169A      1.312782   170A      1.343379  
     171A      1.347281   172A      1.369767   173A      1.371245  
     174A      1.384472   175A      1.403935   176A      1.407593  
     177A      1.421138   178A      1.432418   179A      1.438971  
     180A      1.459923   181A      1.465650   182A      1.479028  
     183A      1.484991   184A      1.487947   185A      1.508619  
     186A      1.524362   187A      1.527362   188A      1.537961  
     189A      1.563232   190A      1.602853   191A      1.626340  
     192A      1.632722   193A      1.645479   194A      1.660842  
     195A      1.666669   196A      1.688319   197A      1.712183  
     198A      1.712902   199A      1.724239   200A      1.728365  
     201A      1.750118   202A      1.754209   203A      1.763320  
     204A      1.766514   205A      1.773638   206A      1.782738  
     207A      1.795011   208A      1.800474   209A      1.806660  
     210A      1.821853   211A      1.824676   212A      1.849701  
     213A      1.860499   214A      1.869767   215A      1.885956  
     216A      1.890329   217A      1.919189   218A      1.926350  
     219A      1.939379   220A      1.950653   221A      1.966115  
     222A      1.981857   223A      1.996538   224A      2.005839  
     225A      2.016080   226A      2.034472   227A      2.051150  
     228A      2.076824   229A      2.087416   230A      2.114103  
     231A      2.129009   232A      2.134236   233A      2.159440  
     234A      2.179880   235A      2.188418   236A      2.214035  
     237A      2.245568   238A      2.275121   239A      2.386035  
     240A      2.432332   241A      2.449568   242A      2.457728  
     243A      2.466527   244A      2.475599   245A      2.493658  
     246A      2.500933   247A      2.509132   248A      2.516341  
     249A      2.535049   250A      2.547042   251A      2.550835  
     252A      2.567802   253A      2.572286   254A      2.597094  
     255A      2.606867   256A      2.620127   257A      2.629472  
     258A      2.645604   259A      2.656482   260A      2.664121  
     261A      2.668383   262A      2.671293   263A      2.683705  
     264A      2.706053   265A      2.712315   266A      2.722972  
     267A      2.740353   268A      2.758714   269A      2.763005  
     270A      2.768500   271A      2.799274   272A      2.805982  
     273A      2.816696   274A      2.844220   275A      2.853104  
     276A      2.856903   277A      2.889083   278A      2.907625  
     279A      2.926948   280A      2.949883   281A      2.962535  
     282A      3.009256   283A      3.015621   284A      3.045921  
     285A      3.065079   286A      3.075757   287A      3.147550  
     288A      3.180415   289A      3.198304   290A      3.200503  
     291A      3.211958   292A      3.222543   293A      3.235429  
     294A      3.246471   295A      3.253979   296A      3.294305  
     297A      3.311798   298A      3.332811   299A      3.347430  
     300A      3.361492   301A      3.381981   302A      3.411597  
     303A      3.427809   304A      3.479948   305A      3.520609  
     306A      3.529709   307A      3.543527   308A      3.614703  
     309A      3.628103   310A      3.647381   311A      3.659112  
     312A      3.785886   313A      3.793547   314A      3.810419  
     315A      3.836979   316A      3.853546   317A      4.041446  
     318A      4.115270   319A      4.155442   320A      4.205158  
     321A      4.235645   322A      4.262670   323A      4.267676  
     324A      4.291642   325A      4.318875   326A      4.328820  
     327A      4.350307   328A      4.359038   329A      4.388214  
     330A      4.396616   331A      4.404148   332A      4.423162  
     333A      4.434391   334A      4.444331   335A      4.460984  
     336A      4.479333   337A      4.487147   338A      4.497688  
     339A      4.503173   340A      4.517032   341A      4.531397  
     342A      4.532560   343A      4.563392   344A      4.575045  
     345A      4.577489   346A      4.592599   347A      4.598211  
     348A      4.626101   349A      4.637521   350A      4.651407  
     351A      4.665925   352A      4.669875   353A      4.678809  
     354A      4.688220   355A      4.702460   356A      4.753122  
     357A      4.771003   358A      4.776685   359A      4.790062  
     360A      4.811125   361A      4.832840   362A      4.851883  
     363A      4.889665   364A      4.900280   365A      4.905754  
     366A      4.908423   367A      4.925762   368A      4.933592  
     369A      4.968650   370A      4.990763   371A      4.997706  
     372A      5.012387   373A      5.060313   374A      5.064658  
     375A      5.115733   376A      5.124372   377A      5.139805  
     378A      5.154220   379A      5.174256   380A      5.195306  
     381A      5.208619   382A      5.230356   383A      5.259886  
     384A      5.291199   385A      5.311817   386A      5.404345  
     387A      5.431167   388A      5.439781   389A      5.465031  
     390A      5.493015   391A      5.506108   392A      5.531510  
     393A      5.550426   394A      5.553443   395A      5.566546  
     396A      5.596825   397A      5.646400   398A      5.665553  
     399A      5.684263   400A      5.715145   401A      5.730119  
     402A      5.752480   403A      5.795373   404A      5.802223  
     405A      5.834962   406A      5.955727   407A      6.159993  
     408A      6.175019   409A      6.185038   410A      6.203103  
     411A      6.208997   412A      6.307732   413A      6.344400  
     414A      6.370262   415A      6.389871   416A      6.553736  
     417A      6.606983   418A      6.771482   419A      6.804699  
     420A      6.828919   421A      6.896627   422A      6.915397  
     423A      7.007836   424A      7.053348   425A      7.107756  
     426A      7.125261   427A      7.212303   428A      7.305568  
     429A      7.348844   430A      7.406553   431A      7.505040  
     432A      7.562892   433A      7.662908   434A      7.716694  
     435A      7.726908   436A      7.730708   437A      7.752742  
     438A      7.776957   439A      7.779460   440A      7.808596  
     441A      7.843110   442A      7.970945   443A      8.042245  
     444A      8.084439   445A      8.125352   446A      8.141539  
     447A      8.181198   448A      8.194737   449A      8.218404  
     450A      8.265174   451A      8.265867   452A      8.273397  
     453A      8.279743   454A      8.353937   455A      8.382375  
     456A      8.688524   457A      8.698900   458A      8.736095  
     459A      8.774470   460A      8.806988   461A      8.823183  
     462A      8.975632   463A      9.018249   464A      9.078938  
     465A      9.714541   466A      9.753946   467A      9.767518  
     468A      9.769446   469A      9.842583   470A      9.850493  
     471A      9.875099   472A      9.900977   473A     10.077201  
     474A     10.092525   475A     10.098122   476A     10.108808  
     477A     10.235596   478A     10.261019   479A     10.289159  
     480A     10.301169   481A     10.950673   482A     11.035345  
     483A     11.062394   484A     11.132279   485A     11.715017  
     486A     11.733470   487A     11.749558   488A     11.811597  
     489A     11.983856   490A     12.029026   491A     12.172067  
     492A     12.182145   493A     13.485490   494A     13.497419  
     495A     13.567522   496A     13.584153   497A     13.953000  
     498A     13.973316   499A     14.010430   500A     14.020462  
     501A     16.143073   502A     17.255412   503A     28.226553  
     504A     28.384621   505A     28.511490   506A     64.598189  
     507A     65.531411   508A     66.254455   509A     66.597610  
     510A    160.966796  

    Final Occupation by Irrep:
              A 
    DOCC [     5 ]
    NA   [     5 ]
    NB   [     5 ]

  @DF-RHF Final Energy:   -76.05917773605987

   => Energetics <=

    Nuclear Repulsion Energy =              9.2054320300718988
    One-Electron Energy =                -123.0791488283838504
    Two-Electron Energy =                  37.8145390622520878
    Total Energy =                        -76.0591777360598655

Computation Completed


Properties will be evaluated at   0.000000,   0.000000,   0.000000 [a0]

Properties computed using the SCF density matrix


 Multipole Moments:

 ------------------------------------------------------------------------------------
     Multipole            Electronic (a.u.)      Nuclear  (a.u.)        Total (a.u.)
 ------------------------------------------------------------------------------------

 L = 1.  Multiply by 2.5417464519 to convert [e a0] to [Debye]
 Dipole X            :         30.3555465          -29.7770438            0.5785027
 Dipole Y            :         -9.9759429            9.5349533           -0.4409896
 Dipole Z            :        -45.3452169           45.3232934           -0.0219235
 Magnitude           :                                                    0.7277485

 ------------------------------------------------------------------------------------

*** tstop() called on ddmfs1 at Mon Jan 22 21:08:12 2024
Module time:
	user time   =      91.31 seconds =       1.52 minutes
	system time =       4.82 seconds =       0.08 minutes
	total time  =          6 seconds =       0.10 minutes
Total time:
	user time   =      91.31 seconds =       1.52 minutes
	system time =       4.82 seconds =       0.08 minutes
	total time  =          6 seconds =       0.10 minutes

*** tstart() called on ddmfs1
*** at Mon Jan 22 21:08:12 2024


  //>>>>>>>>>>>>>>>>>>>>>>>>>>>>>>>>>>>//
  //               DFMP2               //
  //<<<<<<<<<<<<<<<<<<<<<<<<<<<<<<<<<<<//

   => Loading Basis Set <=

    Name: (AUG-CC-PVTZ AUX)
    Role: RIFIT
    Keyword: DF_BASIS_MP2
    atoms 1                            entry CL         line   742 file /ddmfs1b/softs/psi4conda/share/psi4/basis/aug-cc-pvtz-ri.gbs 
    atoms 2, 5, 8, 11, 14              entry O          line   264 file /ddmfs1b/softs/psi4conda/share/psi4/basis/aug-cc-pvtz-ri.gbs 
    atoms 3-4, 6-7, 9-10, 12-13, 15-16 entry H          line    30 file /ddmfs1b/softs/psi4conda/share/psi4/basis/aug-cc-pvtz-ri.gbs 

	 --------------------------------------------------------
	                          DF-MP2                         
	      2nd-Order Density-Fitted Moller-Plesset Theory     
	              RMP2 Wavefunction,  20 Threads             
	                                                         
	        Rob Parrish, Justin Turney, Andy Simmonett,      
	           Ed Hohenstein, and C. David Sherrill          
	 --------------------------------------------------------

   => Auxiliary Basis Set <=

  Basis Set: (AUG-CC-PVTZ AUX)
    Blend: AUG-CC-PVTZ-RI
    Number of shells: 317
    Number of basis functions: 1137
    Number of Cartesian functions: 1421
    Spherical Harmonics?: true
    Max angular momentum: 4

	 --------------------------------------------------------
	                 NBF =   510, NAUX =  1137
	 --------------------------------------------------------
	   CLASS    FOCC     OCC    AOCC    AVIR     VIR    FVIR
	   PAIRS       0       5       5     505     505       0
	 --------------------------------------------------------

	-----------------------------------------------------------
	 ==================> DF-MP2 Energies <==================== 
	-----------------------------------------------------------
	 Reference Energy          =     -76.0591777360598655 [Eh]
	 Singles Energy            =      -0.0000000000000000 [Eh]
	 Same-Spin Energy          =      -0.0682783920534140 [Eh]
	 Opposite-Spin Energy      =      -0.2155903884520431 [Eh]
	 Correlation Energy        =      -0.2838687805054572 [Eh]
	 Total Energy              =     -76.3430465165653231 [Eh]
	-----------------------------------------------------------
	 ================> DF-SCS-MP2 Energies <================== 
	-----------------------------------------------------------
	 SCS Same-Spin Scale       =       0.3333333333333333 [-]
	 SCS Opposite-Spin Scale   =       1.2000000000000000 [-]
	 SCS Same-Spin Energy      =      -0.0227594640178047 [Eh]
	 SCS Opposite-Spin Energy  =      -0.2587084661424517 [Eh]
	 SCS Correlation Energy    =      -0.2814679301602564 [Eh]
	 SCS Total Energy          =     -76.3406456662201265 [Eh]
	-----------------------------------------------------------


*** tstop() called on ddmfs1 at Mon Jan 22 21:08:17 2024
Module time:
	user time   =      26.34 seconds =       0.44 minutes
	system time =       1.60 seconds =       0.03 minutes
	total time  =          5 seconds =       0.08 minutes
Total time:
	user time   =     117.67 seconds =       1.96 minutes
	system time =       6.43 seconds =       0.11 minutes
	total time  =         11 seconds =       0.18 minutes

    Psi4 stopped on: Monday, 22 January 2024 09:08PM
    Psi4 wall time for execution: 0:00:11.00

*** Psi4 exiting successfully. Buy a developer a beer!
