
    -----------------------------------------------------------------------
          Psi4: An Open-Source Ab Initio Electronic Structure Package
                               Psi4 1.8.2 release

                         Git: Rev {} zzzzzzz 


    D. G. A. Smith, L. A. Burns, A. C. Simmonett, R. M. Parrish,
    M. C. Schieber, R. Galvelis, P. Kraus, H. Kruse, R. Di Remigio,
    A. Alenaizan, A. M. James, S. Lehtola, J. P. Misiewicz, M. Scheurer,
    R. A. Shaw, J. B. Schriber, Y. Xie, Z. L. Glick, D. A. Sirianni,
    J. S. O'Brien, J. M. Waldrop, A. Kumar, E. G. Hohenstein,
    B. P. Pritchard, B. R. Brooks, H. F. Schaefer III, A. Yu. Sokolov,
    K. Patkowski, A. E. DePrince III, U. Bozkaya, R. A. King,
    F. A. Evangelista, J. M. Turney, T. D. Crawford, C. D. Sherrill,
    J. Chem. Phys. 152(18) 184108 (2020). https://doi.org/10.1063/5.0006002

                            Additional Code Authors
    E. T. Seidl, C. L. Janssen, E. F. Valeev, M. L. Leininger,
    J. F. Gonthier, R. M. Richard, H. R. McAlexander, M. Saitow, X. Wang,
    P. Verma, M. H. Lechner, A. Jiang, S. Behnle, A. G. Heide,
    M. F. Herbst, and D. L. Poole

             Previous Authors, Complete List of Code Contributors,
                       and Citations for Specific Modules
    https://github.com/psi4/psi4/blob/master/codemeta.json
    https://github.com/psi4/psi4/graphs/contributors
    http://psicode.org/psi4manual/master/introduction.html#citing-psifour

    -----------------------------------------------------------------------


    Psi4 started on: Monday, 22 January 2024 07:51PM

    Process ID: 99683
    Host:       ddmfs1
    PSIDATADIR: /ddmfs1b/softs/psi4conda/share/psi4
    Memory:     500.0 MiB
    Threads:    20
    
  ==> Input File <==

--------------------------------------------------------------------------
MEMORY 60 GB

molecule dimer {
0 1
Gh(Cl)     0.000000     0.000000     0.000000
Gh(O)      2.741234     0.738472    -1.525475
Gh(H)      2.030876     0.591915    -0.837522
Gh(H)      3.603201     0.343611    -1.225902
O         -1.282461     2.745085     1.157741
H         -1.948791     2.416369     1.805657
H         -0.745954     1.941353     0.995102
Gh(O)     -2.297413    -1.049486     2.333506
Gh(H)     -2.862620    -0.996762     1.560954
Gh(H)     -1.356740    -0.962436     2.174113
Gh(O)     -1.160282     1.516406    -2.408583
Gh(H)     -0.693222     0.915110    -1.786235
Gh(H)     -0.649383     2.316099    -2.294649
Gh(O)      1.852777    -0.587624     2.593331
Gh(H)      2.415237    -1.388943     2.530648
Gh(H)      1.630884    -0.133154     1.758059

units ang
no_reorient
no_com
symmetry c1
}

set {
basis        aug-cc-pVTZ
scf_type     df
}

energy("mp2")
--------------------------------------------------------------------------

  Memory set to  55.879 GiB by Python driver.

Scratch directory: /ddmfs1a/scratch/
   => Libint2 <=

    Primary   basis highest AM E, G, H:  5, 4, 3
    Auxiliary basis highest AM E, G, H:  6, 5, 4
    Onebody   basis highest AM E, G, H:  6, 5, 4
    Solid Harmonics ordering:            gaussian

*** tstart() called on ddmfs1
*** at Mon Jan 22 19:51:35 2024

   => Loading Basis Set <=

    Name: AUG-CC-PVTZ
    Role: ORBITAL
    Keyword: BASIS
    atoms 1                            entry CL         line   988 file /ddmfs1b/softs/psi4conda/share/psi4/basis/aug-cc-pvtz.gbs 
    atoms 2, 5, 8, 11, 14              entry O          line   331 file /ddmfs1b/softs/psi4conda/share/psi4/basis/aug-cc-pvtz.gbs 
    atoms 3-4, 6-7, 9-10, 12-13, 15-16 entry H          line    40 file /ddmfs1b/softs/psi4conda/share/psi4/basis/aug-cc-pvtz.gbs 


         ---------------------------------------------------------
                                   SCF
               by Justin Turney, Rob Parrish, Andy Simmonett
                          and Daniel G. A. Smith
                              RHF Reference
                       20 Threads,  57220 MiB Core
         ---------------------------------------------------------

  ==> Geometry <==

    Molecular point group: c1
    Full point group: C1

    Geometry (in Angstrom), charge = 0, multiplicity = 1:

       Center              X                  Y                   Z               Mass       
    ------------   -----------------  -----------------  -----------------  -----------------
      Gh(CL)          0.000000000000     0.000000000000     0.000000000000    34.968852682000
      Gh(O)           2.741234000000     0.738472000000    -1.525475000000    15.994914619570
      Gh(H)           2.030876000000     0.591915000000    -0.837522000000     1.007825032230
      Gh(H)           3.603201000000     0.343611000000    -1.225902000000     1.007825032230
         O           -1.282461000000     2.745085000000     1.157741000000    15.994914619570
         H           -1.948791000000     2.416369000000     1.805657000000     1.007825032230
         H           -0.745954000000     1.941353000000     0.995102000000     1.007825032230
      Gh(O)          -2.297413000000    -1.049486000000     2.333506000000    15.994914619570
      Gh(H)          -2.862620000000    -0.996762000000     1.560954000000     1.007825032230
      Gh(H)          -1.356740000000    -0.962436000000     2.174113000000     1.007825032230
      Gh(O)          -1.160282000000     1.516406000000    -2.408583000000    15.994914619570
      Gh(H)          -0.693222000000     0.915110000000    -1.786235000000     1.007825032230
      Gh(H)          -0.649383000000     2.316099000000    -2.294649000000     1.007825032230
      Gh(O)           1.852777000000    -0.587624000000     2.593331000000    15.994914619570
      Gh(H)           2.415237000000    -1.388943000000     2.530648000000     1.007825032230
      Gh(H)           1.630884000000    -0.133154000000     1.758059000000     1.007825032230

  Running in c1 symmetry.

  Rotational constants: A =      0.03418  B =      0.02858  C =      0.02136 [cm^-1]
  Rotational constants: A =   1024.80073  B =    856.91982  C =    640.48409 [MHz]
  Nuclear repulsion =    8.961110367146995

  Charge       = 0
  Multiplicity = 1
  Electrons    = 10
  Nalpha       = 5
  Nbeta        = 5

  ==> Algorithm <==

  SCF Algorithm Type is DF.
  DIIS enabled.
  MOM disabled.
  Fractional occupation disabled.
  Guess Type is SAD.
  Energy threshold   = 1.00e-08
  Density threshold  = 1.00e-08
  Integral threshold = 1.00e-12

  ==> Primary Basis <==

  Basis Set: AUG-CC-PVTZ
    Blend: AUG-CC-PVTZ
    Number of shells: 176
    Number of basis functions: 510
    Number of Cartesian functions: 584
    Spherical Harmonics?: true
    Max angular momentum: 3

   => Loading Basis Set <=

    Name: (AUG-CC-PVTZ AUX)
    Role: JKFIT
    Keyword: DF_BASIS_SCF
    atoms 1                            entry CL         line   816 file /ddmfs1b/softs/psi4conda/share/psi4/basis/aug-cc-pvtz-jkfit.gbs 
    atoms 2, 5, 8, 11, 14              entry O          line   286 file /ddmfs1b/softs/psi4conda/share/psi4/basis/aug-cc-pvtz-jkfit.gbs 
    atoms 3-4, 6-7, 9-10, 12-13, 15-16 entry H          line    70 file /ddmfs1b/softs/psi4conda/share/psi4/basis/aug-cc-pvtz-jkfit.gbs 

  ==> Integral Setup <==

  DFHelper Memory: AOs need 1.978 GiB; user supplied 41.910 GiB. 
  Using in-core AOs.

  ==> MemDFJK: Density-Fitted J/K Matrices <==

    J tasked:                   Yes
    K tasked:                   Yes
    wK tasked:                   No
    OpenMP threads:              20
    Memory [MiB]:             42915
    Algorithm:                 Core
    Schwarz Cutoff:           1E-12
    Mask sparsity (%):      13.9431
    Fitting Condition:        1E-10

   => Auxiliary Basis Set <=

  Basis Set: (AUG-CC-PVTZ AUX)
    Blend: AUG-CC-PVTZ-JKFIT
    Number of shells: 332
    Number of basis functions: 1126
    Number of Cartesian functions: 1385
    Spherical Harmonics?: true
    Max angular momentum: 4

  Minimum eigenvalue in the overlap matrix is 1.7494969030E-04.
  Reciprocal condition number of the overlap matrix is 1.4745735854E-05.
    Using symmetric orthogonalization.

  ==> Pre-Iterations <==

  SCF Guess: Superposition of Atomic Densities via on-the-fly atomic UHF (no occupation information).

   -------------------------
    Irrep   Nso     Nmo    
   -------------------------
     A        510     510 
   -------------------------
    Total     510     510
   -------------------------

  ==> Iterations <==

                           Total Energy        Delta E     RMS |[F,P]|

   @DF-RHF iter SAD:   -75.45082663358470   -7.54508e+01   0.00000e+00 
   @DF-RHF iter   1:   -75.97178583374557   -5.20959e-01   9.15250e-04 ADIIS/DIIS
   @DF-RHF iter   2:   -76.02357667674724   -5.17908e-02   6.42368e-04 ADIIS/DIIS
   @DF-RHF iter   3:   -76.05708201485636   -3.35053e-02   4.37525e-05 DIIS
   @DF-RHF iter   4:   -76.05750284913991   -4.20834e-04   1.10323e-05 DIIS
   @DF-RHF iter   5:   -76.05753272786815   -2.98787e-05   2.57816e-06 DIIS
   @DF-RHF iter   6:   -76.05753527438253   -2.54651e-06   5.60702e-07 DIIS
   @DF-RHF iter   7:   -76.05753540405087   -1.29668e-07   9.59391e-08 DIIS
   @DF-RHF iter   8:   -76.05753540730981   -3.25895e-09   1.64762e-08 DIIS
   @DF-RHF iter   9:   -76.05753540738644   -7.66249e-11   4.13006e-09 DIIS
  Energy and wave function converged.


  ==> Post-Iterations <==

    Orbital Energies [Eh]
    ---------------------

    Doubly Occupied:                                                      

       1A    -20.572774     2A     -1.342522     3A     -0.698980  
       4A     -0.585085     5A     -0.509098  

    Virtual:                                                              

       6A      0.014763     7A      0.030031     8A      0.035209  
       9A      0.043760    10A      0.051199    11A      0.057356  
      12A      0.060025    13A      0.063824    14A      0.075306  
      15A      0.087230    16A      0.098359    17A      0.104865  
      18A      0.119675    19A      0.124960    20A      0.131753  
      21A      0.132826    22A      0.145899    23A      0.149520  
      24A      0.153153    25A      0.162388    26A      0.165857  
      27A      0.168973    28A      0.178327    29A      0.181639  
      30A      0.188474    31A      0.191396    32A      0.195450  
      33A      0.205530    34A      0.207791    35A      0.215899  
      36A      0.223865    37A      0.231873    38A      0.243630  
      39A      0.251143    40A      0.253857    41A      0.267533  
      42A      0.271480    43A      0.281552    44A      0.289024  
      45A      0.291087    46A      0.301210    47A      0.304759  
      48A      0.312487    49A      0.324787    50A      0.333327  
      51A      0.335692    52A      0.339241    53A      0.347123  
      54A      0.351399    55A      0.357479    56A      0.361908  
      57A      0.366663    58A      0.373067    59A      0.386537  
      60A      0.386833    61A      0.392837    62A      0.398107  
      63A      0.401703    64A      0.412526    65A      0.416584  
      66A      0.421686    67A      0.431685    68A      0.443549  
      69A      0.451982    70A      0.457708    71A      0.469173  
      72A      0.476162    73A      0.488348    74A      0.500151  
      75A      0.512327    76A      0.521466    77A      0.527560  
      78A      0.534993    79A      0.555323    80A      0.578722  
      81A      0.597900    82A      0.618233    83A      0.626297  
      84A      0.638879    85A      0.650285    86A      0.661705  
      87A      0.676916    88A      0.687041    89A      0.690761  
      90A      0.700663    91A      0.711097    92A      0.715374  
      93A      0.729130    94A      0.734744    95A      0.738589  
      96A      0.748247    97A      0.756193    98A      0.759843  
      99A      0.767214   100A      0.786233   101A      0.789432  
     102A      0.795726   103A      0.801740   104A      0.807835  
     105A      0.814763   106A      0.822569   107A      0.826482  
     108A      0.831143   109A      0.834731   110A      0.838072  
     111A      0.845768   112A      0.849273   113A      0.855127  
     114A      0.863621   115A      0.864421   116A      0.866619  
     117A      0.876078   118A      0.882866   119A      0.887348  
     120A      0.896814   121A      0.908244   122A      0.908409  
     123A      0.912384   124A      0.917431   125A      0.932885  
     126A      0.937580   127A      0.941118   128A      0.947824  
     129A      0.949630   130A      0.953094   131A      0.964435  
     132A      0.982155   133A      0.988605   134A      0.992467  
     135A      1.001718   136A      1.011801   137A      1.014954  
     138A      1.021234   139A      1.026038   140A      1.028872  
     141A      1.036292   142A      1.042064   143A      1.050261  
     144A      1.055291   145A      1.066273   146A      1.074679  
     147A      1.079686   148A      1.081384   149A      1.092968  
     150A      1.099981   151A      1.106233   152A      1.116685  
     153A      1.119280   154A      1.134456   155A      1.148234  
     156A      1.153204   157A      1.161154   158A      1.170337  
     159A      1.184885   160A      1.186843   161A      1.208149  
     162A      1.208964   163A      1.222994   164A      1.237580  
     165A      1.251863   166A      1.260833   167A      1.263243  
     168A      1.275538   169A      1.282691   170A      1.291572  
     171A      1.302216   172A      1.322427   173A      1.336916  
     174A      1.339708   175A      1.351737   176A      1.361854  
     177A      1.374731   178A      1.386655   179A      1.398826  
     180A      1.423828   181A      1.437330   182A      1.453064  
     183A      1.457268   184A      1.468443   185A      1.489163  
     186A      1.500736   187A      1.527180   188A      1.538976  
     189A      1.542090   190A      1.559275   191A      1.568723  
     192A      1.592316   193A      1.610384   194A      1.632550  
     195A      1.652146   196A      1.672515   197A      1.673061  
     198A      1.691537   199A      1.693988   200A      1.710621  
     201A      1.728327   202A      1.737553   203A      1.750256  
     204A      1.756020   205A      1.760608   206A      1.763068  
     207A      1.768535   208A      1.778883   209A      1.788455  
     210A      1.801443   211A      1.810543   212A      1.819020  
     213A      1.831943   214A      1.836553   215A      1.845828  
     216A      1.851666   217A      1.871093   218A      1.898740  
     219A      1.904955   220A      1.915346   221A      1.946456  
     222A      1.949141   223A      1.952378   224A      1.981235  
     225A      1.988974   226A      2.000011   227A      2.017196  
     228A      2.040327   229A      2.058249   230A      2.070698  
     231A      2.089421   232A      2.132039   233A      2.148921  
     234A      2.163677   235A      2.183241   236A      2.206692  
     237A      2.246874   238A      2.277058   239A      2.332246  
     240A      2.407367   241A      2.418450   242A      2.426917  
     243A      2.443059   244A      2.448522   245A      2.469354  
     246A      2.479547   247A      2.479992   248A      2.490169  
     249A      2.505315   250A      2.515774   251A      2.526863  
     252A      2.537850   253A      2.543033   254A      2.551790  
     255A      2.563321   256A      2.588530   257A      2.592584  
     258A      2.598607   259A      2.606025   260A      2.622719  
     261A      2.637456   262A      2.651607   263A      2.656547  
     264A      2.662434   265A      2.675483   266A      2.681989  
     267A      2.697841   268A      2.701420   269A      2.722883  
     270A      2.737500   271A      2.743923   272A      2.756821  
     273A      2.777000   274A      2.788312   275A      2.810828  
     276A      2.815999   277A      2.835450   278A      2.845382  
     279A      2.850088   280A      2.888373   281A      2.900693  
     282A      2.971407   283A      2.977599   284A      3.014468  
     285A      3.020365   286A      3.036672   287A      3.052233  
     288A      3.153601   289A      3.170589   290A      3.183776  
     291A      3.195342   292A      3.211750   293A      3.216834  
     294A      3.229168   295A      3.252548   296A      3.259246  
     297A      3.286817   298A      3.332865   299A      3.345058  
     300A      3.355225   301A      3.374051   302A      3.390406  
     303A      3.433291   304A      3.435679   305A      3.472119  
     306A      3.498440   307A      3.557366   308A      3.596137  
     309A      3.610672   310A      3.637565   311A      3.699009  
     312A      3.740249   313A      3.749875   314A      3.789776  
     315A      3.809668   316A      3.836122   317A      3.941615  
     318A      4.056027   319A      4.141032   320A      4.171891  
     321A      4.194914   322A      4.205432   323A      4.233190  
     324A      4.247959   325A      4.261540   326A      4.282991  
     327A      4.311841   328A      4.320949   329A      4.344601  
     330A      4.360821   331A      4.367118   332A      4.380488  
     333A      4.392854   334A      4.399041   335A      4.428485  
     336A      4.442954   337A      4.460044   338A      4.469054  
     339A      4.482718   340A      4.488148   341A      4.490750  
     342A      4.497087   343A      4.509591   344A      4.525794  
     345A      4.540389   346A      4.560013   347A      4.570285  
     348A      4.596247   349A      4.607213   350A      4.630288  
     351A      4.635239   352A      4.659943   353A      4.668900  
     354A      4.677326   355A      4.696925   356A      4.720254  
     357A      4.743305   358A      4.774889   359A      4.778467  
     360A      4.803910   361A      4.832067   362A      4.858519  
     363A      4.868583   364A      4.885567   365A      4.891512  
     366A      4.907066   367A      4.915945   368A      4.931638  
     369A      4.961250   370A      4.978309   371A      4.980151  
     372A      4.989671   373A      4.994486   374A      5.013101  
     375A      5.051323   376A      5.077390   377A      5.103511  
     378A      5.129419   379A      5.141090   380A      5.157021  
     381A      5.182820   382A      5.214321   383A      5.226798  
     384A      5.249510   385A      5.312629   386A      5.332703  
     387A      5.346034   388A      5.399587   389A      5.457817  
     390A      5.480322   391A      5.495458   392A      5.499784  
     393A      5.518869   394A      5.536420   395A      5.547797  
     396A      5.579020   397A      5.596360   398A      5.640406  
     399A      5.660282   400A      5.678075   401A      5.688202  
     402A      5.690396   403A      5.720506   404A      5.741321  
     405A      5.748840   406A      5.921856   407A      6.131677  
     408A      6.164938   409A      6.170344   410A      6.183930  
     411A      6.204730   412A      6.257048   413A      6.281352  
     414A      6.327572   415A      6.378846   416A      6.560673  
     417A      6.640347   418A      6.710900   419A      6.779801  
     420A      6.866820   421A      6.911364   422A      6.945737  
     423A      6.964877   424A      7.055679   425A      7.081641  
     426A      7.107681   427A      7.127271   428A      7.266826  
     429A      7.278441   430A      7.323824   431A      7.408714  
     432A      7.478077   433A      7.657088   434A      7.660347  
     435A      7.673858   436A      7.697681   437A      7.718368  
     438A      7.729949   439A      7.754355   440A      7.778878  
     441A      7.899658   442A      7.918994   443A      7.956700  
     444A      8.046597   445A      8.071303   446A      8.148577  
     447A      8.168992   448A      8.176187   449A      8.190265  
     450A      8.201112   451A      8.225352   452A      8.245512  
     453A      8.310767   454A      8.372463   455A      8.395589  
     456A      8.633278   457A      8.667303   458A      8.748850  
     459A      8.765432   460A      8.772220   461A      8.789657  
     462A      8.899431   463A      8.909319   464A      8.977157  
     465A      9.667631   466A      9.718023   467A      9.726634  
     468A      9.762567   469A      9.832966   470A      9.837979  
     471A      9.845951   472A      9.912763   473A     10.023973  
     474A     10.065736   475A     10.081890   476A     10.100811  
     477A     10.176760   478A     10.194635   479A     10.311287  
     480A     10.353184   481A     10.963224   482A     10.973440  
     483A     11.091398   484A     11.226983   485A     11.650259  
     486A     11.663777   487A     11.747925   488A     11.781216  
     489A     11.819450   490A     12.064627   491A     12.138953  
     492A     12.187067   493A     13.374868   494A     13.440220  
     495A     13.572330   496A     13.595091   497A     13.879230  
     498A     13.927778   499A     13.990837   500A     14.006452  
     501A     15.561760   502A     16.005731   503A     28.170457  
     504A     28.314699   505A     28.437715   506A     64.036770  
     507A     65.177917   508A     65.673447   509A     65.953583  
     510A    160.940199  

    Final Occupation by Irrep:
              A 
    DOCC [     5 ]
    NA   [     5 ]
    NB   [     5 ]

  @DF-RHF Final Energy:   -76.05753540738644

   => Energetics <=

    Nuclear Repulsion Energy =              8.9611103671469952
    One-Electron Energy =                -122.6203684856621408
    Two-Electron Energy =                  37.6017227111286942
    Total Energy =                        -76.0575354073864389

Computation Completed


Properties will be evaluated at   0.000000,   0.000000,   0.000000 [a0]

Properties computed using the SCF density matrix


 Multipole Moments:

 ------------------------------------------------------------------------------------
     Multipole            Electronic (a.u.)      Nuclear  (a.u.)        Total (a.u.)
 ------------------------------------------------------------------------------------

 L = 1.  Multiply by 2.5417464519 to convert [e a0] to [Debye]
 Dipole X            :         24.3971241          -24.4803305           -0.0832063
 Dipole Y            :        -50.4712930           49.7345718           -0.7367211
 Dipole Z            :        -22.4801358           22.7951748            0.3150390
 Magnitude           :                                                    0.8055625

 ------------------------------------------------------------------------------------

*** tstop() called on ddmfs1 at Mon Jan 22 19:51:41 2024
Module time:
	user time   =      90.39 seconds =       1.51 minutes
	system time =       4.67 seconds =       0.08 minutes
	total time  =          6 seconds =       0.10 minutes
Total time:
	user time   =      90.39 seconds =       1.51 minutes
	system time =       4.67 seconds =       0.08 minutes
	total time  =          6 seconds =       0.10 minutes

*** tstart() called on ddmfs1
*** at Mon Jan 22 19:51:41 2024


  //>>>>>>>>>>>>>>>>>>>>>>>>>>>>>>>>>>>//
  //               DFMP2               //
  //<<<<<<<<<<<<<<<<<<<<<<<<<<<<<<<<<<<//

   => Loading Basis Set <=

    Name: (AUG-CC-PVTZ AUX)
    Role: RIFIT
    Keyword: DF_BASIS_MP2
    atoms 1                            entry CL         line   742 file /ddmfs1b/softs/psi4conda/share/psi4/basis/aug-cc-pvtz-ri.gbs 
    atoms 2, 5, 8, 11, 14              entry O          line   264 file /ddmfs1b/softs/psi4conda/share/psi4/basis/aug-cc-pvtz-ri.gbs 
    atoms 3-4, 6-7, 9-10, 12-13, 15-16 entry H          line    30 file /ddmfs1b/softs/psi4conda/share/psi4/basis/aug-cc-pvtz-ri.gbs 

	 --------------------------------------------------------
	                          DF-MP2                         
	      2nd-Order Density-Fitted Moller-Plesset Theory     
	              RMP2 Wavefunction,  20 Threads             
	                                                         
	        Rob Parrish, Justin Turney, Andy Simmonett,      
	           Ed Hohenstein, and C. David Sherrill          
	 --------------------------------------------------------

   => Auxiliary Basis Set <=

  Basis Set: (AUG-CC-PVTZ AUX)
    Blend: AUG-CC-PVTZ-RI
    Number of shells: 317
    Number of basis functions: 1137
    Number of Cartesian functions: 1421
    Spherical Harmonics?: true
    Max angular momentum: 4

	 --------------------------------------------------------
	                 NBF =   510, NAUX =  1137
	 --------------------------------------------------------
	   CLASS    FOCC     OCC    AOCC    AVIR     VIR    FVIR
	   PAIRS       0       5       5     505     505       0
	 --------------------------------------------------------

	-----------------------------------------------------------
	 ==================> DF-MP2 Energies <==================== 
	-----------------------------------------------------------
	 Reference Energy          =     -76.0575354073864389 [Eh]
	 Singles Energy            =      -0.0000000000000000 [Eh]
	 Same-Spin Energy          =      -0.0689028984147809 [Eh]
	 Opposite-Spin Energy      =      -0.2173384445555748 [Eh]
	 Correlation Energy        =      -0.2862413429703557 [Eh]
	 Total Energy              =     -76.3437767503567954 [Eh]
	-----------------------------------------------------------
	 ================> DF-SCS-MP2 Energies <================== 
	-----------------------------------------------------------
	 SCS Same-Spin Scale       =       0.3333333333333333 [-]
	 SCS Opposite-Spin Scale   =       1.2000000000000000 [-]
	 SCS Same-Spin Energy      =      -0.0229676328049270 [Eh]
	 SCS Opposite-Spin Energy  =      -0.2608061334666898 [Eh]
	 SCS Correlation Energy    =      -0.2837737662716168 [Eh]
	 SCS Total Energy          =     -76.3413091736580611 [Eh]
	-----------------------------------------------------------


*** tstop() called on ddmfs1 at Mon Jan 22 19:51:46 2024
Module time:
	user time   =      26.66 seconds =       0.44 minutes
	system time =       1.59 seconds =       0.03 minutes
	total time  =          5 seconds =       0.08 minutes
Total time:
	user time   =     117.07 seconds =       1.95 minutes
	system time =       6.26 seconds =       0.10 minutes
	total time  =         11 seconds =       0.18 minutes

    Psi4 stopped on: Monday, 22 January 2024 07:51PM
    Psi4 wall time for execution: 0:00:10.93

*** Psi4 exiting successfully. Buy a developer a beer!
