
    -----------------------------------------------------------------------
          Psi4: An Open-Source Ab Initio Electronic Structure Package
                               Psi4 1.8.2 release

                         Git: Rev {} zzzzzzz 


    D. G. A. Smith, L. A. Burns, A. C. Simmonett, R. M. Parrish,
    M. C. Schieber, R. Galvelis, P. Kraus, H. Kruse, R. Di Remigio,
    A. Alenaizan, A. M. James, S. Lehtola, J. P. Misiewicz, M. Scheurer,
    R. A. Shaw, J. B. Schriber, Y. Xie, Z. L. Glick, D. A. Sirianni,
    J. S. O'Brien, J. M. Waldrop, A. Kumar, E. G. Hohenstein,
    B. P. Pritchard, B. R. Brooks, H. F. Schaefer III, A. Yu. Sokolov,
    K. Patkowski, A. E. DePrince III, U. Bozkaya, R. A. King,
    F. A. Evangelista, J. M. Turney, T. D. Crawford, C. D. Sherrill,
    J. Chem. Phys. 152(18) 184108 (2020). https://doi.org/10.1063/5.0006002

                            Additional Code Authors
    E. T. Seidl, C. L. Janssen, E. F. Valeev, M. L. Leininger,
    J. F. Gonthier, R. M. Richard, H. R. McAlexander, M. Saitow, X. Wang,
    P. Verma, M. H. Lechner, A. Jiang, S. Behnle, A. G. Heide,
    M. F. Herbst, and D. L. Poole

             Previous Authors, Complete List of Code Contributors,
                       and Citations for Specific Modules
    https://github.com/psi4/psi4/blob/master/codemeta.json
    https://github.com/psi4/psi4/graphs/contributors
    http://psicode.org/psi4manual/master/introduction.html#citing-psifour

    -----------------------------------------------------------------------


    Psi4 started on: Monday, 22 January 2024 09:08PM

    Process ID: 107554
    Host:       ddmfs1
    PSIDATADIR: /ddmfs1b/softs/psi4conda/share/psi4
    Memory:     500.0 MiB
    Threads:    20
    
  ==> Input File <==

--------------------------------------------------------------------------
MEMORY 60 GB

molecule dimer {
-1 1
Cl         0.000000     0.000000     0.000000
Gh(O)      0.024502     3.145214    -1.100846
Gh(H)     -0.079884     2.231023    -0.803905
Gh(H)     -0.839084     3.515903    -1.288931
Gh(O)     -3.198150     0.573138    -0.927404
Gh(H)     -2.286936     0.664904    -0.721780
Gh(H)     -3.628705     0.671446    -0.059234
Gh(O)     -0.392662    -2.420613    -2.381684
Gh(H)     -0.078206    -1.721059    -1.745198
Gh(H)      0.148491    -2.349436    -3.168547
Gh(O)     -0.516218     0.741767    -3.194309
Gh(H)      0.316690     0.901052    -3.635347
Gh(H)     -0.443624     0.828168    -2.261763
Gh(O)     -1.018909     1.789826     2.097121
Gh(H)     -0.949530     2.709738     1.735634
Gh(H)     -0.639964     1.169711     1.486154
Gh(O)      2.936787     0.437537     1.380431
Gh(H)      2.845975    -0.128141     2.146149
Gh(H)      2.378137     0.108698     0.647245

units ang
no_reorient
no_com
symmetry c1
}

set {
basis        aug-cc-pVTZ
scf_type     df
}

energy("mp2")
--------------------------------------------------------------------------

  Memory set to  55.879 GiB by Python driver.

Scratch directory: /ddmfs1a/scratch/
   => Libint2 <=

    Primary   basis highest AM E, G, H:  5, 4, 3
    Auxiliary basis highest AM E, G, H:  6, 5, 4
    Onebody   basis highest AM E, G, H:  6, 5, 4
    Solid Harmonics ordering:            gaussian

*** tstart() called on ddmfs1
*** at Mon Jan 22 21:08:56 2024

   => Loading Basis Set <=

    Name: AUG-CC-PVTZ
    Role: ORBITAL
    Keyword: BASIS
    atoms 1                                   entry CL         line   988 file /ddmfs1b/softs/psi4conda/share/psi4/basis/aug-cc-pvtz.gbs 
    atoms 2, 5, 8, 11, 14, 17                 entry O          line   331 file /ddmfs1b/softs/psi4conda/share/psi4/basis/aug-cc-pvtz.gbs 
    atoms 3-4, 6-7, 9-10, 12-13, 15-16, 18-19 entry H          line    40 file /ddmfs1b/softs/psi4conda/share/psi4/basis/aug-cc-pvtz.gbs 


         ---------------------------------------------------------
                                   SCF
               by Justin Turney, Rob Parrish, Andy Simmonett
                          and Daniel G. A. Smith
                              RHF Reference
                       20 Threads,  57220 MiB Core
         ---------------------------------------------------------

  ==> Geometry <==

    Molecular point group: c1
    Full point group: C1

    Geometry (in Angstrom), charge = -1, multiplicity = 1:

       Center              X                  Y                   Z               Mass       
    ------------   -----------------  -----------------  -----------------  -----------------
         CL           0.000000000000     0.000000000000     0.000000000000    34.968852682000
      Gh(O)           0.024502000000     3.145214000000    -1.100846000000    15.994914619570
      Gh(H)          -0.079884000000     2.231023000000    -0.803905000000     1.007825032230
      Gh(H)          -0.839084000000     3.515903000000    -1.288931000000     1.007825032230
      Gh(O)          -3.198150000000     0.573138000000    -0.927404000000    15.994914619570
      Gh(H)          -2.286936000000     0.664904000000    -0.721780000000     1.007825032230
      Gh(H)          -3.628705000000     0.671446000000    -0.059234000000     1.007825032230
      Gh(O)          -0.392662000000    -2.420613000000    -2.381684000000    15.994914619570
      Gh(H)          -0.078206000000    -1.721059000000    -1.745198000000     1.007825032230
      Gh(H)           0.148491000000    -2.349436000000    -3.168547000000     1.007825032230
      Gh(O)          -0.516218000000     0.741767000000    -3.194309000000    15.994914619570
      Gh(H)           0.316690000000     0.901052000000    -3.635347000000     1.007825032230
      Gh(H)          -0.443624000000     0.828168000000    -2.261763000000     1.007825032230
      Gh(O)          -1.018909000000     1.789826000000     2.097121000000    15.994914619570
      Gh(H)          -0.949530000000     2.709738000000     1.735634000000     1.007825032230
      Gh(H)          -0.639964000000     1.169711000000     1.486154000000     1.007825032230
      Gh(O)           2.936787000000     0.437537000000     1.380431000000    15.994914619570
      Gh(H)           2.845975000000    -0.128141000000     2.146149000000     1.007825032230
      Gh(H)           2.378137000000     0.108698000000     0.647245000000     1.007825032230

  Running in c1 symmetry.

  Rotational constants: A =      0.02733  B =      0.02219  C =      0.01825 [cm^-1]
  Rotational constants: A =    819.46482  B =    665.23699  C =    547.25216 [MHz]
  Nuclear repulsion =    0.000000000000000

  Charge       = -1
  Multiplicity = 1
  Electrons    = 18
  Nalpha       = 9
  Nbeta        = 9

  ==> Algorithm <==

  SCF Algorithm Type is DF.
  DIIS enabled.
  MOM disabled.
  Fractional occupation disabled.
  Guess Type is SAD.
  Energy threshold   = 1.00e-08
  Density threshold  = 1.00e-08
  Integral threshold = 1.00e-12

  ==> Primary Basis <==

  Basis Set: AUG-CC-PVTZ
    Blend: AUG-CC-PVTZ
    Number of shells: 208
    Number of basis functions: 602
    Number of Cartesian functions: 689
    Spherical Harmonics?: true
    Max angular momentum: 3

   => Loading Basis Set <=

    Name: (AUG-CC-PVTZ AUX)
    Role: JKFIT
    Keyword: DF_BASIS_SCF
    atoms 1                                   entry CL         line   816 file /ddmfs1b/softs/psi4conda/share/psi4/basis/aug-cc-pvtz-jkfit.gbs 
    atoms 2, 5, 8, 11, 14, 17                 entry O          line   286 file /ddmfs1b/softs/psi4conda/share/psi4/basis/aug-cc-pvtz-jkfit.gbs 
    atoms 3-4, 6-7, 9-10, 12-13, 15-16, 18-19 entry H          line    70 file /ddmfs1b/softs/psi4conda/share/psi4/basis/aug-cc-pvtz-jkfit.gbs 

  ==> Integral Setup <==

  DFHelper Memory: AOs need 3.225 GiB; user supplied 41.910 GiB. 
  Using in-core AOs.

  ==> MemDFJK: Density-Fitted J/K Matrices <==

    J tasked:                   Yes
    K tasked:                   Yes
    wK tasked:                   No
    OpenMP threads:              20
    Memory [MiB]:             42915
    Algorithm:                 Core
    Schwarz Cutoff:           1E-12
    Mask sparsity (%):      13.5848
    Fitting Condition:        1E-10

   => Auxiliary Basis Set <=

  Basis Set: (AUG-CC-PVTZ AUX)
    Blend: AUG-CC-PVTZ-JKFIT
    Number of shells: 390
    Number of basis functions: 1322
    Number of Cartesian functions: 1626
    Spherical Harmonics?: true
    Max angular momentum: 4

  Minimum eigenvalue in the overlap matrix is 9.8882527134E-05.
  Reciprocal condition number of the overlap matrix is 6.8535441550E-06.
    Using symmetric orthogonalization.

  ==> Pre-Iterations <==

  SCF Guess: Superposition of Atomic Densities via on-the-fly atomic UHF (no occupation information).

   -------------------------
    Irrep   Nso     Nmo    
   -------------------------
     A        602     602 
   -------------------------
    Total     602     602
   -------------------------

  ==> Iterations <==

                           Total Energy        Delta E     RMS |[F,P]|

   @DF-RHF iter SAD:  -459.11248998713046   -4.59112e+02   0.00000e+00 
   @DF-RHF iter   1:  -459.51390738179060   -4.01417e-01   4.96542e-04 DIIS/ADIIS
   @DF-RHF iter   2:  -459.56482912030339   -5.09217e-02   2.54691e-04 DIIS/ADIIS
   @DF-RHF iter   3:  -459.57352931476663   -8.70019e-03   1.78944e-05 DIIS
   @DF-RHF iter   4:  -459.57358751533224   -5.82006e-05   3.48907e-06 DIIS
   @DF-RHF iter   5:  -459.57359113078235   -3.61545e-06   3.59337e-07 DIIS
   @DF-RHF iter   6:  -459.57359121445023   -8.36679e-08   3.34869e-08 DIIS
   @DF-RHF iter   7:  -459.57359121556510   -1.11487e-09   3.77999e-09 DIIS
  Energy and wave function converged.


  ==> Post-Iterations <==

    Orbital Energies [Eh]
    ---------------------

    Doubly Occupied:                                                      

       1A   -104.507427     2A    -10.230104     3A     -7.696187  
       4A     -7.696160     5A     -7.696142     6A     -0.733461  
       7A     -0.150305     8A     -0.150304     9A     -0.150300  

    Virtual:                                                              

      10A      0.116651    11A      0.121702    12A      0.129318  
      13A      0.131435    14A      0.141015    15A      0.147069  
      16A      0.156036    17A      0.164324    18A      0.171952  
      19A      0.177481    20A      0.182758    21A      0.199429  
      22A      0.228510    23A      0.239482    24A      0.250039  
      25A      0.250082    26A      0.257259    27A      0.261906  
      28A      0.266612    29A      0.269247    30A      0.271279  
      31A      0.276132    32A      0.281563    33A      0.286045  
      34A      0.295723    35A      0.296305    36A      0.306553  
      37A      0.312722    38A      0.314905    39A      0.320429  
      40A      0.322518    41A      0.331754    42A      0.332520  
      43A      0.347602    44A      0.349430    45A      0.356564  
      46A      0.365277    47A      0.368891    48A      0.378875  
      49A      0.397519    50A      0.411091    51A      0.423073  
      52A      0.430443    53A      0.439903    54A      0.443453  
      55A      0.447747    56A      0.449741    57A      0.455428  
      58A      0.465114    59A      0.471472    60A      0.475795  
      61A      0.484144    62A      0.487906    63A      0.493456  
      64A      0.493716    65A      0.501880    66A      0.508974  
      67A      0.512237    68A      0.514427    69A      0.520178  
      70A      0.522753    71A      0.526185    72A      0.536627  
      73A      0.541725    74A      0.543068    75A      0.556395  
      76A      0.560416    77A      0.570840    78A      0.576060  
      79A      0.581728    80A      0.582332    81A      0.592581  
      82A      0.596964    83A      0.606734    84A      0.615118  
      85A      0.616783    86A      0.632227    87A      0.653626  
      88A      0.660178    89A      0.674860    90A      0.677921  
      91A      0.697337    92A      0.700932    93A      0.724924  
      94A      0.728193    95A      0.739185    96A      0.745107  
      97A      0.777661    98A      0.789823    99A      0.793202  
     100A      0.815213   101A      0.825200   102A      0.835417  
     103A      0.836152   104A      0.847758   105A      0.859727  
     106A      0.864140   107A      0.868406   108A      0.886343  
     109A      0.894064   110A      0.895295   111A      0.901958  
     112A      0.914656   113A      0.917357   114A      0.928563  
     115A      0.934312   116A      0.936458   117A      0.944379  
     118A      0.953534   119A      0.957844   120A      0.959727  
     121A      0.968162   122A      0.972409   123A      0.979102  
     124A      0.981516   125A      0.985513   126A      0.987927  
     127A      0.992681   128A      0.995886   129A      1.001420  
     130A      1.010308   131A      1.012046   132A      1.018609  
     133A      1.025011   134A      1.029274   135A      1.037497  
     136A      1.043358   137A      1.047223   138A      1.052902  
     139A      1.055730   140A      1.058199   141A      1.067568  
     142A      1.069818   143A      1.078632   144A      1.090524  
     145A      1.090859   146A      1.103737   147A      1.108302  
     148A      1.115785   149A      1.117820   150A      1.123078  
     151A      1.129759   152A      1.136441   153A      1.146188  
     154A      1.149143   155A      1.155165   156A      1.159752  
     157A      1.160366   158A      1.167421   159A      1.171477  
     160A      1.180401   161A      1.187098   162A      1.190687  
     163A      1.194871   164A      1.201533   165A      1.210903  
     166A      1.212341   167A      1.223322   168A      1.230787  
     169A      1.242676   170A      1.249174   171A      1.256869  
     172A      1.266221   173A      1.276470   174A      1.278477  
     175A      1.290226   176A      1.300708   177A      1.306764  
     178A      1.311315   179A      1.320648   180A      1.333075  
     181A      1.335475   182A      1.352711   183A      1.353920  
     184A      1.358128   185A      1.367334   186A      1.374317  
     187A      1.390910   188A      1.393474   189A      1.402156  
     190A      1.405532   191A      1.411909   192A      1.417181  
     193A      1.422851   194A      1.436162   195A      1.439765  
     196A      1.455053   197A      1.461611   198A      1.472639  
     199A      1.483488   200A      1.498599   201A      1.504687  
     202A      1.513734   203A      1.527625   204A      1.534833  
     205A      1.538927   206A      1.551097   207A      1.571716  
     208A      1.581950   209A      1.585714   210A      1.594567  
     211A      1.604281   212A      1.627619   213A      1.634111  
     214A      1.639151   215A      1.661812   216A      1.675027  
     217A      1.687113   218A      1.688290   219A      1.711341  
     220A      1.713929   221A      1.725568   222A      1.735051  
     223A      1.743108   224A      1.762725   225A      1.766268  
     226A      1.776094   227A      1.792045   228A      1.810529  
     229A      1.827573   230A      1.854009   231A      1.861009  
     232A      1.870447   233A      1.876780   234A      1.889743  
     235A      1.902423   236A      1.912915   237A      1.925627  
     238A      1.933938   239A      1.937795   240A      1.944543  
     241A      1.950828   242A      1.962691   243A      1.971541  
     244A      1.978709   245A      1.988254   246A      1.991452  
     247A      2.005761   248A      2.008042   249A      2.016797  
     250A      2.028149   251A      2.042847   252A      2.049603  
     253A      2.058598   254A      2.068429   255A      2.081056  
     256A      2.091905   257A      2.099942   258A      2.114380  
     259A      2.124616   260A      2.142731   261A      2.163687  
     262A      2.174180   263A      2.182951   264A      2.188580  
     265A      2.197201   266A      2.214770   267A      2.221471  
     268A      2.236739   269A      2.250985   270A      2.265211  
     271A      2.274788   272A      2.312276   273A      2.336811  
     274A      2.351666   275A      2.362619   276A      2.383480  
     277A      2.422479   278A      2.477421   279A      2.506944  
     280A      2.536798   281A      2.591248   282A      2.618018  
     283A      2.634369   284A      2.648316   285A      2.657065  
     286A      2.665244   287A      2.674537   288A      2.677956  
     289A      2.682201   290A      2.688579   291A      2.702780  
     292A      2.713056   293A      2.715463   294A      2.730191  
     295A      2.738869   296A      2.749826   297A      2.754076  
     298A      2.764348   299A      2.778071   300A      2.778577  
     301A      2.797629   302A      2.803804   303A      2.812760  
     304A      2.821362   305A      2.831141   306A      2.840799  
     307A      2.855615   308A      2.860800   309A      2.867546  
     310A      2.878148   311A      2.889552   312A      2.897573  
     313A      2.904372   314A      2.909602   315A      2.933944  
     316A      2.946474   317A      2.952065   318A      2.978220  
     319A      2.993330   320A      3.000418   321A      3.013421  
     322A      3.022662   323A      3.041499   324A      3.054309  
     325A      3.067409   326A      3.100577   327A      3.109432  
     328A      3.119266   329A      3.131007   330A      3.137329  
     331A      3.144470   332A      3.190854   333A      3.204255  
     334A      3.242303   335A      3.250344   336A      3.262285  
     337A      3.296865   338A      3.319955   339A      3.333253  
     340A      3.345840   341A      3.349605   342A      3.360933  
     343A      3.367244   344A      3.378014   345A      3.380857  
     346A      3.386789   347A      3.404811   348A      3.407758  
     349A      3.424358   350A      3.429431   351A      3.439408  
     352A      3.456641   353A      3.468438   354A      3.477854  
     355A      3.488014   356A      3.522899   357A      3.555221  
     358A      3.562301   359A      3.580231   360A      3.604929  
     361A      3.622841   362A      3.643408   363A      3.659169  
     364A      3.689418   365A      3.695355   366A      3.706268  
     367A      3.717355   368A      3.738671   369A      3.749011  
     370A      3.751895   371A      3.774038   372A      3.801975  
     373A      3.808725   374A      3.817936   375A      3.841882  
     376A      3.863157   377A      3.867411   378A      3.884743  
     379A      3.904711   380A      3.918941   381A      3.923881  
     382A      3.930479   383A      3.947478   384A      3.961504  
     385A      3.979185   386A      4.017354   387A      4.105956  
     388A      4.142538   389A      4.151557   390A      4.192718  
     391A      4.258328   392A      4.560655   393A      4.566641  
     394A      4.574017   395A      4.608744   396A      4.619194  
     397A      4.627101   398A      4.638266   399A      4.651186  
     400A      4.653631   401A      4.667720   402A      4.677750  
     403A      4.697751   404A      4.745924   405A      4.759371  
     406A      4.801421   407A      4.813294   408A      4.815679  
     409A      4.822360   410A      4.831326   411A      4.835844  
     412A      4.839503   413A      4.862788   414A      4.865666  
     415A      4.881642   416A      4.886896   417A      4.892774  
     418A      4.911194   419A      4.926287   420A      4.929397  
     421A      4.950333   422A      4.969810   423A      5.010249  
     424A      5.035270   425A      5.057850   426A      5.064536  
     427A      5.077137   428A      5.088512   429A      5.128906  
     430A      5.142001   431A      5.150922   432A      5.163877  
     433A      5.182684   434A      5.203039   435A      5.207411  
     436A      5.235752   437A      5.248390   438A      5.269009  
     439A      5.288144   440A      5.323289   441A      5.329811  
     442A      5.333583   443A      5.372786   444A      5.387979  
     445A      5.414831   446A      5.425052   447A      5.446956  
     448A      5.458263   449A      5.489121   450A      5.536792  
     451A      5.575808   452A      5.639339   453A      5.653658  
     454A      5.690470   455A      5.705006   456A      5.725731  
     457A      5.739297   458A      5.754676   459A      5.758864  
     460A      5.779566   461A      5.807829   462A      5.816215  
     463A      5.826325   464A      5.841036   465A      5.849747  
     466A      5.879716   467A      5.944171   468A      5.950018  
     469A      5.955926   470A      5.993002   471A      6.004117  
     472A      6.020476   473A      6.050395   474A      6.085523  
     475A      6.149219   476A      6.309491   477A      6.326877  
     478A      6.357087   479A      6.386279   480A      6.414940  
     481A      6.419089   482A      6.506461   483A      6.591991  
     484A      6.607142   485A      6.673064   486A      6.692832  
     487A      6.730254   488A      6.836249   489A      6.882454  
     490A      6.924238   491A      6.955778   492A      7.022597  
     493A      7.129568   494A      7.202246   495A      7.235959  
     496A      7.295360   497A      7.339172   498A      7.361486  
     499A      7.423932   500A      7.858986   501A      7.865805  
     502A      7.877031   503A      7.885960   504A      7.907666  
     505A      7.917923   506A      7.945466   507A      7.949546  
     508A      7.965417   509A      7.995886   510A      8.020712  
     511A      8.066013   512A      8.102992   513A      8.218658  
     514A      8.242265   515A      8.273230   516A      8.286070  
     517A      8.328321   518A      8.361582   519A      8.378487  
     520A      8.398840   521A      8.419667   522A      8.436162  
     523A      8.462790   524A      8.485199   525A      8.487500  
     526A      8.493209   527A      8.501698   528A      8.521104  
     529A      8.566711   530A      8.598440   531A      8.908654  
     532A      8.930446   533A      8.954656   534A      8.983805  
     535A      9.005753   536A      9.013876   537A      9.040619  
     538A      9.062627   539A      9.275412   540A      9.300407  
     541A      9.311692   542A      9.406649   543A      9.833890  
     544A      9.852970   545A      9.914925   546A      9.988258  
     547A     10.009505   548A     10.025148   549A     10.032701  
     550A     10.046920   551A     10.078340   552A     10.089040  
     553A     10.093222   554A     10.128014   555A     10.231037  
     556A     10.246159   557A     10.272837   558A     10.295346  
     559A     10.314238   560A     10.347832   561A     10.379702  
     562A     10.428411   563A     10.501782   564A     10.509678  
     565A     10.534224   566A     10.547306   567A     11.246681  
     568A     11.276181   569A     11.285590   570A     11.354042  
     571A     11.405292   572A     11.420962   573A     11.873470  
     574A     11.929094   575A     11.990909   576A     12.019102  
     577A     12.054978   578A     12.126572   579A     12.194131  
     580A     12.266499   581A     12.409849   582A     12.462347  
     583A     12.465074   584A     12.574826   585A     13.676506  
     586A     13.685122   587A     13.818363   588A     13.860687  
     589A     13.881798   590A     13.995511   591A     14.066967  
     592A     14.131142   593A     14.176961   594A     14.237107  
     595A     14.241307   596A     14.261774   597A     65.024030  
     598A     65.389006   599A     67.031853   600A     67.268265  
     601A     67.581835   602A     68.351017  

    Final Occupation by Irrep:
              A 
    DOCC [     9 ]
    NA   [     9 ]
    NB   [     9 ]

  @DF-RHF Final Energy:  -459.57359121556510

   => Energetics <=

    Nuclear Repulsion Energy =              0.0000000000000000
    One-Electron Energy =                -641.1264144626171628
    Two-Electron Energy =                 181.5528232470520891
    Total Energy =                       -459.5735912155651022

Computation Completed


Properties will be evaluated at   0.000000,   0.000000,   0.000000 [a0]

Properties computed using the SCF density matrix


 Multipole Moments:

 ------------------------------------------------------------------------------------
     Multipole            Electronic (a.u.)      Nuclear  (a.u.)        Total (a.u.)
 ------------------------------------------------------------------------------------

 L = 1.  Multiply by 2.5417464519 to convert [e a0] to [Debye]
 Dipole X            :         -0.0000063            0.0000000           -0.0000063
 Dipole Y            :          0.0001991            0.0000000            0.0001991
 Dipole Z            :         -0.0000831            0.0000000           -0.0000831
 Magnitude           :                                                    0.0002159

 ------------------------------------------------------------------------------------

*** tstop() called on ddmfs1 at Mon Jan 22 21:09:05 2024
Module time:
	user time   =     131.25 seconds =       2.19 minutes
	system time =       7.76 seconds =       0.13 minutes
	total time  =          9 seconds =       0.15 minutes
Total time:
	user time   =     131.25 seconds =       2.19 minutes
	system time =       7.76 seconds =       0.13 minutes
	total time  =          9 seconds =       0.15 minutes

*** tstart() called on ddmfs1
*** at Mon Jan 22 21:09:05 2024


  //>>>>>>>>>>>>>>>>>>>>>>>>>>>>>>>>>>>//
  //               DFMP2               //
  //<<<<<<<<<<<<<<<<<<<<<<<<<<<<<<<<<<<//

   => Loading Basis Set <=

    Name: (AUG-CC-PVTZ AUX)
    Role: RIFIT
    Keyword: DF_BASIS_MP2
    atoms 1                                   entry CL         line   742 file /ddmfs1b/softs/psi4conda/share/psi4/basis/aug-cc-pvtz-ri.gbs 
    atoms 2, 5, 8, 11, 14, 17                 entry O          line   264 file /ddmfs1b/softs/psi4conda/share/psi4/basis/aug-cc-pvtz-ri.gbs 
    atoms 3-4, 6-7, 9-10, 12-13, 15-16, 18-19 entry H          line    30 file /ddmfs1b/softs/psi4conda/share/psi4/basis/aug-cc-pvtz-ri.gbs 

	 --------------------------------------------------------
	                          DF-MP2                         
	      2nd-Order Density-Fitted Moller-Plesset Theory     
	              RMP2 Wavefunction,  20 Threads             
	                                                         
	        Rob Parrish, Justin Turney, Andy Simmonett,      
	           Ed Hohenstein, and C. David Sherrill          
	 --------------------------------------------------------

   => Auxiliary Basis Set <=

  Basis Set: (AUG-CC-PVTZ AUX)
    Blend: AUG-CC-PVTZ-RI
    Number of shells: 373
    Number of basis functions: 1335
    Number of Cartesian functions: 1667
    Spherical Harmonics?: true
    Max angular momentum: 4

	 --------------------------------------------------------
	                 NBF =   602, NAUX =  1335
	 --------------------------------------------------------
	   CLASS    FOCC     OCC    AOCC    AVIR     VIR    FVIR
	   PAIRS       0       9       9     593     593       0
	 --------------------------------------------------------

	-----------------------------------------------------------
	 ==================> DF-MP2 Energies <==================== 
	-----------------------------------------------------------
	 Reference Energy          =    -459.5735912155651022 [Eh]
	 Singles Energy            =      -0.0000000000000000 [Eh]
	 Same-Spin Energy          =      -0.0637316690863556 [Eh]
	 Opposite-Spin Energy      =      -0.1846992992867073 [Eh]
	 Correlation Energy        =      -0.2484309683730629 [Eh]
	 Total Energy              =    -459.8220221839381452 [Eh]
	-----------------------------------------------------------
	 ================> DF-SCS-MP2 Energies <================== 
	-----------------------------------------------------------
	 SCS Same-Spin Scale       =       0.3333333333333333 [-]
	 SCS Opposite-Spin Scale   =       1.2000000000000000 [-]
	 SCS Same-Spin Energy      =      -0.0212438896954519 [Eh]
	 SCS Opposite-Spin Energy  =      -0.2216391591440488 [Eh]
	 SCS Correlation Energy    =      -0.2428830488395006 [Eh]
	 SCS Total Energy          =    -459.8164742644045759 [Eh]
	-----------------------------------------------------------


*** tstop() called on ddmfs1 at Mon Jan 22 21:09:12 2024
Module time:
	user time   =      37.93 seconds =       0.63 minutes
	system time =       2.22 seconds =       0.04 minutes
	total time  =          7 seconds =       0.12 minutes
Total time:
	user time   =     169.20 seconds =       2.82 minutes
	system time =       9.98 seconds =       0.17 minutes
	total time  =         16 seconds =       0.27 minutes

    Psi4 stopped on: Monday, 22 January 2024 09:09PM
    Psi4 wall time for execution: 0:00:15.67

*** Psi4 exiting successfully. Buy a developer a beer!
