
    -----------------------------------------------------------------------
          Psi4: An Open-Source Ab Initio Electronic Structure Package
                               Psi4 1.8.2 release

                         Git: Rev {} zzzzzzz 


    D. G. A. Smith, L. A. Burns, A. C. Simmonett, R. M. Parrish,
    M. C. Schieber, R. Galvelis, P. Kraus, H. Kruse, R. Di Remigio,
    A. Alenaizan, A. M. James, S. Lehtola, J. P. Misiewicz, M. Scheurer,
    R. A. Shaw, J. B. Schriber, Y. Xie, Z. L. Glick, D. A. Sirianni,
    J. S. O'Brien, J. M. Waldrop, A. Kumar, E. G. Hohenstein,
    B. P. Pritchard, B. R. Brooks, H. F. Schaefer III, A. Yu. Sokolov,
    K. Patkowski, A. E. DePrince III, U. Bozkaya, R. A. King,
    F. A. Evangelista, J. M. Turney, T. D. Crawford, C. D. Sherrill,
    J. Chem. Phys. 152(18) 184108 (2020). https://doi.org/10.1063/5.0006002

                            Additional Code Authors
    E. T. Seidl, C. L. Janssen, E. F. Valeev, M. L. Leininger,
    J. F. Gonthier, R. M. Richard, H. R. McAlexander, M. Saitow, X. Wang,
    P. Verma, M. H. Lechner, A. Jiang, S. Behnle, A. G. Heide,
    M. F. Herbst, and D. L. Poole

             Previous Authors, Complete List of Code Contributors,
                       and Citations for Specific Modules
    https://github.com/psi4/psi4/blob/master/codemeta.json
    https://github.com/psi4/psi4/graphs/contributors
    http://psicode.org/psi4manual/master/introduction.html#citing-psifour

    -----------------------------------------------------------------------


    Psi4 started on: Monday, 22 January 2024 09:39PM

    Process ID: 110401
    Host:       ddmfs1
    PSIDATADIR: /ddmfs1b/softs/psi4conda/share/psi4
    Memory:     500.0 MiB
    Threads:    20
    
  ==> Input File <==

--------------------------------------------------------------------------
MEMORY 60 GB

molecule dimer {
-1 1
Cl         0.000000     0.000000     0.000000
Gh(O)     -3.036540    -1.130948     0.571455
Gh(H)     -2.816521    -0.349188     0.044649
Gh(H)     -4.001200    -1.116491     0.759985
Gh(O)      2.042900     1.983750     1.557742
Gh(H)      1.377876     1.644053     0.979838
Gh(H)      2.348539     2.811821     1.186573
Gh(O)     -1.201565     2.176958     2.115980
Gh(H)     -0.858161     1.779863     1.307099
Gh(H)     -0.662453     1.807091     2.819899
Gh(O)      0.655515    -1.917276     2.650823
Gh(H)      0.870212    -1.423797     1.789194
Gh(H)     -0.239017    -1.790514     2.917007
Gh(O)     -0.319376     2.472691    -2.034529
Gh(H)     -0.223367     1.847408    -1.233402
Gh(H)     -0.065493     3.291772    -1.721202
Gh(O)      2.365589    -1.192386    -1.524898
Gh(H)      2.063632    -1.946725    -1.022722
Gh(H)      1.713985    -0.498279    -1.350896

units ang
no_reorient
no_com
symmetry c1
}

set {
basis        aug-cc-pVTZ
scf_type     df
}

energy("mp2")
--------------------------------------------------------------------------

  Memory set to  55.879 GiB by Python driver.

Scratch directory: /ddmfs1a/scratch/
   => Libint2 <=

    Primary   basis highest AM E, G, H:  5, 4, 3
    Auxiliary basis highest AM E, G, H:  6, 5, 4
    Onebody   basis highest AM E, G, H:  6, 5, 4
    Solid Harmonics ordering:            gaussian

*** tstart() called on ddmfs1
*** at Mon Jan 22 21:39:14 2024

   => Loading Basis Set <=

    Name: AUG-CC-PVTZ
    Role: ORBITAL
    Keyword: BASIS
    atoms 1                                   entry CL         line   988 file /ddmfs1b/softs/psi4conda/share/psi4/basis/aug-cc-pvtz.gbs 
    atoms 2, 5, 8, 11, 14, 17                 entry O          line   331 file /ddmfs1b/softs/psi4conda/share/psi4/basis/aug-cc-pvtz.gbs 
    atoms 3-4, 6-7, 9-10, 12-13, 15-16, 18-19 entry H          line    40 file /ddmfs1b/softs/psi4conda/share/psi4/basis/aug-cc-pvtz.gbs 


         ---------------------------------------------------------
                                   SCF
               by Justin Turney, Rob Parrish, Andy Simmonett
                          and Daniel G. A. Smith
                              RHF Reference
                       20 Threads,  57220 MiB Core
         ---------------------------------------------------------

  ==> Geometry <==

    Molecular point group: c1
    Full point group: C1

    Geometry (in Angstrom), charge = -1, multiplicity = 1:

       Center              X                  Y                   Z               Mass       
    ------------   -----------------  -----------------  -----------------  -----------------
         CL           0.000000000000     0.000000000000     0.000000000000    34.968852682000
      Gh(O)          -3.036540000000    -1.130948000000     0.571455000000    15.994914619570
      Gh(H)          -2.816521000000    -0.349188000000     0.044649000000     1.007825032230
      Gh(H)          -4.001200000000    -1.116491000000     0.759985000000     1.007825032230
      Gh(O)           2.042900000000     1.983750000000     1.557742000000    15.994914619570
      Gh(H)           1.377876000000     1.644053000000     0.979838000000     1.007825032230
      Gh(H)           2.348539000000     2.811821000000     1.186573000000     1.007825032230
      Gh(O)          -1.201565000000     2.176958000000     2.115980000000    15.994914619570
      Gh(H)          -0.858161000000     1.779863000000     1.307099000000     1.007825032230
      Gh(H)          -0.662453000000     1.807091000000     2.819899000000     1.007825032230
      Gh(O)           0.655515000000    -1.917276000000     2.650823000000    15.994914619570
      Gh(H)           0.870212000000    -1.423797000000     1.789194000000     1.007825032230
      Gh(H)          -0.239017000000    -1.790514000000     2.917007000000     1.007825032230
      Gh(O)          -0.319376000000     2.472691000000    -2.034529000000    15.994914619570
      Gh(H)          -0.223367000000     1.847408000000    -1.233402000000     1.007825032230
      Gh(H)          -0.065493000000     3.291772000000    -1.721202000000     1.007825032230
      Gh(O)           2.365589000000    -1.192386000000    -1.524898000000    15.994914619570
      Gh(H)           2.063632000000    -1.946725000000    -1.022722000000     1.007825032230
      Gh(H)           1.713985000000    -0.498279000000    -1.350896000000     1.007825032230

  Running in c1 symmetry.

  Rotational constants: A =      0.02410  B =      0.02263  C =      0.02117 [cm^-1]
  Rotational constants: A =    722.62060  B =    678.33128  C =    634.54920 [MHz]
  Nuclear repulsion =    0.000000000000000

  Charge       = -1
  Multiplicity = 1
  Electrons    = 18
  Nalpha       = 9
  Nbeta        = 9

  ==> Algorithm <==

  SCF Algorithm Type is DF.
  DIIS enabled.
  MOM disabled.
  Fractional occupation disabled.
  Guess Type is SAD.
  Energy threshold   = 1.00e-08
  Density threshold  = 1.00e-08
  Integral threshold = 1.00e-12

  ==> Primary Basis <==

  Basis Set: AUG-CC-PVTZ
    Blend: AUG-CC-PVTZ
    Number of shells: 208
    Number of basis functions: 602
    Number of Cartesian functions: 689
    Spherical Harmonics?: true
    Max angular momentum: 3

   => Loading Basis Set <=

    Name: (AUG-CC-PVTZ AUX)
    Role: JKFIT
    Keyword: DF_BASIS_SCF
    atoms 1                                   entry CL         line   816 file /ddmfs1b/softs/psi4conda/share/psi4/basis/aug-cc-pvtz-jkfit.gbs 
    atoms 2, 5, 8, 11, 14, 17                 entry O          line   286 file /ddmfs1b/softs/psi4conda/share/psi4/basis/aug-cc-pvtz-jkfit.gbs 
    atoms 3-4, 6-7, 9-10, 12-13, 15-16, 18-19 entry H          line    70 file /ddmfs1b/softs/psi4conda/share/psi4/basis/aug-cc-pvtz-jkfit.gbs 

  ==> Integral Setup <==

  DFHelper Memory: AOs need 3.187 GiB; user supplied 41.910 GiB. 
  Using in-core AOs.

  ==> MemDFJK: Density-Fitted J/K Matrices <==

    J tasked:                   Yes
    K tasked:                   Yes
    wK tasked:                   No
    OpenMP threads:              20
    Memory [MiB]:             42915
    Algorithm:                 Core
    Schwarz Cutoff:           1E-12
    Mask sparsity (%):      14.6472
    Fitting Condition:        1E-10

   => Auxiliary Basis Set <=

  Basis Set: (AUG-CC-PVTZ AUX)
    Blend: AUG-CC-PVTZ-JKFIT
    Number of shells: 390
    Number of basis functions: 1322
    Number of Cartesian functions: 1626
    Spherical Harmonics?: true
    Max angular momentum: 4

  Minimum eigenvalue in the overlap matrix is 1.2044381436E-04.
  Reciprocal condition number of the overlap matrix is 8.8613611789E-06.
    Using symmetric orthogonalization.

  ==> Pre-Iterations <==

  SCF Guess: Superposition of Atomic Densities via on-the-fly atomic UHF (no occupation information).

   -------------------------
    Irrep   Nso     Nmo    
   -------------------------
     A        602     602 
   -------------------------
    Total     602     602
   -------------------------

  ==> Iterations <==

                           Total Energy        Delta E     RMS |[F,P]|

   @DF-RHF iter SAD:  -459.11248998785817   -4.59112e+02   0.00000e+00 
   @DF-RHF iter   1:  -459.51391011598798   -4.01420e-01   4.96514e-04 DIIS/ADIIS
   @DF-RHF iter   2:  -459.56483154133787   -5.09214e-02   2.54664e-04 DIIS/ADIIS
   @DF-RHF iter   3:  -459.57353006657280   -8.69853e-03   1.78980e-05 DIIS
   @DF-RHF iter   4:  -459.57358826975792   -5.82032e-05   3.48955e-06 DIIS
   @DF-RHF iter   5:  -459.57359188243692   -3.61268e-06   3.59018e-07 DIIS
   @DF-RHF iter   6:  -459.57359196611316   -8.36762e-08   3.35926e-08 DIIS
   @DF-RHF iter   7:  -459.57359196723678   -1.12362e-09   3.78162e-09 DIIS
  Energy and wave function converged.


  ==> Post-Iterations <==

    Orbital Energies [Eh]
    ---------------------

    Doubly Occupied:                                                      

       1A   -104.507378     2A    -10.230085     3A     -7.696149  
       4A     -7.696146     5A     -7.696137     6A     -0.733458  
       7A     -0.150303     8A     -0.150301     9A     -0.150297  

    Virtual:                                                              

      10A      0.116039    11A      0.119934    12A      0.130208  
      13A      0.135929    14A      0.138569    15A      0.145974  
      16A      0.158753    17A      0.164964    18A      0.169803  
      19A      0.172886    20A      0.191985    21A      0.193968  
      22A      0.224379    23A      0.240387    24A      0.246096  
      25A      0.251088    26A      0.255960    27A      0.259508  
      28A      0.264695    29A      0.266607    30A      0.274618  
      31A      0.276759    32A      0.281863    33A      0.287524  
      34A      0.290714    35A      0.298316    36A      0.302774  
      37A      0.308025    38A      0.313663    39A      0.321261  
      40A      0.325151    41A      0.330974    42A      0.339577  
      43A      0.343052    44A      0.347073    45A      0.352443  
      46A      0.361496    47A      0.373579    48A      0.382750  
      49A      0.403668    50A      0.412804    51A      0.421571  
      52A      0.433231    53A      0.439491    54A      0.443119  
      55A      0.443643    56A      0.450645    57A      0.456389  
      58A      0.465019    59A      0.469034    60A      0.475764  
      61A      0.480894    62A      0.484053    63A      0.492097  
      64A      0.494490    65A      0.498018    66A      0.502908  
      67A      0.507620    68A      0.513252    69A      0.515982  
      70A      0.522245    71A      0.523007    72A      0.533641  
      73A      0.545022    74A      0.550587    75A      0.558130  
      76A      0.561363    77A      0.564457    78A      0.569106  
      79A      0.573178    80A      0.582493    81A      0.585127  
      82A      0.588575    83A      0.601198    84A      0.613232  
      85A      0.625004    86A      0.631437    87A      0.643172  
      88A      0.653242    89A      0.662493    90A      0.668737  
      91A      0.677073    92A      0.682033    93A      0.695441  
      94A      0.715293    95A      0.736790    96A      0.747860  
      97A      0.752571    98A      0.770040    99A      0.788829  
     100A      0.797160   101A      0.801876   102A      0.820586  
     103A      0.825166   104A      0.840517   105A      0.855843  
     106A      0.864157   107A      0.870328   108A      0.875240  
     109A      0.891171   110A      0.892484   111A      0.897421  
     112A      0.914599   113A      0.916114   114A      0.922473  
     115A      0.927600   116A      0.938033   117A      0.941222  
     118A      0.949766   119A      0.954394   120A      0.957019  
     121A      0.961328   122A      0.964834   123A      0.966250  
     124A      0.973122   125A      0.975014   126A      0.979678  
     127A      0.984905   128A      0.993513   129A      0.999604  
     130A      1.006851   131A      1.011971   132A      1.014598  
     133A      1.020596   134A      1.027911   135A      1.035756  
     136A      1.039378   137A      1.042609   138A      1.052286  
     139A      1.057723   140A      1.059582   141A      1.063936  
     142A      1.068047   143A      1.075420   144A      1.079499  
     145A      1.083229   146A      1.087577   147A      1.094186  
     148A      1.098480   149A      1.109211   150A      1.111235  
     151A      1.115695   152A      1.128617   153A      1.131165  
     154A      1.132867   155A      1.135524   156A      1.145996  
     157A      1.162214   158A      1.167210   159A      1.169806  
     160A      1.174347   161A      1.179483   162A      1.184405  
     163A      1.185610   164A      1.188506   165A      1.201603  
     166A      1.208795   167A      1.216014   168A      1.221250  
     169A      1.224333   170A      1.238980   171A      1.244635  
     172A      1.246674   173A      1.249816   174A      1.257964  
     175A      1.264289   176A      1.272320   177A      1.285197  
     178A      1.293733   179A      1.298615   180A      1.307395  
     181A      1.310810   182A      1.316552   183A      1.330154  
     184A      1.335971   185A      1.340662   186A      1.349715  
     187A      1.359982   188A      1.363359   189A      1.371168  
     190A      1.384596   191A      1.385361   192A      1.394001  
     193A      1.410499   194A      1.414378   195A      1.428379  
     196A      1.434839   197A      1.449559   198A      1.460198  
     199A      1.465117   200A      1.475669   201A      1.484402  
     202A      1.493389   203A      1.505207   204A      1.508557  
     205A      1.523274   206A      1.537616   207A      1.544455  
     208A      1.553388   209A      1.562605   210A      1.574631  
     211A      1.588692   212A      1.607488   213A      1.612573  
     214A      1.628062   215A      1.631258   216A      1.642158  
     217A      1.653720   218A      1.666013   219A      1.676279  
     220A      1.686392   221A      1.691699   222A      1.703318  
     223A      1.717066   224A      1.741237   225A      1.748958  
     226A      1.755858   227A      1.781283   228A      1.805313  
     229A      1.824345   230A      1.833599   231A      1.847016  
     232A      1.860563   233A      1.878404   234A      1.889258  
     235A      1.895546   236A      1.906216   237A      1.909367  
     238A      1.912662   239A      1.917030   240A      1.921788  
     241A      1.926763   242A      1.938236   243A      1.941562  
     244A      1.945566   245A      1.953494   246A      1.964269  
     247A      1.978454   248A      1.986730   249A      1.992401  
     250A      2.000621   251A      2.009922   252A      2.020343  
     253A      2.034179   254A      2.042388   255A      2.052233  
     256A      2.056391   257A      2.069586   258A      2.073809  
     259A      2.103567   260A      2.113948   261A      2.122722  
     262A      2.140969   263A      2.146129   264A      2.158478  
     265A      2.167826   266A      2.193517   267A      2.208965  
     268A      2.214410   269A      2.216513   270A      2.236011  
     271A      2.253525   272A      2.277593   273A      2.304405  
     274A      2.322460   275A      2.336373   276A      2.390584  
     277A      2.403794   278A      2.417484   279A      2.450065  
     280A      2.475178   281A      2.562240   282A      2.593646  
     283A      2.597433   284A      2.624636   285A      2.634069  
     286A      2.639817   287A      2.643611   288A      2.657003  
     289A      2.669764   290A      2.683109   291A      2.684473  
     292A      2.693526   293A      2.702610   294A      2.712673  
     295A      2.715012   296A      2.722027   297A      2.737820  
     298A      2.742466   299A      2.760183   300A      2.777180  
     301A      2.779271   302A      2.793961   303A      2.800074  
     304A      2.801794   305A      2.808547   306A      2.820624  
     307A      2.824810   308A      2.839588   309A      2.847222  
     310A      2.858342   311A      2.862425   312A      2.868876  
     313A      2.872698   314A      2.884478   315A      2.898854  
     316A      2.918430   317A      2.937119   318A      2.944100  
     319A      2.956262   320A      2.966416   321A      2.980466  
     322A      2.993896   323A      2.996655   324A      3.030760  
     325A      3.047188   326A      3.062804   327A      3.077825  
     328A      3.100610   329A      3.122849   330A      3.141795  
     331A      3.151693   332A      3.168203   333A      3.174394  
     334A      3.191211   335A      3.232156   336A      3.245414  
     337A      3.271588   338A      3.327442   339A      3.347509  
     340A      3.357053   341A      3.362800   342A      3.371445  
     343A      3.374693   344A      3.387686   345A      3.388420  
     346A      3.392724   347A      3.401334   348A      3.409432  
     349A      3.417804   350A      3.427672   351A      3.437460  
     352A      3.443901   353A      3.461147   354A      3.469387  
     355A      3.485824   356A      3.504082   357A      3.504676  
     358A      3.523376   359A      3.538060   360A      3.562979  
     361A      3.574329   362A      3.581675   363A      3.595051  
     364A      3.606725   365A      3.636353   366A      3.658527  
     367A      3.671947   368A      3.677717   369A      3.716732  
     370A      3.724496   371A      3.727422   372A      3.743803  
     373A      3.771702   374A      3.788262   375A      3.795854  
     376A      3.813822   377A      3.848339   378A      3.867748  
     379A      3.892233   380A      3.896444   381A      3.916012  
     382A      3.929411   383A      3.944470   384A      3.961402  
     385A      3.984698   386A      3.997274   387A      4.024395  
     388A      4.025444   389A      4.067885   390A      4.127444  
     391A      4.174139   392A      4.512365   393A      4.567002  
     394A      4.581709   395A      4.616991   396A      4.626414  
     397A      4.646063   398A      4.652835   399A      4.660516  
     400A      4.670350   401A      4.676425   402A      4.681583  
     403A      4.683086   404A      4.699038   405A      4.717844  
     406A      4.743538   407A      4.774792   408A      4.778082  
     409A      4.791098   410A      4.814205   411A      4.821365  
     412A      4.830794   413A      4.839988   414A      4.850075  
     415A      4.855958   416A      4.866191   417A      4.878235  
     418A      4.896555   419A      4.902939   420A      4.933551  
     421A      4.941749   422A      4.954138   423A      5.015556  
     424A      5.024499   425A      5.040807   426A      5.044251  
     427A      5.048350   428A      5.058411   429A      5.065984  
     430A      5.088537   431A      5.102100   432A      5.109024  
     433A      5.121750   434A      5.154625   435A      5.155776  
     436A      5.170968   437A      5.176095   438A      5.208732  
     439A      5.215457   440A      5.225509   441A      5.258953  
     442A      5.287335   443A      5.314488   444A      5.327360  
     445A      5.341453   446A      5.357733   447A      5.389831  
     448A      5.458872   449A      5.485628   450A      5.516213  
     451A      5.538686   452A      5.629090   453A      5.643129  
     454A      5.659304   455A      5.696088   456A      5.701688  
     457A      5.713502   458A      5.749066   459A      5.760892  
     460A      5.768397   461A      5.797387   462A      5.814186  
     463A      5.820612   464A      5.835479   465A      5.863685  
     466A      5.872413   467A      5.889947   468A      5.922404  
     469A      5.942234   470A      5.950272   471A      5.963490  
     472A      6.064284   473A      6.069811   474A      6.091965  
     475A      6.146541   476A      6.296471   477A      6.326219  
     478A      6.339680   479A      6.364902   480A      6.378554  
     481A      6.401861   482A      6.463244   483A      6.483318  
     484A      6.658974   485A      6.674236   486A      6.690300  
     487A      6.721980   488A      6.796601   489A      6.858690  
     490A      6.866656   491A      6.893352   492A      6.898524  
     493A      7.011520   494A      7.179075   495A      7.263919  
     496A      7.296596   497A      7.310749   498A      7.335145  
     499A      7.363708   500A      7.841298   501A      7.854279  
     502A      7.890694   503A      7.901952   504A      7.921188  
     505A      7.927567   506A      7.940576   507A      7.960192  
     508A      7.995217   509A      8.024218   510A      8.025783  
     511A      8.036606   512A      8.096759   513A      8.226317  
     514A      8.240837   515A      8.246948   516A      8.267494  
     517A      8.280463   518A      8.327973   519A      8.362451  
     520A      8.407014   521A      8.410906   522A      8.434136  
     523A      8.439279   524A      8.449578   525A      8.475479  
     526A      8.478854   527A      8.495682   528A      8.509255  
     529A      8.523606   530A      8.527698   531A      8.879725  
     532A      8.894160   533A      8.928574   534A      8.976587  
     535A      8.994276   536A      9.022512   537A      9.039706  
     538A      9.050626   539A      9.121201   540A      9.176674  
     541A      9.198309   542A      9.339003   543A      9.851315  
     544A      9.886030   545A      9.904694   546A      9.914347  
     547A      9.962010   548A      9.993750   549A     10.014341  
     550A     10.026971   551A     10.045377   552A     10.071962  
     553A     10.088260   554A     10.094311   555A     10.183542  
     556A     10.217733   557A     10.234282   558A     10.253514  
     559A     10.284222   560A     10.317756   561A     10.382814  
     562A     10.443485   563A     10.495968   564A     10.530974  
     565A     10.544237   566A     10.587891   567A     11.128961  
     568A     11.209406   569A     11.254155   570A     11.399265  
     571A     11.409877   572A     11.448775   573A     11.761437  
     574A     11.828897   575A     11.904919   576A     11.938654  
     577A     11.975427   578A     12.009730   579A     12.149875  
     580A     12.295638   581A     12.336822   582A     12.351453  
     583A     12.506346   584A     12.580079   585A     13.623466  
     586A     13.638103   587A     13.786246   588A     13.813289  
     589A     13.846971   590A     13.931109   591A     14.054708  
     592A     14.092379   593A     14.097497   594A     14.132366  
     595A     14.153199   596A     14.226635   597A     64.395119  
     598A     65.253735   599A     66.100392   600A     66.393081  
     601A     66.706730   602A     67.503025  

    Final Occupation by Irrep:
              A 
    DOCC [     9 ]
    NA   [     9 ]
    NB   [     9 ]

  @DF-RHF Final Energy:  -459.57359196723678

   => Energetics <=

    Nuclear Repulsion Energy =              0.0000000000000000
    One-Electron Energy =                -641.1266848498938771
    Two-Electron Energy =                 181.5530928826570971
    Total Energy =                       -459.5735919672367800

Computation Completed


Properties will be evaluated at   0.000000,   0.000000,   0.000000 [a0]

Properties computed using the SCF density matrix


 Multipole Moments:

 ------------------------------------------------------------------------------------
     Multipole            Electronic (a.u.)      Nuclear  (a.u.)        Total (a.u.)
 ------------------------------------------------------------------------------------

 L = 1.  Multiply by 2.5417464519 to convert [e a0] to [Debye]
 Dipole X            :          0.0000500            0.0000000            0.0000500
 Dipole Y            :          0.0000802            0.0000000            0.0000802
 Dipole Z            :          0.0000825            0.0000000            0.0000825
 Magnitude           :                                                    0.0001254

 ------------------------------------------------------------------------------------

*** tstop() called on ddmfs1 at Mon Jan 22 21:39:23 2024
Module time:
	user time   =     129.75 seconds =       2.16 minutes
	system time =       7.38 seconds =       0.12 minutes
	total time  =          9 seconds =       0.15 minutes
Total time:
	user time   =     129.75 seconds =       2.16 minutes
	system time =       7.38 seconds =       0.12 minutes
	total time  =          9 seconds =       0.15 minutes

*** tstart() called on ddmfs1
*** at Mon Jan 22 21:39:23 2024


  //>>>>>>>>>>>>>>>>>>>>>>>>>>>>>>>>>>>//
  //               DFMP2               //
  //<<<<<<<<<<<<<<<<<<<<<<<<<<<<<<<<<<<//

   => Loading Basis Set <=

    Name: (AUG-CC-PVTZ AUX)
    Role: RIFIT
    Keyword: DF_BASIS_MP2
    atoms 1                                   entry CL         line   742 file /ddmfs1b/softs/psi4conda/share/psi4/basis/aug-cc-pvtz-ri.gbs 
    atoms 2, 5, 8, 11, 14, 17                 entry O          line   264 file /ddmfs1b/softs/psi4conda/share/psi4/basis/aug-cc-pvtz-ri.gbs 
    atoms 3-4, 6-7, 9-10, 12-13, 15-16, 18-19 entry H          line    30 file /ddmfs1b/softs/psi4conda/share/psi4/basis/aug-cc-pvtz-ri.gbs 

	 --------------------------------------------------------
	                          DF-MP2                         
	      2nd-Order Density-Fitted Moller-Plesset Theory     
	              RMP2 Wavefunction,  20 Threads             
	                                                         
	        Rob Parrish, Justin Turney, Andy Simmonett,      
	           Ed Hohenstein, and C. David Sherrill          
	 --------------------------------------------------------

   => Auxiliary Basis Set <=

  Basis Set: (AUG-CC-PVTZ AUX)
    Blend: AUG-CC-PVTZ-RI
    Number of shells: 373
    Number of basis functions: 1335
    Number of Cartesian functions: 1667
    Spherical Harmonics?: true
    Max angular momentum: 4

	 --------------------------------------------------------
	                 NBF =   602, NAUX =  1335
	 --------------------------------------------------------
	   CLASS    FOCC     OCC    AOCC    AVIR     VIR    FVIR
	   PAIRS       0       9       9     593     593       0
	 --------------------------------------------------------

	-----------------------------------------------------------
	 ==================> DF-MP2 Energies <==================== 
	-----------------------------------------------------------
	 Reference Energy          =    -459.5735919672367800 [Eh]
	 Singles Energy            =      -0.0000000000000000 [Eh]
	 Same-Spin Energy          =      -0.0636864683936719 [Eh]
	 Opposite-Spin Energy      =      -0.1843873786139659 [Eh]
	 Correlation Energy        =      -0.2480738470076378 [Eh]
	 Total Energy              =    -459.8216658142443976 [Eh]
	-----------------------------------------------------------
	 ================> DF-SCS-MP2 Energies <================== 
	-----------------------------------------------------------
	 SCS Same-Spin Scale       =       0.3333333333333333 [-]
	 SCS Opposite-Spin Scale   =       1.2000000000000000 [-]
	 SCS Same-Spin Energy      =      -0.0212288227978906 [Eh]
	 SCS Opposite-Spin Energy  =      -0.2212648543367591 [Eh]
	 SCS Correlation Energy    =      -0.2424936771346497 [Eh]
	 SCS Total Energy          =    -459.8160856443714124 [Eh]
	-----------------------------------------------------------


*** tstop() called on ddmfs1 at Mon Jan 22 21:39:30 2024
Module time:
	user time   =      38.10 seconds =       0.63 minutes
	system time =       2.28 seconds =       0.04 minutes
	total time  =          7 seconds =       0.12 minutes
Total time:
	user time   =     167.86 seconds =       2.80 minutes
	system time =       9.66 seconds =       0.16 minutes
	total time  =         16 seconds =       0.27 minutes

    Psi4 stopped on: Monday, 22 January 2024 09:39PM
    Psi4 wall time for execution: 0:00:15.69

*** Psi4 exiting successfully. Buy a developer a beer!
