
    -----------------------------------------------------------------------
          Psi4: An Open-Source Ab Initio Electronic Structure Package
                               Psi4 1.8.2 release

                         Git: Rev {} zzzzzzz 


    D. G. A. Smith, L. A. Burns, A. C. Simmonett, R. M. Parrish,
    M. C. Schieber, R. Galvelis, P. Kraus, H. Kruse, R. Di Remigio,
    A. Alenaizan, A. M. James, S. Lehtola, J. P. Misiewicz, M. Scheurer,
    R. A. Shaw, J. B. Schriber, Y. Xie, Z. L. Glick, D. A. Sirianni,
    J. S. O'Brien, J. M. Waldrop, A. Kumar, E. G. Hohenstein,
    B. P. Pritchard, B. R. Brooks, H. F. Schaefer III, A. Yu. Sokolov,
    K. Patkowski, A. E. DePrince III, U. Bozkaya, R. A. King,
    F. A. Evangelista, J. M. Turney, T. D. Crawford, C. D. Sherrill,
    J. Chem. Phys. 152(18) 184108 (2020). https://doi.org/10.1063/5.0006002

                            Additional Code Authors
    E. T. Seidl, C. L. Janssen, E. F. Valeev, M. L. Leininger,
    J. F. Gonthier, R. M. Richard, H. R. McAlexander, M. Saitow, X. Wang,
    P. Verma, M. H. Lechner, A. Jiang, S. Behnle, A. G. Heide,
    M. F. Herbst, and D. L. Poole

             Previous Authors, Complete List of Code Contributors,
                       and Citations for Specific Modules
    https://github.com/psi4/psi4/blob/master/codemeta.json
    https://github.com/psi4/psi4/graphs/contributors
    http://psicode.org/psi4manual/master/introduction.html#citing-psifour

    -----------------------------------------------------------------------


    Psi4 started on: Monday, 22 January 2024 09:02PM

    Process ID: 106931
    Host:       ddmfs1
    PSIDATADIR: /ddmfs1b/softs/psi4conda/share/psi4
    Memory:     500.0 MiB
    Threads:    20
    
  ==> Input File <==

--------------------------------------------------------------------------
MEMORY 60 GB

molecule dimer {
0 1
Gh(Cl)     0.000000     0.000000     0.000000
O         -0.939928     3.138189    -0.000936
H         -0.820702     2.238321     0.375766
H         -0.712248     3.077225    -0.943590
Gh(O)      1.774428     1.345338    -2.573145
Gh(H)      1.119620     1.302239    -1.824535
Gh(H)      1.660456     2.173050    -2.996113
Gh(O)     -2.265274    -2.324267     0.705293
Gh(H)     -2.834139    -2.738348     0.091603
Gh(H)     -1.824269    -1.638760     0.205252
Gh(O)      0.930253    -0.455464     2.995589
Gh(H)      0.429133     0.276974     3.481595
Gh(H)      0.852726    -0.389826     2.071742

units ang
no_reorient
no_com
symmetry c1
}

set {
basis        aug-cc-pVTZ
scf_type     df
}

energy("mp2")
--------------------------------------------------------------------------

  Memory set to  55.879 GiB by Python driver.

Scratch directory: /ddmfs1a/scratch/
   => Libint2 <=

    Primary   basis highest AM E, G, H:  5, 4, 3
    Auxiliary basis highest AM E, G, H:  6, 5, 4
    Onebody   basis highest AM E, G, H:  6, 5, 4
    Solid Harmonics ordering:            gaussian

*** tstart() called on ddmfs1
*** at Mon Jan 22 21:02:16 2024

   => Loading Basis Set <=

    Name: AUG-CC-PVTZ
    Role: ORBITAL
    Keyword: BASIS
    atoms 1                     entry CL         line   988 file /ddmfs1b/softs/psi4conda/share/psi4/basis/aug-cc-pvtz.gbs 
    atoms 2, 5, 8, 11           entry O          line   331 file /ddmfs1b/softs/psi4conda/share/psi4/basis/aug-cc-pvtz.gbs 
    atoms 3-4, 6-7, 9-10, 12-13 entry H          line    40 file /ddmfs1b/softs/psi4conda/share/psi4/basis/aug-cc-pvtz.gbs 


         ---------------------------------------------------------
                                   SCF
               by Justin Turney, Rob Parrish, Andy Simmonett
                          and Daniel G. A. Smith
                              RHF Reference
                       20 Threads,  57220 MiB Core
         ---------------------------------------------------------

  ==> Geometry <==

    Molecular point group: c1
    Full point group: C1

    Geometry (in Angstrom), charge = 0, multiplicity = 1:

       Center              X                  Y                   Z               Mass       
    ------------   -----------------  -----------------  -----------------  -----------------
      Gh(CL)          0.000000000000     0.000000000000     0.000000000000    34.968852682000
         O           -0.939928000000     3.138189000000    -0.000936000000    15.994914619570
         H           -0.820702000000     2.238321000000     0.375766000000     1.007825032230
         H           -0.712248000000     3.077225000000    -0.943590000000     1.007825032230
      Gh(O)           1.774428000000     1.345338000000    -2.573145000000    15.994914619570
      Gh(H)           1.119620000000     1.302239000000    -1.824535000000     1.007825032230
      Gh(H)           1.660456000000     2.173050000000    -2.996113000000     1.007825032230
      Gh(O)          -2.265274000000    -2.324267000000     0.705293000000    15.994914619570
      Gh(H)          -2.834139000000    -2.738348000000     0.091603000000     1.007825032230
      Gh(H)          -1.824269000000    -1.638760000000     0.205252000000     1.007825032230
      Gh(O)           0.930253000000    -0.455464000000     2.995589000000    15.994914619570
      Gh(H)           0.429133000000     0.276974000000     3.481595000000     1.007825032230
      Gh(H)           0.852726000000    -0.389826000000     2.071742000000     1.007825032230

  Running in c1 symmetry.

  Rotational constants: A =      0.05195  B =      0.02865  C =      0.02661 [cm^-1]
  Rotational constants: A =   1557.54256  B =    858.91302  C =    797.74034 [MHz]
  Nuclear repulsion =    9.002015787563620

  Charge       = 0
  Multiplicity = 1
  Electrons    = 10
  Nalpha       = 5
  Nbeta        = 5

  ==> Algorithm <==

  SCF Algorithm Type is DF.
  DIIS enabled.
  MOM disabled.
  Fractional occupation disabled.
  Guess Type is SAD.
  Energy threshold   = 1.00e-08
  Density threshold  = 1.00e-08
  Integral threshold = 1.00e-12

  ==> Primary Basis <==

  Basis Set: AUG-CC-PVTZ
    Blend: AUG-CC-PVTZ
    Number of shells: 144
    Number of basis functions: 418
    Number of Cartesian functions: 479
    Spherical Harmonics?: true
    Max angular momentum: 3

   => Loading Basis Set <=

    Name: (AUG-CC-PVTZ AUX)
    Role: JKFIT
    Keyword: DF_BASIS_SCF
    atoms 1                     entry CL         line   816 file /ddmfs1b/softs/psi4conda/share/psi4/basis/aug-cc-pvtz-jkfit.gbs 
    atoms 2, 5, 8, 11           entry O          line   286 file /ddmfs1b/softs/psi4conda/share/psi4/basis/aug-cc-pvtz-jkfit.gbs 
    atoms 3-4, 6-7, 9-10, 12-13 entry H          line    70 file /ddmfs1b/softs/psi4conda/share/psi4/basis/aug-cc-pvtz-jkfit.gbs 

  ==> Integral Setup <==

  DFHelper Memory: AOs need 1.094 GiB; user supplied 41.910 GiB. 
  Using in-core AOs.

  ==> MemDFJK: Density-Fitted J/K Matrices <==

    J tasked:                   Yes
    K tasked:                   Yes
    wK tasked:                   No
    OpenMP threads:              20
    Memory [MiB]:             42915
    Algorithm:                 Core
    Schwarz Cutoff:           1E-12
    Mask sparsity (%):      15.2034
    Fitting Condition:        1E-10

   => Auxiliary Basis Set <=

  Basis Set: (AUG-CC-PVTZ AUX)
    Blend: AUG-CC-PVTZ-JKFIT
    Number of shells: 274
    Number of basis functions: 930
    Number of Cartesian functions: 1144
    Spherical Harmonics?: true
    Max angular momentum: 4

  Minimum eigenvalue in the overlap matrix is 1.9128723346E-04.
  Reciprocal condition number of the overlap matrix is 1.9198779401E-05.
    Using symmetric orthogonalization.

  ==> Pre-Iterations <==

  SCF Guess: Superposition of Atomic Densities via on-the-fly atomic UHF (no occupation information).

   -------------------------
    Irrep   Nso     Nmo    
   -------------------------
     A        418     418 
   -------------------------
    Total     418     418
   -------------------------

  ==> Iterations <==

                           Total Energy        Delta E     RMS |[F,P]|

   @DF-RHF iter SAD:   -75.45267211538626   -7.54527e+01   0.00000e+00 
   @DF-RHF iter   1:   -75.97354392946819   -5.20872e-01   1.11727e-03 ADIIS/DIIS
   @DF-RHF iter   2:   -76.02538585247939   -5.18419e-02   7.75424e-04 ADIIS/DIIS
   @DF-RHF iter   3:   -76.05803396286373   -3.26481e-02   5.28902e-05 DIIS
   @DF-RHF iter   4:   -76.05845159005291   -4.17627e-04   1.31549e-05 DIIS
   @DF-RHF iter   5:   -76.05847998936889   -2.83993e-05   3.03184e-06 DIIS
   @DF-RHF iter   6:   -76.05848238457034   -2.39520e-06   6.72544e-07 DIIS
   @DF-RHF iter   7:   -76.05848251356504   -1.28995e-07   1.22614e-07 DIIS
   @DF-RHF iter   8:   -76.05848251730437   -3.73933e-09   2.09852e-08 DIIS
   @DF-RHF iter   9:   -76.05848251739339   -8.90168e-11   5.41704e-09 DIIS
  Energy and wave function converged.


  ==> Post-Iterations <==

    Orbital Energies [Eh]
    ---------------------

    Doubly Occupied:                                                      

       1A    -20.569685     2A     -1.342060     3A     -0.710855  
       4A     -0.577004     5A     -0.508083  

    Virtual:                                                              

       6A      0.015246     7A      0.030348     8A      0.037441  
       9A      0.045810    10A      0.053906    11A      0.061390  
      12A      0.068713    13A      0.073282    14A      0.100732  
      15A      0.110733    16A      0.113027    17A      0.120712  
      18A      0.126073    19A      0.135134    20A      0.141672  
      21A      0.146263    22A      0.149510    23A      0.162209  
      24A      0.172394    25A      0.174154    26A      0.177706  
      27A      0.184342    28A      0.192871    29A      0.201120  
      30A      0.209253    31A      0.215256    32A      0.226818  
      33A      0.236342    34A      0.264007    35A      0.271276  
      36A      0.273028    37A      0.277185    38A      0.287004  
      39A      0.293151    40A      0.301676    41A      0.313278  
      42A      0.320697    43A      0.327539    44A      0.330699  
      45A      0.337760    46A      0.343980    47A      0.345654  
      48A      0.353981    49A      0.360899    50A      0.362012  
      51A      0.370165    52A      0.376823    53A      0.380616  
      54A      0.389989    55A      0.398423    56A      0.418878  
      57A      0.426675    58A      0.441751    59A      0.458189  
      60A      0.465009    61A      0.476937    62A      0.490883  
      63A      0.500173    64A      0.507607    65A      0.539358  
      66A      0.554837    67A      0.576050    68A      0.589646  
      69A      0.594486    70A      0.620150    71A      0.624471  
      72A      0.640118    73A      0.652728    74A      0.678115  
      75A      0.683333    76A      0.684840    77A      0.694746  
      78A      0.701435    79A      0.718067    80A      0.728450  
      81A      0.737376    82A      0.756472    83A      0.762712  
      84A      0.771705    85A      0.777584    86A      0.778668  
      87A      0.795754    88A      0.796508    89A      0.807921  
      90A      0.814645    91A      0.816546    92A      0.822976  
      93A      0.828520    94A      0.835298    95A      0.840994  
      96A      0.845726    97A      0.854109    98A      0.858466  
      99A      0.868787   100A      0.871858   101A      0.880348  
     102A      0.892723   103A      0.900920   104A      0.902684  
     105A      0.916053   106A      0.932503   107A      0.934918  
     108A      0.939114   109A      0.955045   110A      0.962716  
     111A      0.966414   112A      0.976762   113A      0.980230  
     114A      0.985425   115A      0.997934   116A      1.003739  
     117A      1.007297   118A      1.014438   119A      1.018236  
     120A      1.025057   121A      1.033247   122A      1.039950  
     123A      1.047992   124A      1.056101   125A      1.065457  
     126A      1.080934   127A      1.089561   128A      1.097357  
     129A      1.104630   130A      1.111205   131A      1.133121  
     132A      1.139192   133A      1.161151   134A      1.166893  
     135A      1.182983   136A      1.213460   137A      1.233337  
     138A      1.244463   139A      1.257330   140A      1.273964  
     141A      1.276401   142A      1.293514   143A      1.305352  
     144A      1.312566   145A      1.319797   146A      1.342960  
     147A      1.361527   148A      1.372882   149A      1.405783  
     150A      1.410596   151A      1.417211   152A      1.440609  
     153A      1.470956   154A      1.477222   155A      1.489184  
     156A      1.516468   157A      1.530982   158A      1.546014  
     159A      1.557146   160A      1.580911   161A      1.585157  
     162A      1.617560   163A      1.640583   164A      1.652046  
     165A      1.668388   166A      1.686203   167A      1.698367  
     168A      1.703231   169A      1.714617   170A      1.727780  
     171A      1.734412   172A      1.742850   173A      1.747823  
     174A      1.756300   175A      1.761913   176A      1.776163  
     177A      1.794342   178A      1.819153   179A      1.824531  
     180A      1.831522   181A      1.851650   182A      1.864171  
     183A      1.876202   184A      1.888052   185A      1.906724  
     186A      1.916913   187A      1.920118   188A      1.953202  
     189A      1.977450   190A      2.020859   191A      2.050372  
     192A      2.057351   193A      2.088952   194A      2.142382  
     195A      2.177252   196A      2.263053   197A      2.295453  
     198A      2.331273   199A      2.346100   200A      2.394594  
     201A      2.418063   202A      2.427657   203A      2.445119  
     204A      2.452249   205A      2.461949   206A      2.480221  
     207A      2.496128   208A      2.501742   209A      2.514481  
     210A      2.534054   211A      2.534779   212A      2.540025  
     213A      2.550855   214A      2.557542   215A      2.572595  
     216A      2.602334   217A      2.621568   218A      2.637131  
     219A      2.638084   220A      2.648921   221A      2.651697  
     222A      2.670556   223A      2.672578   224A      2.685423  
     225A      2.716600   226A      2.746508   227A      2.750832  
     228A      2.761486   229A      2.780415   230A      2.798723  
     231A      2.810988   232A      2.921300   233A      2.941452  
     234A      2.979800   235A      2.987622   236A      2.996226  
     237A      3.024774   238A      3.148668   239A      3.175287  
     240A      3.179802   241A      3.199201   242A      3.209624  
     243A      3.213074   244A      3.241688   245A      3.254273  
     246A      3.275610   247A      3.353233   248A      3.369618  
     249A      3.380525   250A      3.432351   251A      3.448466  
     252A      3.483072   253A      3.575959   254A      3.586555  
     255A      3.629176   256A      3.711008   257A      3.751748  
     258A      3.772064   259A      3.813629   260A      3.840607  
     261A      4.054561   262A      4.076985   263A      4.101592  
     264A      4.124077   265A      4.139978   266A      4.184971  
     267A      4.195694   268A      4.210607   269A      4.224727  
     270A      4.259312   271A      4.300492   272A      4.325108  
     273A      4.337696   274A      4.348506   275A      4.377325  
     276A      4.382218   277A      4.403571   278A      4.411564  
     279A      4.430589   280A      4.437478   281A      4.451058  
     282A      4.480118   283A      4.483261   284A      4.488763  
     285A      4.495180   286A      4.513392   287A      4.573872  
     288A      4.575555   289A      4.614782   290A      4.624567  
     291A      4.629830   292A      4.646346   293A      4.662726  
     294A      4.699298   295A      4.721613   296A      4.728333  
     297A      4.733911   298A      4.742222   299A      4.780793  
     300A      4.810413   301A      4.845594   302A      4.861857  
     303A      4.864127   304A      4.874627   305A      4.894914  
     306A      4.914027   307A      4.914797   308A      4.958503  
     309A      4.976880   310A      5.016996   311A      5.044788  
     312A      5.070064   313A      5.093276   314A      5.138530  
     315A      5.148616   316A      5.183245   317A      5.238663  
     318A      5.311527   319A      5.332451   320A      5.334177  
     321A      5.445515   322A      5.461998   323A      5.472992  
     324A      5.494280   325A      5.508055   326A      5.519311  
     327A      5.616162   328A      5.647304   329A      5.707908  
     330A      5.720898   331A      5.727408   332A      5.735513  
     333A      5.767129   334A      5.845380   335A      5.934981  
     336A      6.146330   337A      6.148670   338A      6.167834  
     339A      6.186836   340A      6.321584   341A      6.426993  
     342A      6.494190   343A      6.577263   344A      6.666298  
     345A      6.733296   346A      6.740235   347A      6.798625  
     348A      6.893775   349A      7.090877   350A      7.148662  
     351A      7.155372   352A      7.172535   353A      7.282047  
     354A      7.288448   355A      7.352730   356A      7.395172  
     357A      7.433971   358A      7.618216   359A      7.668318  
     360A      7.699558   361A      7.708717   362A      7.753755  
     363A      7.817407   364A      7.847952   365A      7.910120  
     366A      7.991784   367A      8.042546   368A      8.066607  
     369A      8.071208   370A      8.215951   371A      8.256225  
     372A      8.267739   373A      8.269896   374A      8.292689  
     375A      8.321848   376A      8.720110   377A      8.726934  
     378A      8.798910   379A      8.865673   380A      8.904639  
     381A      8.971624   382A      9.069976   383A      9.660671  
     384A      9.666255   385A      9.742644   386A      9.828034  
     387A      9.833226   388A      9.847370   389A     10.034518  
     390A     10.036484   391A     10.075368   392A     10.257539  
     393A     10.291654   394A     10.296801   395A     10.961528  
     396A     11.096786   397A     11.325624   398A     11.639805  
     399A     11.691420   400A     11.732340   401A     12.163124  
     402A     12.273460   403A     12.314359   404A     13.530167  
     405A     13.542065   406A     13.712934   407A     13.893023  
     408A     13.911136   409A     13.976253   410A     15.634544  
     411A     15.840898   412A     28.039163   413A     28.188408  
     414A     28.298805   415A     65.097660   416A     66.191012  
     417A     66.505270   418A    160.939097  

    Final Occupation by Irrep:
              A 
    DOCC [     5 ]
    NA   [     5 ]
    NB   [     5 ]

  @DF-RHF Final Energy:   -76.05848251739339

   => Energetics <=

    Nuclear Repulsion Energy =              9.0020157875636198
    One-Electron Energy =                -122.7056194302813736
    Two-Electron Energy =                  37.6451211253243656
    Total Energy =                        -76.0584825173933865

Computation Completed


Properties will be evaluated at   0.000000,   0.000000,   0.000000 [a0]

Properties computed using the SCF density matrix


 Multipole Moments:

 ------------------------------------------------------------------------------------
     Multipole            Electronic (a.u.)      Nuclear  (a.u.)        Total (a.u.)
 ------------------------------------------------------------------------------------

 L = 1.  Multiply by 2.5417464519 to convert [e a0] to [Debye]
 Dipole X            :         17.3359919          -17.1065076            0.2294842
 Dipole Y            :        -58.1219915           57.4874681           -0.6345235
 Dipole Z            :          0.7114689           -1.0871821           -0.3757133
 Magnitude           :                                                    0.7722975

 ------------------------------------------------------------------------------------

*** tstop() called on ddmfs1 at Mon Jan 22 21:02:19 2024
Module time:
	user time   =      59.19 seconds =       0.99 minutes
	system time =       3.59 seconds =       0.06 minutes
	total time  =          3 seconds =       0.05 minutes
Total time:
	user time   =      59.19 seconds =       0.99 minutes
	system time =       3.59 seconds =       0.06 minutes
	total time  =          3 seconds =       0.05 minutes

*** tstart() called on ddmfs1
*** at Mon Jan 22 21:02:19 2024


  //>>>>>>>>>>>>>>>>>>>>>>>>>>>>>>>>>>>//
  //               DFMP2               //
  //<<<<<<<<<<<<<<<<<<<<<<<<<<<<<<<<<<<//

   => Loading Basis Set <=

    Name: (AUG-CC-PVTZ AUX)
    Role: RIFIT
    Keyword: DF_BASIS_MP2
    atoms 1                     entry CL         line   742 file /ddmfs1b/softs/psi4conda/share/psi4/basis/aug-cc-pvtz-ri.gbs 
    atoms 2, 5, 8, 11           entry O          line   264 file /ddmfs1b/softs/psi4conda/share/psi4/basis/aug-cc-pvtz-ri.gbs 
    atoms 3-4, 6-7, 9-10, 12-13 entry H          line    30 file /ddmfs1b/softs/psi4conda/share/psi4/basis/aug-cc-pvtz-ri.gbs 

	 --------------------------------------------------------
	                          DF-MP2                         
	      2nd-Order Density-Fitted Moller-Plesset Theory     
	              RMP2 Wavefunction,  20 Threads             
	                                                         
	        Rob Parrish, Justin Turney, Andy Simmonett,      
	           Ed Hohenstein, and C. David Sherrill          
	 --------------------------------------------------------

   => Auxiliary Basis Set <=

  Basis Set: (AUG-CC-PVTZ AUX)
    Blend: AUG-CC-PVTZ-RI
    Number of shells: 261
    Number of basis functions: 939
    Number of Cartesian functions: 1175
    Spherical Harmonics?: true
    Max angular momentum: 4

	 --------------------------------------------------------
	                 NBF =   418, NAUX =   939
	 --------------------------------------------------------
	   CLASS    FOCC     OCC    AOCC    AVIR     VIR    FVIR
	   PAIRS       0       5       5     413     413       0
	 --------------------------------------------------------

	-----------------------------------------------------------
	 ==================> DF-MP2 Energies <==================== 
	-----------------------------------------------------------
	 Reference Energy          =     -76.0584825173933865 [Eh]
	 Singles Energy            =      -0.0000000000000000 [Eh]
	 Same-Spin Energy          =      -0.0686844524592578 [Eh]
	 Opposite-Spin Energy      =      -0.2165689897814313 [Eh]
	 Correlation Energy        =      -0.2852534422406891 [Eh]
	 Total Energy              =     -76.3437359596340741 [Eh]
	-----------------------------------------------------------
	 ================> DF-SCS-MP2 Energies <================== 
	-----------------------------------------------------------
	 SCS Same-Spin Scale       =       0.3333333333333333 [-]
	 SCS Opposite-Spin Scale   =       1.2000000000000000 [-]
	 SCS Same-Spin Energy      =      -0.0228948174864193 [Eh]
	 SCS Opposite-Spin Energy  =      -0.2598827877377176 [Eh]
	 SCS Correlation Energy    =      -0.2827776052241368 [Eh]
	 SCS Total Energy          =     -76.3412601226175269 [Eh]
	-----------------------------------------------------------


*** tstop() called on ddmfs1 at Mon Jan 22 21:02:23 2024
Module time:
	user time   =      19.40 seconds =       0.32 minutes
	system time =       1.27 seconds =       0.02 minutes
	total time  =          4 seconds =       0.07 minutes
Total time:
	user time   =      78.61 seconds =       1.31 minutes
	system time =       4.86 seconds =       0.08 minutes
	total time  =          7 seconds =       0.12 minutes

    Psi4 stopped on: Monday, 22 January 2024 09:02PM
    Psi4 wall time for execution: 0:00:07.49

*** Psi4 exiting successfully. Buy a developer a beer!
