
    -----------------------------------------------------------------------
          Psi4: An Open-Source Ab Initio Electronic Structure Package
                               Psi4 1.8.2 release

                         Git: Rev {} zzzzzzz 


    D. G. A. Smith, L. A. Burns, A. C. Simmonett, R. M. Parrish,
    M. C. Schieber, R. Galvelis, P. Kraus, H. Kruse, R. Di Remigio,
    A. Alenaizan, A. M. James, S. Lehtola, J. P. Misiewicz, M. Scheurer,
    R. A. Shaw, J. B. Schriber, Y. Xie, Z. L. Glick, D. A. Sirianni,
    J. S. O'Brien, J. M. Waldrop, A. Kumar, E. G. Hohenstein,
    B. P. Pritchard, B. R. Brooks, H. F. Schaefer III, A. Yu. Sokolov,
    K. Patkowski, A. E. DePrince III, U. Bozkaya, R. A. King,
    F. A. Evangelista, J. M. Turney, T. D. Crawford, C. D. Sherrill,
    J. Chem. Phys. 152(18) 184108 (2020). https://doi.org/10.1063/5.0006002

                            Additional Code Authors
    E. T. Seidl, C. L. Janssen, E. F. Valeev, M. L. Leininger,
    J. F. Gonthier, R. M. Richard, H. R. McAlexander, M. Saitow, X. Wang,
    P. Verma, M. H. Lechner, A. Jiang, S. Behnle, A. G. Heide,
    M. F. Herbst, and D. L. Poole

             Previous Authors, Complete List of Code Contributors,
                       and Citations for Specific Modules
    https://github.com/psi4/psi4/blob/master/codemeta.json
    https://github.com/psi4/psi4/graphs/contributors
    http://psicode.org/psi4manual/master/introduction.html#citing-psifour

    -----------------------------------------------------------------------


    Psi4 started on: Monday, 22 January 2024 07:59PM

    Process ID: 100613
    Host:       ddmfs1
    PSIDATADIR: /ddmfs1b/softs/psi4conda/share/psi4
    Memory:     500.0 MiB
    Threads:    20
    
  ==> Input File <==

--------------------------------------------------------------------------
MEMORY 60 GB

molecule dimer {
0 1
Gh(Cl)     0.000000     0.000000     0.000000
Gh(O)      0.342923    -3.144879    -0.065421
Gh(H)      0.545982    -2.209152     0.245600
Gh(H)      0.550095    -3.627707     0.755600
Gh(O)      1.545164    -1.036990    -2.802892
Gh(H)      1.062947    -0.596055    -2.031424
Gh(H)      1.045874    -1.828531    -2.968351
O         -2.202907    -0.562551    -2.232048
H         -2.116080    -1.498992    -1.934838
H         -1.695715    -0.086551    -1.598454
Gh(O)      2.746028     1.913676     0.329460
Gh(H)      1.934738     1.451620     0.279372
Gh(H)      3.036698     2.122048     1.297810

units ang
no_reorient
no_com
symmetry c1
}

set {
basis        aug-cc-pVTZ
scf_type     df
}

energy("mp2")
--------------------------------------------------------------------------

  Memory set to  55.879 GiB by Python driver.

Scratch directory: /ddmfs1a/scratch/
   => Libint2 <=

    Primary   basis highest AM E, G, H:  5, 4, 3
    Auxiliary basis highest AM E, G, H:  6, 5, 4
    Onebody   basis highest AM E, G, H:  6, 5, 4
    Solid Harmonics ordering:            gaussian

*** tstart() called on ddmfs1
*** at Mon Jan 22 19:59:37 2024

   => Loading Basis Set <=

    Name: AUG-CC-PVTZ
    Role: ORBITAL
    Keyword: BASIS
    atoms 1                     entry CL         line   988 file /ddmfs1b/softs/psi4conda/share/psi4/basis/aug-cc-pvtz.gbs 
    atoms 2, 5, 8, 11           entry O          line   331 file /ddmfs1b/softs/psi4conda/share/psi4/basis/aug-cc-pvtz.gbs 
    atoms 3-4, 6-7, 9-10, 12-13 entry H          line    40 file /ddmfs1b/softs/psi4conda/share/psi4/basis/aug-cc-pvtz.gbs 


         ---------------------------------------------------------
                                   SCF
               by Justin Turney, Rob Parrish, Andy Simmonett
                          and Daniel G. A. Smith
                              RHF Reference
                       20 Threads,  57220 MiB Core
         ---------------------------------------------------------

  ==> Geometry <==

    Molecular point group: c1
    Full point group: C1

    Geometry (in Angstrom), charge = 0, multiplicity = 1:

       Center              X                  Y                   Z               Mass       
    ------------   -----------------  -----------------  -----------------  -----------------
      Gh(CL)          0.000000000000     0.000000000000     0.000000000000    34.968852682000
      Gh(O)           0.342923000000    -3.144879000000    -0.065421000000    15.994914619570
      Gh(H)           0.545982000000    -2.209152000000     0.245600000000     1.007825032230
      Gh(H)           0.550095000000    -3.627707000000     0.755600000000     1.007825032230
      Gh(O)           1.545164000000    -1.036990000000    -2.802892000000    15.994914619570
      Gh(H)           1.062947000000    -0.596055000000    -2.031424000000     1.007825032230
      Gh(H)           1.045874000000    -1.828531000000    -2.968351000000     1.007825032230
         O           -2.202907000000    -0.562551000000    -2.232048000000    15.994914619570
         H           -2.116080000000    -1.498992000000    -1.934838000000     1.007825032230
         H           -1.695715000000    -0.086551000000    -1.598454000000     1.007825032230
      Gh(O)           2.746028000000     1.913676000000     0.329460000000    15.994914619570
      Gh(H)           1.934738000000     1.451620000000     0.279372000000     1.007825032230
      Gh(H)           3.036698000000     2.122048000000     1.297810000000     1.007825032230

  Running in c1 symmetry.

  Rotational constants: A =      0.04478  B =      0.03138  C =      0.02776 [cm^-1]
  Rotational constants: A =   1342.52110  B =    940.78339  C =    832.21132 [MHz]
  Nuclear repulsion =    9.141698759187857

  Charge       = 0
  Multiplicity = 1
  Electrons    = 10
  Nalpha       = 5
  Nbeta        = 5

  ==> Algorithm <==

  SCF Algorithm Type is DF.
  DIIS enabled.
  MOM disabled.
  Fractional occupation disabled.
  Guess Type is SAD.
  Energy threshold   = 1.00e-08
  Density threshold  = 1.00e-08
  Integral threshold = 1.00e-12

  ==> Primary Basis <==

  Basis Set: AUG-CC-PVTZ
    Blend: AUG-CC-PVTZ
    Number of shells: 144
    Number of basis functions: 418
    Number of Cartesian functions: 479
    Spherical Harmonics?: true
    Max angular momentum: 3

   => Loading Basis Set <=

    Name: (AUG-CC-PVTZ AUX)
    Role: JKFIT
    Keyword: DF_BASIS_SCF
    atoms 1                     entry CL         line   816 file /ddmfs1b/softs/psi4conda/share/psi4/basis/aug-cc-pvtz-jkfit.gbs 
    atoms 2, 5, 8, 11           entry O          line   286 file /ddmfs1b/softs/psi4conda/share/psi4/basis/aug-cc-pvtz-jkfit.gbs 
    atoms 3-4, 6-7, 9-10, 12-13 entry H          line    70 file /ddmfs1b/softs/psi4conda/share/psi4/basis/aug-cc-pvtz-jkfit.gbs 

  ==> Integral Setup <==

  DFHelper Memory: AOs need 1.145 GiB; user supplied 41.910 GiB. 
  Using in-core AOs.

  ==> MemDFJK: Density-Fitted J/K Matrices <==

    J tasked:                   Yes
    K tasked:                   Yes
    wK tasked:                   No
    OpenMP threads:              20
    Memory [MiB]:             42915
    Algorithm:                 Core
    Schwarz Cutoff:           1E-12
    Mask sparsity (%):      10.9716
    Fitting Condition:        1E-10

   => Auxiliary Basis Set <=

  Basis Set: (AUG-CC-PVTZ AUX)
    Blend: AUG-CC-PVTZ-JKFIT
    Number of shells: 274
    Number of basis functions: 930
    Number of Cartesian functions: 1144
    Spherical Harmonics?: true
    Max angular momentum: 4

  Minimum eigenvalue in the overlap matrix is 1.8575090072E-04.
  Reciprocal condition number of the overlap matrix is 1.6379072298E-05.
    Using symmetric orthogonalization.

  ==> Pre-Iterations <==

  SCF Guess: Superposition of Atomic Densities via on-the-fly atomic UHF (no occupation information).

   -------------------------
    Irrep   Nso     Nmo    
   -------------------------
     A        418     418 
   -------------------------
    Total     418     418
   -------------------------

  ==> Iterations <==

                           Total Energy        Delta E     RMS |[F,P]|

   @DF-RHF iter SAD:   -75.47143554383176   -7.54714e+01   0.00000e+00 
   @DF-RHF iter   1:   -75.97414831185398   -5.02713e-01   1.12148e-03 ADIIS/DIIS
   @DF-RHF iter   2:   -76.02668973581034   -5.25414e-02   7.69330e-04 ADIIS/DIIS
   @DF-RHF iter   3:   -76.05864583486469   -3.19561e-02   5.23705e-05 DIIS
   @DF-RHF iter   4:   -76.05904461359611   -3.98779e-04   1.26884e-05 DIIS
   @DF-RHF iter   5:   -76.05907038636293   -2.57728e-05   2.92899e-06 DIIS
   @DF-RHF iter   6:   -76.05907255007345   -2.16371e-06   6.43614e-07 DIIS
   @DF-RHF iter   7:   -76.05907266420229   -1.14129e-07   1.13922e-07 DIIS
   @DF-RHF iter   8:   -76.05907266732011   -3.11782e-09   1.92213e-08 DIIS
   @DF-RHF iter   9:   -76.05907266739058   -7.04716e-11   4.82692e-09 DIIS
  Energy and wave function converged.


  ==> Post-Iterations <==

    Orbital Energies [Eh]
    ---------------------

    Doubly Occupied:                                                      

       1A    -20.568700     2A     -1.351667     3A     -0.712156  
       4A     -0.585888     5A     -0.510221  

    Virtual:                                                              

       6A      0.015167     7A      0.031126     8A      0.041153  
       9A      0.044530    10A      0.053485    11A      0.062804  
      12A      0.067093    13A      0.079852    14A      0.099682  
      15A      0.104615    16A      0.112212    17A      0.126919  
      18A      0.131158    19A      0.142270    20A      0.146233  
      21A      0.149371    22A      0.154948    23A      0.162379  
      24A      0.164615    25A      0.174175    26A      0.184710  
      27A      0.190278    28A      0.191425    29A      0.202512  
      30A      0.205876    31A      0.226402    32A      0.232715  
      33A      0.240079    34A      0.257467    35A      0.267505  
      36A      0.273061    37A      0.292172    38A      0.296626  
      39A      0.306223    40A      0.311704    41A      0.314028  
      42A      0.318662    43A      0.327391    44A      0.337663  
      45A      0.341696    46A      0.350785    47A      0.353045  
      48A      0.361809    49A      0.367656    50A      0.376528  
      51A      0.386334    52A      0.387913    53A      0.394728  
      54A      0.404500    55A      0.416620    56A      0.431368  
      57A      0.439882    58A      0.447170    59A      0.452140  
      60A      0.465787    61A      0.482280    62A      0.495987  
      63A      0.513204    64A      0.524764    65A      0.564941  
      66A      0.570000    67A      0.570760    68A      0.581023  
      69A      0.590959    70A      0.614849    71A      0.623610  
      72A      0.638718    73A      0.645689    74A      0.654611  
      75A      0.664164    76A      0.685314    77A      0.705298  
      78A      0.706060    79A      0.713857    80A      0.723503  
      81A      0.731071    82A      0.745134    83A      0.755100  
      84A      0.772821    85A      0.776527    86A      0.782449  
      87A      0.786906    88A      0.799674    89A      0.812133  
      90A      0.815183    91A      0.827369    92A      0.830386  
      93A      0.835263    94A      0.841599    95A      0.848165  
      96A      0.858217    97A      0.862210    98A      0.871134  
      99A      0.877926   100A      0.890592   101A      0.897308  
     102A      0.907878   103A      0.908814   104A      0.925481  
     105A      0.926371   106A      0.937906   107A      0.957545  
     108A      0.965845   109A      0.968784   110A      0.974192  
     111A      0.991855   112A      0.995595   113A      1.001016  
     114A      1.007736   115A      1.011186   116A      1.021523  
     117A      1.038891   118A      1.044999   119A      1.047079  
     120A      1.059667   121A      1.065268   122A      1.070679  
     123A      1.085457   124A      1.092059   125A      1.101352  
     126A      1.108821   127A      1.113231   128A      1.131320  
     129A      1.135216   130A      1.150428   131A      1.160355  
     132A      1.166636   133A      1.181087   134A      1.186984  
     135A      1.219837   136A      1.226970   137A      1.234581  
     138A      1.253106   139A      1.263003   140A      1.279108  
     141A      1.283268   142A      1.295103   143A      1.317285  
     144A      1.319725   145A      1.325290   146A      1.348824  
     147A      1.361088   148A      1.386491   149A      1.395811  
     150A      1.429084   151A      1.441730   152A      1.455907  
     153A      1.467711   154A      1.493998   155A      1.520077  
     156A      1.522070   157A      1.543896   158A      1.556103  
     159A      1.556791   160A      1.593620   161A      1.610264  
     162A      1.624283   163A      1.649473   164A      1.662885  
     165A      1.670637   166A      1.690828   167A      1.714948  
     168A      1.719977   169A      1.727139   170A      1.740646  
     171A      1.750071   172A      1.754672   173A      1.781677  
     174A      1.785986   175A      1.793644   176A      1.797481  
     177A      1.827174   178A      1.833994   179A      1.848933  
     180A      1.850716   181A      1.869171   182A      1.885972  
     183A      1.906527   184A      1.916669   185A      1.930194  
     186A      1.941789   187A      1.958101   188A      1.969312  
     189A      1.997507   190A      2.018544   191A      2.052387  
     192A      2.078418   193A      2.084052   194A      2.102124  
     195A      2.192949   196A      2.256943   197A      2.293112  
     198A      2.360622   199A      2.379478   200A      2.401250  
     201A      2.438594   202A      2.451482   203A      2.460430  
     204A      2.470848   205A      2.478738   206A      2.485410  
     207A      2.502174   208A      2.509969   209A      2.527367  
     210A      2.536369   211A      2.551188   212A      2.563739  
     213A      2.580857   214A      2.597494   215A      2.604942  
     216A      2.610211   217A      2.622454   218A      2.639459  
     219A      2.652310   220A      2.663516   221A      2.671639  
     222A      2.677852   223A      2.697635   224A      2.715022  
     225A      2.725340   226A      2.768409   227A      2.775751  
     228A      2.782560   229A      2.803038   230A      2.829462  
     231A      2.839675   232A      2.903344   233A      2.944305  
     234A      2.957239   235A      2.974667   236A      3.005685  
     237A      3.007192   238A      3.119085   239A      3.158163  
     240A      3.163175   241A      3.202440   242A      3.220548  
     243A      3.238206   244A      3.277834   245A      3.295226  
     246A      3.323655   247A      3.337235   248A      3.346434  
     249A      3.402833   250A      3.432095   251A      3.458340  
     252A      3.471483   253A      3.576140   254A      3.583525  
     255A      3.620076   256A      3.730565   257A      3.776290  
     258A      3.792205   259A      3.847605   260A      3.896377  
     261A      4.071108   262A      4.091845   263A      4.127733  
     264A      4.139023   265A      4.162503   266A      4.175535  
     267A      4.215789   268A      4.254542   269A      4.269620  
     270A      4.285955   271A      4.301632   272A      4.314205  
     273A      4.328073   274A      4.378735   275A      4.387004  
     276A      4.407312   277A      4.413057   278A      4.417635  
     279A      4.435384   280A      4.436993   281A      4.450665  
     282A      4.463363   283A      4.471216   284A      4.484614  
     285A      4.502021   286A      4.519645   287A      4.539641  
     288A      4.557191   289A      4.586449   290A      4.605586  
     291A      4.622704   292A      4.651935   293A      4.685267  
     294A      4.691556   295A      4.710424   296A      4.729234  
     297A      4.758512   298A      4.775491   299A      4.787684  
     300A      4.827265   301A      4.877917   302A      4.885442  
     303A      4.897873   304A      4.907143   305A      4.915254  
     306A      4.924596   307A      4.949085   308A      4.967525  
     309A      4.997688   310A      5.020368   311A      5.084725  
     312A      5.135545   313A      5.146588   314A      5.168479  
     315A      5.173306   316A      5.217103   317A      5.249794  
     318A      5.305853   319A      5.341608   320A      5.380243  
     321A      5.401435   322A      5.415225   323A      5.446309  
     324A      5.482074   325A      5.488358   326A      5.504523  
     327A      5.537491   328A      5.578878   329A      5.611996  
     330A      5.679884   331A      5.710312   332A      5.713638  
     333A      5.738470   334A      5.839388   335A      5.874783  
     336A      6.141165   337A      6.146077   338A      6.149412  
     339A      6.258827   340A      6.280347   341A      6.285709  
     342A      6.396809   343A      6.518836   344A      6.552892  
     345A      6.573765   346A      6.689851   347A      6.797511  
     348A      6.947537   349A      6.965191   350A      7.051671  
     351A      7.135464   352A      7.148251   353A      7.293496  
     354A      7.345204   355A      7.370835   356A      7.405122  
     357A      7.437774   358A      7.650079   359A      7.669280  
     360A      7.701736   361A      7.714339   362A      7.745976  
     363A      7.840910   364A      7.850449   365A      7.958958  
     366A      7.982620   367A      8.012312   368A      8.029701  
     369A      8.036887   370A      8.065920   371A      8.187960  
     372A      8.229818   373A      8.234356   374A      8.244860  
     375A      8.269890   376A      8.637242   377A      8.663260  
     378A      8.741148   379A      8.775266   380A      8.821213  
     381A      8.835284   382A      9.038871   383A      9.610593  
     384A      9.689225   385A      9.727182   386A      9.816727  
     387A      9.875207   388A      9.891814   389A     10.019453  
     390A     10.060949   391A     10.070893   392A     10.187275  
     393A     10.294588   394A     10.310380   395A     10.861960  
     396A     11.055683   397A     11.064053   398A     11.614423  
     399A     11.684844   400A     11.696295   401A     11.798857  
     402A     12.058864   403A     12.198341   404A     13.422111  
     405A     13.469384   406A     13.507708   407A     13.908408  
     408A     13.927203   409A     14.026041   410A     15.709512  
     411A     16.478728   412A     28.136364   413A     28.191387  
     414A     28.284627   415A     63.617908   416A     65.178404  
     417A     65.691590   418A    160.937568  

    Final Occupation by Irrep:
              A 
    DOCC [     5 ]
    NA   [     5 ]
    NB   [     5 ]

  @DF-RHF Final Energy:   -76.05907266739058

   => Energetics <=

    Nuclear Repulsion Energy =              9.1416987591878573
    One-Electron Energy =                -122.9442745651027735
    Two-Electron Energy =                  37.7435031385243391
    Total Energy =                        -76.0590726673905806

Computation Completed


Properties will be evaluated at   0.000000,   0.000000,   0.000000 [a0]

Properties computed using the SCF density matrix


 Multipole Moments:

 ------------------------------------------------------------------------------------
     Multipole            Electronic (a.u.)      Nuclear  (a.u.)        Total (a.u.)
 ------------------------------------------------------------------------------------

 L = 1.  Multiply by 2.5417464519 to convert [e a0] to [Debye]
 Dipole X            :         40.9011457          -40.5063759            0.3947698
 Dipole Y            :         11.2045723          -11.5007806           -0.2962083
 Dipole Z            :         41.0373431          -40.4206296            0.6167135
 Magnitude           :                                                    0.7898849

 ------------------------------------------------------------------------------------

*** tstop() called on ddmfs1 at Mon Jan 22 19:59:41 2024
Module time:
	user time   =      60.73 seconds =       1.01 minutes
	system time =       3.63 seconds =       0.06 minutes
	total time  =          4 seconds =       0.07 minutes
Total time:
	user time   =      60.73 seconds =       1.01 minutes
	system time =       3.63 seconds =       0.06 minutes
	total time  =          4 seconds =       0.07 minutes

*** tstart() called on ddmfs1
*** at Mon Jan 22 19:59:41 2024


  //>>>>>>>>>>>>>>>>>>>>>>>>>>>>>>>>>>>//
  //               DFMP2               //
  //<<<<<<<<<<<<<<<<<<<<<<<<<<<<<<<<<<<//

   => Loading Basis Set <=

    Name: (AUG-CC-PVTZ AUX)
    Role: RIFIT
    Keyword: DF_BASIS_MP2
    atoms 1                     entry CL         line   742 file /ddmfs1b/softs/psi4conda/share/psi4/basis/aug-cc-pvtz-ri.gbs 
    atoms 2, 5, 8, 11           entry O          line   264 file /ddmfs1b/softs/psi4conda/share/psi4/basis/aug-cc-pvtz-ri.gbs 
    atoms 3-4, 6-7, 9-10, 12-13 entry H          line    30 file /ddmfs1b/softs/psi4conda/share/psi4/basis/aug-cc-pvtz-ri.gbs 

	 --------------------------------------------------------
	                          DF-MP2                         
	      2nd-Order Density-Fitted Moller-Plesset Theory     
	              RMP2 Wavefunction,  20 Threads             
	                                                         
	        Rob Parrish, Justin Turney, Andy Simmonett,      
	           Ed Hohenstein, and C. David Sherrill          
	 --------------------------------------------------------

   => Auxiliary Basis Set <=

  Basis Set: (AUG-CC-PVTZ AUX)
    Blend: AUG-CC-PVTZ-RI
    Number of shells: 261
    Number of basis functions: 939
    Number of Cartesian functions: 1175
    Spherical Harmonics?: true
    Max angular momentum: 4

	 --------------------------------------------------------
	                 NBF =   418, NAUX =   939
	 --------------------------------------------------------
	   CLASS    FOCC     OCC    AOCC    AVIR     VIR    FVIR
	   PAIRS       0       5       5     413     413       0
	 --------------------------------------------------------

	-----------------------------------------------------------
	 ==================> DF-MP2 Energies <==================== 
	-----------------------------------------------------------
	 Reference Energy          =     -76.0590726673905806 [Eh]
	 Singles Energy            =      -0.0000000000000000 [Eh]
	 Same-Spin Energy          =      -0.0685056307172967 [Eh]
	 Opposite-Spin Energy      =      -0.2161090413479475 [Eh]
	 Correlation Energy        =      -0.2846146720652442 [Eh]
	 Total Energy              =     -76.3436873394558262 [Eh]
	-----------------------------------------------------------
	 ================> DF-SCS-MP2 Energies <================== 
	-----------------------------------------------------------
	 SCS Same-Spin Scale       =       0.3333333333333333 [-]
	 SCS Opposite-Spin Scale   =       1.2000000000000000 [-]
	 SCS Same-Spin Energy      =      -0.0228352102390989 [Eh]
	 SCS Opposite-Spin Energy  =      -0.2593308496175369 [Eh]
	 SCS Correlation Energy    =      -0.2821660598566358 [Eh]
	 SCS Total Energy          =     -76.3412387272472159 [Eh]
	-----------------------------------------------------------


*** tstop() called on ddmfs1 at Mon Jan 22 19:59:45 2024
Module time:
	user time   =      19.42 seconds =       0.32 minutes
	system time =       1.22 seconds =       0.02 minutes
	total time  =          4 seconds =       0.07 minutes
Total time:
	user time   =      80.16 seconds =       1.34 minutes
	system time =       4.85 seconds =       0.08 minutes
	total time  =          8 seconds =       0.13 minutes

    Psi4 stopped on: Monday, 22 January 2024 07:59PM
    Psi4 wall time for execution: 0:00:07.51

*** Psi4 exiting successfully. Buy a developer a beer!
