
    -----------------------------------------------------------------------
          Psi4: An Open-Source Ab Initio Electronic Structure Package
                               Psi4 1.8.2 release

                         Git: Rev {} zzzzzzz 


    D. G. A. Smith, L. A. Burns, A. C. Simmonett, R. M. Parrish,
    M. C. Schieber, R. Galvelis, P. Kraus, H. Kruse, R. Di Remigio,
    A. Alenaizan, A. M. James, S. Lehtola, J. P. Misiewicz, M. Scheurer,
    R. A. Shaw, J. B. Schriber, Y. Xie, Z. L. Glick, D. A. Sirianni,
    J. S. O'Brien, J. M. Waldrop, A. Kumar, E. G. Hohenstein,
    B. P. Pritchard, B. R. Brooks, H. F. Schaefer III, A. Yu. Sokolov,
    K. Patkowski, A. E. DePrince III, U. Bozkaya, R. A. King,
    F. A. Evangelista, J. M. Turney, T. D. Crawford, C. D. Sherrill,
    J. Chem. Phys. 152(18) 184108 (2020). https://doi.org/10.1063/5.0006002

                            Additional Code Authors
    E. T. Seidl, C. L. Janssen, E. F. Valeev, M. L. Leininger,
    J. F. Gonthier, R. M. Richard, H. R. McAlexander, M. Saitow, X. Wang,
    P. Verma, M. H. Lechner, A. Jiang, S. Behnle, A. G. Heide,
    M. F. Herbst, and D. L. Poole

             Previous Authors, Complete List of Code Contributors,
                       and Citations for Specific Modules
    https://github.com/psi4/psi4/blob/master/codemeta.json
    https://github.com/psi4/psi4/graphs/contributors
    http://psicode.org/psi4manual/master/introduction.html#citing-psifour

    -----------------------------------------------------------------------


    Psi4 started on: Monday, 22 January 2024 07:48PM

    Process ID: 99286
    Host:       ddmfs1
    PSIDATADIR: /ddmfs1b/softs/psi4conda/share/psi4
    Memory:     500.0 MiB
    Threads:    20
    
  ==> Input File <==

--------------------------------------------------------------------------
MEMORY 60 GB

molecule dimer {
0 1
Gh(Cl)     0.000000     0.000000     0.000000
Gh(O)      0.523611    -3.326317    -0.270829
Gh(H)      1.371760    -3.541864    -0.752050
Gh(H)      0.520142    -2.413760    -0.485172
Gh(O)     -0.566034    -1.015128    -2.856991
Gh(H)     -1.423681    -1.463563    -2.743114
Gh(H)     -0.308453    -0.737514    -1.960884
O          1.763372     1.458735    -2.322450
H          1.440294     0.911291    -1.581146
H          2.304948     0.879717    -2.772692
Gh(O)     -2.397826    -1.807276     1.763323
Gh(H)     -1.510550    -2.113811     1.658959
Gh(H)     -2.434657    -1.289060     0.981632

units ang
no_reorient
no_com
symmetry c1
}

set {
basis        aug-cc-pVTZ
scf_type     df
}

energy("mp2")
--------------------------------------------------------------------------

  Memory set to  55.879 GiB by Python driver.

Scratch directory: /ddmfs1a/scratch/
   => Libint2 <=

    Primary   basis highest AM E, G, H:  5, 4, 3
    Auxiliary basis highest AM E, G, H:  6, 5, 4
    Onebody   basis highest AM E, G, H:  6, 5, 4
    Solid Harmonics ordering:            gaussian

*** tstart() called on ddmfs1
*** at Mon Jan 22 19:48:27 2024

   => Loading Basis Set <=

    Name: AUG-CC-PVTZ
    Role: ORBITAL
    Keyword: BASIS
    atoms 1                     entry CL         line   988 file /ddmfs1b/softs/psi4conda/share/psi4/basis/aug-cc-pvtz.gbs 
    atoms 2, 5, 8, 11           entry O          line   331 file /ddmfs1b/softs/psi4conda/share/psi4/basis/aug-cc-pvtz.gbs 
    atoms 3-4, 6-7, 9-10, 12-13 entry H          line    40 file /ddmfs1b/softs/psi4conda/share/psi4/basis/aug-cc-pvtz.gbs 


         ---------------------------------------------------------
                                   SCF
               by Justin Turney, Rob Parrish, Andy Simmonett
                          and Daniel G. A. Smith
                              RHF Reference
                       20 Threads,  57220 MiB Core
         ---------------------------------------------------------

  ==> Geometry <==

    Molecular point group: c1
    Full point group: C1

    Geometry (in Angstrom), charge = 0, multiplicity = 1:

       Center              X                  Y                   Z               Mass       
    ------------   -----------------  -----------------  -----------------  -----------------
      Gh(CL)          0.000000000000     0.000000000000     0.000000000000    34.968852682000
      Gh(O)           0.523611000000    -3.326317000000    -0.270829000000    15.994914619570
      Gh(H)           1.371760000000    -3.541864000000    -0.752050000000     1.007825032230
      Gh(H)           0.520142000000    -2.413760000000    -0.485172000000     1.007825032230
      Gh(O)          -0.566034000000    -1.015128000000    -2.856991000000    15.994914619570
      Gh(H)          -1.423681000000    -1.463563000000    -2.743114000000     1.007825032230
      Gh(H)          -0.308453000000    -0.737514000000    -1.960884000000     1.007825032230
         O            1.763372000000     1.458735000000    -2.322450000000    15.994914619570
         H            1.440294000000     0.911291000000    -1.581146000000     1.007825032230
         H            2.304948000000     0.879717000000    -2.772692000000     1.007825032230
      Gh(O)          -2.397826000000    -1.807276000000     1.763323000000    15.994914619570
      Gh(H)          -1.510550000000    -2.113811000000     1.658959000000     1.007825032230
      Gh(H)          -2.434657000000    -1.289060000000     0.981632000000     1.007825032230

  Running in c1 symmetry.

  Rotational constants: A =      0.04972  B =      0.03275  C =      0.02428 [cm^-1]
  Rotational constants: A =   1490.53092  B =    981.95642  C =    727.91837 [MHz]
  Nuclear repulsion =    9.337724829626717

  Charge       = 0
  Multiplicity = 1
  Electrons    = 10
  Nalpha       = 5
  Nbeta        = 5

  ==> Algorithm <==

  SCF Algorithm Type is DF.
  DIIS enabled.
  MOM disabled.
  Fractional occupation disabled.
  Guess Type is SAD.
  Energy threshold   = 1.00e-08
  Density threshold  = 1.00e-08
  Integral threshold = 1.00e-12

  ==> Primary Basis <==

  Basis Set: AUG-CC-PVTZ
    Blend: AUG-CC-PVTZ
    Number of shells: 144
    Number of basis functions: 418
    Number of Cartesian functions: 479
    Spherical Harmonics?: true
    Max angular momentum: 3

   => Loading Basis Set <=

    Name: (AUG-CC-PVTZ AUX)
    Role: JKFIT
    Keyword: DF_BASIS_SCF
    atoms 1                     entry CL         line   816 file /ddmfs1b/softs/psi4conda/share/psi4/basis/aug-cc-pvtz-jkfit.gbs 
    atoms 2, 5, 8, 11           entry O          line   286 file /ddmfs1b/softs/psi4conda/share/psi4/basis/aug-cc-pvtz-jkfit.gbs 
    atoms 3-4, 6-7, 9-10, 12-13 entry H          line    70 file /ddmfs1b/softs/psi4conda/share/psi4/basis/aug-cc-pvtz-jkfit.gbs 

  ==> Integral Setup <==

  DFHelper Memory: AOs need 1.152 GiB; user supplied 41.910 GiB. 
  Using in-core AOs.

  ==> MemDFJK: Density-Fitted J/K Matrices <==

    J tasked:                   Yes
    K tasked:                   Yes
    wK tasked:                   No
    OpenMP threads:              20
    Memory [MiB]:             42915
    Algorithm:                 Core
    Schwarz Cutoff:           1E-12
    Mask sparsity (%):      10.4038
    Fitting Condition:        1E-10

   => Auxiliary Basis Set <=

  Basis Set: (AUG-CC-PVTZ AUX)
    Blend: AUG-CC-PVTZ-JKFIT
    Number of shells: 274
    Number of basis functions: 930
    Number of Cartesian functions: 1144
    Spherical Harmonics?: true
    Max angular momentum: 4

  Minimum eigenvalue in the overlap matrix is 1.4700368630E-04.
  Reciprocal condition number of the overlap matrix is 1.2595813967E-05.
    Using symmetric orthogonalization.

  ==> Pre-Iterations <==

  SCF Guess: Superposition of Atomic Densities via on-the-fly atomic UHF (no occupation information).

   -------------------------
    Irrep   Nso     Nmo    
   -------------------------
     A        418     418 
   -------------------------
    Total     418     418
   -------------------------

  ==> Iterations <==

                           Total Energy        Delta E     RMS |[F,P]|

   @DF-RHF iter SAD:   -75.49365443977052   -7.54937e+01   0.00000e+00 
   @DF-RHF iter   1:   -75.97395411997179   -4.80300e-01   1.12831e-03 ADIIS/DIIS
   @DF-RHF iter   2:   -76.02739134214551   -5.34372e-02   7.58297e-04 ADIIS/DIIS
   @DF-RHF iter   3:   -76.05814088155036   -3.07495e-02   5.15197e-05 DIIS
   @DF-RHF iter   4:   -76.05851783557378   -3.76954e-04   1.20023e-05 DIIS
   @DF-RHF iter   5:   -76.05854015264920   -2.23171e-05   2.74978e-06 DIIS
   @DF-RHF iter   6:   -76.05854200194115   -1.84929e-06   6.03904e-07 DIIS
   @DF-RHF iter   7:   -76.05854210018100   -9.82399e-08   1.07578e-07 DIIS
   @DF-RHF iter   8:   -76.05854210292770   -2.74670e-09   1.78437e-08 DIIS
   @DF-RHF iter   9:   -76.05854210298614   -5.84350e-11   4.37034e-09 DIIS
  Energy and wave function converged.


  ==> Post-Iterations <==

    Orbital Energies [Eh]
    ---------------------

    Doubly Occupied:                                                      

       1A    -20.565429     2A     -1.363079     3A     -0.721203  
       4A     -0.591140     5A     -0.512141  

    Virtual:                                                              

       6A      0.015482     7A      0.033973     8A      0.039881  
       9A      0.043198    10A      0.054694    11A      0.060737  
      12A      0.071334    13A      0.074789    14A      0.101455  
      15A      0.107015    16A      0.121543    17A      0.123875  
      18A      0.131942    19A      0.140520    20A      0.142524  
      21A      0.155338    22A      0.160910    23A      0.162415  
      24A      0.171019    25A      0.172989    26A      0.181546  
      27A      0.186081    28A      0.203940    29A      0.209935  
      30A      0.213013    31A      0.220057    32A      0.235003  
      33A      0.242516    34A      0.244169    35A      0.264053  
      36A      0.275151    37A      0.294468    38A      0.300820  
      39A      0.303484    40A      0.304036    41A      0.311786  
      42A      0.322342    43A      0.333029    44A      0.337596  
      45A      0.344318    46A      0.352245    47A      0.355524  
      48A      0.363853    49A      0.373225    50A      0.382062  
      51A      0.387552    52A      0.394616    53A      0.398248  
      54A      0.409304    55A      0.425445    56A      0.435755  
      57A      0.438089    58A      0.450466    59A      0.458644  
      60A      0.466541    61A      0.473389    62A      0.497740  
      63A      0.501764    64A      0.519634    65A      0.538223  
      66A      0.563050    67A      0.575184    68A      0.590765  
      69A      0.608974    70A      0.613510    71A      0.631812  
      72A      0.639442    73A      0.659770    74A      0.679283  
      75A      0.681642    76A      0.688787    77A      0.705533  
      78A      0.713261    79A      0.725517    80A      0.737117  
      81A      0.744863    82A      0.767146    83A      0.767671  
      84A      0.781731    85A      0.786594    86A      0.790906  
      87A      0.794617    88A      0.810349    89A      0.821727  
      90A      0.824020    91A      0.825562    92A      0.837684  
      93A      0.846188    94A      0.852280    95A      0.861446  
      96A      0.863106    97A      0.870965    98A      0.878397  
      99A      0.894110   100A      0.898731   101A      0.908620  
     102A      0.917602   103A      0.929331   104A      0.932133  
     105A      0.939790   106A      0.950955   107A      0.962034  
     108A      0.968176   109A      0.971768   110A      0.975761  
     111A      0.985562   112A      0.994439   113A      1.006028  
     114A      1.013404   115A      1.017165   116A      1.023143  
     117A      1.026158   118A      1.058360   119A      1.061211  
     120A      1.067232   121A      1.076152   122A      1.087501  
     123A      1.089219   124A      1.102766   125A      1.116756  
     126A      1.123973   127A      1.131513   128A      1.140700  
     129A      1.152215   130A      1.169180   131A      1.191268  
     132A      1.204217   133A      1.206441   134A      1.217224  
     135A      1.226222   136A      1.241143   137A      1.257077  
     138A      1.284563   139A      1.288665   140A      1.291969  
     141A      1.308184   142A      1.317463   143A      1.321920  
     144A      1.360297   145A      1.367165   146A      1.393316  
     147A      1.401498   148A      1.420022   149A      1.440294  
     150A      1.460162   151A      1.469991   152A      1.478716  
     153A      1.505390   154A      1.522392   155A      1.527755  
     156A      1.544335   157A      1.547073   158A      1.566269  
     159A      1.570994   160A      1.587125   161A      1.598413  
     162A      1.624634   163A      1.653086   164A      1.661258  
     165A      1.678218   166A      1.695631   167A      1.712864  
     168A      1.718947   169A      1.726128   170A      1.730280  
     171A      1.738377   172A      1.765469   173A      1.778637  
     174A      1.793759   175A      1.804369   176A      1.810967  
     177A      1.826616   178A      1.836845   179A      1.843504  
     180A      1.862097   181A      1.882688   182A      1.890779  
     183A      1.905694   184A      1.929572   185A      1.969355  
     186A      1.983801   187A      1.988275   188A      2.016436  
     189A      2.037685   190A      2.045604   191A      2.062570  
     192A      2.124724   193A      2.156137   194A      2.167433  
     195A      2.206815   196A      2.293744   197A      2.309546  
     198A      2.335363   199A      2.374317   200A      2.422546  
     201A      2.429415   202A      2.453023   203A      2.470135  
     204A      2.486549   205A      2.491651   206A      2.507991  
     207A      2.523115   208A      2.527570   209A      2.535371  
     210A      2.563159   211A      2.569138   212A      2.576399  
     213A      2.588579   214A      2.604562   215A      2.616017  
     216A      2.625430   217A      2.642476   218A      2.655831  
     219A      2.676287   220A      2.681341   221A      2.697989  
     222A      2.728791   223A      2.734737   224A      2.748422  
     225A      2.756944   226A      2.779532   227A      2.796396  
     228A      2.838520   229A      2.856140   230A      2.880686  
     231A      2.893807   232A      2.900802   233A      2.934306  
     234A      2.954529   235A      2.975441   236A      3.012309  
     237A      3.036556   238A      3.136262   239A      3.179075  
     240A      3.199165   241A      3.218623   242A      3.223306  
     243A      3.236262   244A      3.283651   245A      3.305971  
     246A      3.362488   247A      3.385681   248A      3.457420  
     249A      3.466000   250A      3.484291   251A      3.519239  
     252A      3.553623   253A      3.581508   254A      3.605166  
     255A      3.668635   256A      3.689831   257A      3.803716  
     258A      3.816830   259A      3.877880   260A      3.915575  
     261A      4.035740   262A      4.070588   263A      4.098427  
     264A      4.131045   265A      4.164691   266A      4.183784  
     267A      4.207872   268A      4.233902   269A      4.247210  
     270A      4.301639   271A      4.328847   272A      4.344317  
     273A      4.363825   274A      4.389543   275A      4.403337  
     276A      4.413776   277A      4.422046   278A      4.428527  
     279A      4.446086   280A      4.450796   281A      4.480351  
     282A      4.489739   283A      4.507018   284A      4.512257  
     285A      4.526720   286A      4.541593   287A      4.546770  
     288A      4.562471   289A      4.611187   290A      4.635858  
     291A      4.650960   292A      4.700954   293A      4.718901  
     294A      4.727064   295A      4.747401   296A      4.788707  
     297A      4.802741   298A      4.814187   299A      4.821001  
     300A      4.834633   301A      4.847962   302A      4.858240  
     303A      4.888252   304A      4.894120   305A      4.913939  
     306A      4.919292   307A      4.953124   308A      4.958993  
     309A      4.987647   310A      5.011600   311A      5.051134  
     312A      5.114146   313A      5.129155   314A      5.223751  
     315A      5.256833   316A      5.263835   317A      5.272065  
     318A      5.329863   319A      5.356836   320A      5.381501  
     321A      5.526713   322A      5.533239   323A      5.563859  
     324A      5.586462   325A      5.630703   326A      5.644166  
     327A      5.655093   328A      5.697744   329A      5.723367  
     330A      5.732979   331A      5.738511   332A      5.764621  
     333A      5.878534   334A      5.946879   335A      5.982462  
     336A      6.139431   337A      6.183856   338A      6.187597  
     339A      6.271565   340A      6.298064   341A      6.351166  
     342A      6.426049   343A      6.562160   344A      6.642363  
     345A      6.694333   346A      6.743478   347A      6.796814  
     348A      7.017300   349A      7.072744   350A      7.127474  
     351A      7.170959   352A      7.178794   353A      7.309480  
     354A      7.356485   355A      7.407711   356A      7.433980  
     357A      7.489047   358A      7.701901   359A      7.728589  
     360A      7.755619   361A      7.775515   362A      7.860161  
     363A      7.937368   364A      7.968878   365A      7.986016  
     366A      8.001475   367A      8.056016   368A      8.079025  
     369A      8.098909   370A      8.108869   371A      8.200765  
     372A      8.221661   373A      8.294811   374A      8.311242  
     375A      8.350916   376A      8.753448   377A      8.768363  
     378A      8.810734   379A      8.928098   380A      8.946126  
     381A      8.967245   382A      9.011452   383A      9.662558  
     384A      9.699321   385A      9.758037   386A      9.887955  
     387A      9.899584   388A      9.905495   389A     10.028565  
     390A     10.053189   391A     10.098356   392A     10.293440  
     393A     10.317378   394A     10.366635   395A     11.161536  
     396A     11.168057   397A     11.426799   398A     11.733055  
     399A     11.756703   400A     11.798167   401A     12.118869  
     402A     12.242068   403A     12.359671   404A     13.595319  
     405A     13.634984   406A     13.719814   407A     13.775176  
     408A     13.983793   409A     14.008923   410A     15.529351  
     411A     16.947245   412A     28.021107   413A     28.275364  
     414A     28.337263   415A     65.907380   416A     65.977850  
     417A     66.335202   418A    160.931366  

    Final Occupation by Irrep:
              A 
    DOCC [     5 ]
    NA   [     5 ]
    NB   [     5 ]

  @DF-RHF Final Energy:   -76.05854210298614

   => Energetics <=

    Nuclear Repulsion Energy =              9.3377248296267172
    One-Electron Energy =                -123.2865483823486414
    Two-Electron Energy =                  37.8902814497357809
    Total Energy =                        -76.0585421029861379

Computation Completed


Properties will be evaluated at   0.000000,   0.000000,   0.000000 [a0]

Properties computed using the SCF density matrix


 Multipole Moments:

 ------------------------------------------------------------------------------------
     Multipole            Electronic (a.u.)      Nuclear  (a.u.)        Total (a.u.)
 ------------------------------------------------------------------------------------

 L = 1.  Multiply by 2.5417464519 to convert [e a0] to [Debye]
 Dipole X            :        -33.5827608           33.7358028            0.1530419
 Dipole Y            :        -26.1893024           25.4373917           -0.7519107
 Dipole Z            :         43.5230318          -43.3379169            0.1851149
 Magnitude           :                                                    0.7893409

 ------------------------------------------------------------------------------------

*** tstop() called on ddmfs1 at Mon Jan 22 19:48:31 2024
Module time:
	user time   =      61.26 seconds =       1.02 minutes
	system time =       3.43 seconds =       0.06 minutes
	total time  =          4 seconds =       0.07 minutes
Total time:
	user time   =      61.26 seconds =       1.02 minutes
	system time =       3.43 seconds =       0.06 minutes
	total time  =          4 seconds =       0.07 minutes

*** tstart() called on ddmfs1
*** at Mon Jan 22 19:48:31 2024


  //>>>>>>>>>>>>>>>>>>>>>>>>>>>>>>>>>>>//
  //               DFMP2               //
  //<<<<<<<<<<<<<<<<<<<<<<<<<<<<<<<<<<<//

   => Loading Basis Set <=

    Name: (AUG-CC-PVTZ AUX)
    Role: RIFIT
    Keyword: DF_BASIS_MP2
    atoms 1                     entry CL         line   742 file /ddmfs1b/softs/psi4conda/share/psi4/basis/aug-cc-pvtz-ri.gbs 
    atoms 2, 5, 8, 11           entry O          line   264 file /ddmfs1b/softs/psi4conda/share/psi4/basis/aug-cc-pvtz-ri.gbs 
    atoms 3-4, 6-7, 9-10, 12-13 entry H          line    30 file /ddmfs1b/softs/psi4conda/share/psi4/basis/aug-cc-pvtz-ri.gbs 

	 --------------------------------------------------------
	                          DF-MP2                         
	      2nd-Order Density-Fitted Moller-Plesset Theory     
	              RMP2 Wavefunction,  20 Threads             
	                                                         
	        Rob Parrish, Justin Turney, Andy Simmonett,      
	           Ed Hohenstein, and C. David Sherrill          
	 --------------------------------------------------------

   => Auxiliary Basis Set <=

  Basis Set: (AUG-CC-PVTZ AUX)
    Blend: AUG-CC-PVTZ-RI
    Number of shells: 261
    Number of basis functions: 939
    Number of Cartesian functions: 1175
    Spherical Harmonics?: true
    Max angular momentum: 4

	 --------------------------------------------------------
	                 NBF =   418, NAUX =   939
	 --------------------------------------------------------
	   CLASS    FOCC     OCC    AOCC    AVIR     VIR    FVIR
	   PAIRS       0       5       5     413     413       0
	 --------------------------------------------------------

	-----------------------------------------------------------
	 ==================> DF-MP2 Energies <==================== 
	-----------------------------------------------------------
	 Reference Energy          =     -76.0585421029861379 [Eh]
	 Singles Energy            =      -0.0000000000000000 [Eh]
	 Same-Spin Energy          =      -0.0681853834609620 [Eh]
	 Opposite-Spin Energy      =      -0.2151387632335484 [Eh]
	 Correlation Energy        =      -0.2833241466945104 [Eh]
	 Total Energy              =     -76.3418662496806490 [Eh]
	-----------------------------------------------------------
	 ================> DF-SCS-MP2 Energies <================== 
	-----------------------------------------------------------
	 SCS Same-Spin Scale       =       0.3333333333333333 [-]
	 SCS Opposite-Spin Scale   =       1.2000000000000000 [-]
	 SCS Same-Spin Energy      =      -0.0227284611536540 [Eh]
	 SCS Opposite-Spin Energy  =      -0.2581665158802581 [Eh]
	 SCS Correlation Energy    =      -0.2808949770339121 [Eh]
	 SCS Total Energy          =     -76.3394370800200477 [Eh]
	-----------------------------------------------------------


*** tstop() called on ddmfs1 at Mon Jan 22 19:48:35 2024
Module time:
	user time   =      19.78 seconds =       0.33 minutes
	system time =       1.03 seconds =       0.02 minutes
	total time  =          4 seconds =       0.07 minutes
Total time:
	user time   =      81.06 seconds =       1.35 minutes
	system time =       4.47 seconds =       0.07 minutes
	total time  =          8 seconds =       0.13 minutes

    Psi4 stopped on: Monday, 22 January 2024 07:48PM
    Psi4 wall time for execution: 0:00:07.59

*** Psi4 exiting successfully. Buy a developer a beer!
