
    -----------------------------------------------------------------------
          Psi4: An Open-Source Ab Initio Electronic Structure Package
                               Psi4 1.8.2 release

                         Git: Rev {} zzzzzzz 


    D. G. A. Smith, L. A. Burns, A. C. Simmonett, R. M. Parrish,
    M. C. Schieber, R. Galvelis, P. Kraus, H. Kruse, R. Di Remigio,
    A. Alenaizan, A. M. James, S. Lehtola, J. P. Misiewicz, M. Scheurer,
    R. A. Shaw, J. B. Schriber, Y. Xie, Z. L. Glick, D. A. Sirianni,
    J. S. O'Brien, J. M. Waldrop, A. Kumar, E. G. Hohenstein,
    B. P. Pritchard, B. R. Brooks, H. F. Schaefer III, A. Yu. Sokolov,
    K. Patkowski, A. E. DePrince III, U. Bozkaya, R. A. King,
    F. A. Evangelista, J. M. Turney, T. D. Crawford, C. D. Sherrill,
    J. Chem. Phys. 152(18) 184108 (2020). https://doi.org/10.1063/5.0006002

                            Additional Code Authors
    E. T. Seidl, C. L. Janssen, E. F. Valeev, M. L. Leininger,
    J. F. Gonthier, R. M. Richard, H. R. McAlexander, M. Saitow, X. Wang,
    P. Verma, M. H. Lechner, A. Jiang, S. Behnle, A. G. Heide,
    M. F. Herbst, and D. L. Poole

             Previous Authors, Complete List of Code Contributors,
                       and Citations for Specific Modules
    https://github.com/psi4/psi4/blob/master/codemeta.json
    https://github.com/psi4/psi4/graphs/contributors
    http://psicode.org/psi4manual/master/introduction.html#citing-psifour

    -----------------------------------------------------------------------


    Psi4 started on: Monday, 22 January 2024 08:13PM

    Process ID: 102187
    Host:       ddmfs1
    PSIDATADIR: /ddmfs1b/softs/psi4conda/share/psi4
    Memory:     500.0 MiB
    Threads:    20
    
  ==> Input File <==

--------------------------------------------------------------------------
MEMORY 60 GB

molecule dimer {
0 1
Gh(Cl)     0.000000     0.000000     0.000000
O          2.004466    -0.496177     2.546536
H          2.585244    -1.154785     2.189831
H          1.363421    -0.266412     1.830507
Gh(O)      2.479580    -1.598125    -1.227379
Gh(H)      1.827334    -1.093465    -0.781736
Gh(H)      2.036467    -2.371329    -1.587810
Gh(O)     -2.771537     0.837457     1.822875
Gh(H)     -3.237440     0.820329     0.989508
Gh(H)     -2.323566     0.003383     1.867055
Gh(O)     -0.416174    -1.379225    -3.003309
Gh(H)     -0.168991    -0.896023    -2.169454
Gh(H)      0.155754    -2.140456    -3.062651

units ang
no_reorient
no_com
symmetry c1
}

set {
basis        aug-cc-pVTZ
scf_type     df
}

energy("mp2")
--------------------------------------------------------------------------

  Memory set to  55.879 GiB by Python driver.

Scratch directory: /ddmfs1a/scratch/
   => Libint2 <=

    Primary   basis highest AM E, G, H:  5, 4, 3
    Auxiliary basis highest AM E, G, H:  6, 5, 4
    Onebody   basis highest AM E, G, H:  6, 5, 4
    Solid Harmonics ordering:            gaussian

*** tstart() called on ddmfs1
*** at Mon Jan 22 20:13:32 2024

   => Loading Basis Set <=

    Name: AUG-CC-PVTZ
    Role: ORBITAL
    Keyword: BASIS
    atoms 1                     entry CL         line   988 file /ddmfs1b/softs/psi4conda/share/psi4/basis/aug-cc-pvtz.gbs 
    atoms 2, 5, 8, 11           entry O          line   331 file /ddmfs1b/softs/psi4conda/share/psi4/basis/aug-cc-pvtz.gbs 
    atoms 3-4, 6-7, 9-10, 12-13 entry H          line    40 file /ddmfs1b/softs/psi4conda/share/psi4/basis/aug-cc-pvtz.gbs 


         ---------------------------------------------------------
                                   SCF
               by Justin Turney, Rob Parrish, Andy Simmonett
                          and Daniel G. A. Smith
                              RHF Reference
                       20 Threads,  57220 MiB Core
         ---------------------------------------------------------

  ==> Geometry <==

    Molecular point group: c1
    Full point group: C1

    Geometry (in Angstrom), charge = 0, multiplicity = 1:

       Center              X                  Y                   Z               Mass       
    ------------   -----------------  -----------------  -----------------  -----------------
      Gh(CL)          0.000000000000     0.000000000000     0.000000000000    34.968852682000
         O            2.004466000000    -0.496177000000     2.546536000000    15.994914619570
         H            2.585244000000    -1.154785000000     2.189831000000     1.007825032230
         H            1.363421000000    -0.266412000000     1.830507000000     1.007825032230
      Gh(O)           2.479580000000    -1.598125000000    -1.227379000000    15.994914619570
      Gh(H)           1.827334000000    -1.093465000000    -0.781736000000     1.007825032230
      Gh(H)           2.036467000000    -2.371329000000    -1.587810000000     1.007825032230
      Gh(O)          -2.771537000000     0.837457000000     1.822875000000    15.994914619570
      Gh(H)          -3.237440000000     0.820329000000     0.989508000000     1.007825032230
      Gh(H)          -2.323566000000     0.003383000000     1.867055000000     1.007825032230
      Gh(O)          -0.416174000000    -1.379225000000    -3.003309000000    15.994914619570
      Gh(H)          -0.168991000000    -0.896023000000    -2.169454000000     1.007825032230
      Gh(H)           0.155754000000    -2.140456000000    -3.062651000000     1.007825032230

  Running in c1 symmetry.

  Rotational constants: A =      0.05153  B =      0.03575  C =      0.02234 [cm^-1]
  Rotational constants: A =   1544.92618  B =   1071.90344  C =    669.76071 [MHz]
  Nuclear repulsion =    9.091621839443686

  Charge       = 0
  Multiplicity = 1
  Electrons    = 10
  Nalpha       = 5
  Nbeta        = 5

  ==> Algorithm <==

  SCF Algorithm Type is DF.
  DIIS enabled.
  MOM disabled.
  Fractional occupation disabled.
  Guess Type is SAD.
  Energy threshold   = 1.00e-08
  Density threshold  = 1.00e-08
  Integral threshold = 1.00e-12

  ==> Primary Basis <==

  Basis Set: AUG-CC-PVTZ
    Blend: AUG-CC-PVTZ
    Number of shells: 144
    Number of basis functions: 418
    Number of Cartesian functions: 479
    Spherical Harmonics?: true
    Max angular momentum: 3

   => Loading Basis Set <=

    Name: (AUG-CC-PVTZ AUX)
    Role: JKFIT
    Keyword: DF_BASIS_SCF
    atoms 1                     entry CL         line   816 file /ddmfs1b/softs/psi4conda/share/psi4/basis/aug-cc-pvtz-jkfit.gbs 
    atoms 2, 5, 8, 11           entry O          line   286 file /ddmfs1b/softs/psi4conda/share/psi4/basis/aug-cc-pvtz-jkfit.gbs 
    atoms 3-4, 6-7, 9-10, 12-13 entry H          line    70 file /ddmfs1b/softs/psi4conda/share/psi4/basis/aug-cc-pvtz-jkfit.gbs 

  ==> Integral Setup <==

  DFHelper Memory: AOs need 1.109 GiB; user supplied 41.910 GiB. 
  Using in-core AOs.

  ==> MemDFJK: Density-Fitted J/K Matrices <==

    J tasked:                   Yes
    K tasked:                   Yes
    wK tasked:                   No
    OpenMP threads:              20
    Memory [MiB]:             42915
    Algorithm:                 Core
    Schwarz Cutoff:           1E-12
    Mask sparsity (%):      13.9466
    Fitting Condition:        1E-10

   => Auxiliary Basis Set <=

  Basis Set: (AUG-CC-PVTZ AUX)
    Blend: AUG-CC-PVTZ-JKFIT
    Number of shells: 274
    Number of basis functions: 930
    Number of Cartesian functions: 1144
    Spherical Harmonics?: true
    Max angular momentum: 4

  Minimum eigenvalue in the overlap matrix is 1.8465007632E-04.
  Reciprocal condition number of the overlap matrix is 1.6765579556E-05.
    Using symmetric orthogonalization.

  ==> Pre-Iterations <==

  SCF Guess: Superposition of Atomic Densities via on-the-fly atomic UHF (no occupation information).

   -------------------------
    Irrep   Nso     Nmo    
   -------------------------
     A        418     418 
   -------------------------
    Total     418     418
   -------------------------

  ==> Iterations <==

                           Total Energy        Delta E     RMS |[F,P]|

   @DF-RHF iter SAD:   -75.46312070756046   -7.54631e+01   0.00000e+00 
   @DF-RHF iter   1:   -75.97424289140861   -5.11122e-01   1.12006e-03 ADIIS/DIIS
   @DF-RHF iter   2:   -76.02649297109011   -5.22501e-02   7.69607e-04 ADIIS/DIIS
   @DF-RHF iter   3:   -76.05850435072561   -3.20114e-02   5.24667e-05 DIIS
   @DF-RHF iter   4:   -76.05891161817742   -4.07267e-04   1.28262e-05 DIIS
   @DF-RHF iter   5:   -76.05893826841557   -2.66502e-05   2.94966e-06 DIIS
   @DF-RHF iter   6:   -76.05894051139364   -2.24298e-06   6.56949e-07 DIIS
   @DF-RHF iter   7:   -76.05894063370629   -1.22313e-07   1.20351e-07 DIIS
   @DF-RHF iter   8:   -76.05894063729887   -3.59259e-09   2.03515e-08 DIIS
   @DF-RHF iter   9:   -76.05894063738164   -8.27640e-11   5.22952e-09 DIIS
  Energy and wave function converged.


  ==> Post-Iterations <==

    Orbital Energies [Eh]
    ---------------------

    Doubly Occupied:                                                      

       1A    -20.568024     2A     -1.346996     3A     -0.716085  
       4A     -0.578597     5A     -0.508856  

    Virtual:                                                              

       6A      0.015868     7A      0.031825     8A      0.038228  
       9A      0.047730    10A      0.056313    11A      0.059623  
      12A      0.068398    13A      0.073943    14A      0.091605  
      15A      0.110450    16A      0.114656    17A      0.127244  
      18A      0.130223    19A      0.134558    20A      0.142658  
      21A      0.152701    22A      0.157119    23A      0.161259  
      24A      0.165098    25A      0.178094    26A      0.181335  
      27A      0.185670    28A      0.192276    29A      0.208081  
      30A      0.214181    31A      0.220444    32A      0.230867  
      33A      0.238321    34A      0.250414    35A      0.264165  
      36A      0.273082    37A      0.282706    38A      0.290370  
      39A      0.299665    40A      0.302202    41A      0.312944  
      42A      0.315528    43A      0.318023    44A      0.326485  
      45A      0.329835    46A      0.347361    47A      0.352474  
      48A      0.359538    49A      0.368099    50A      0.376028  
      51A      0.380190    52A      0.384240    53A      0.391363  
      54A      0.404056    55A      0.407363    56A      0.417293  
      57A      0.431410    58A      0.438207    59A      0.454968  
      60A      0.465231    61A      0.468839    62A      0.487124  
      63A      0.492779    64A      0.504275    65A      0.519848  
      66A      0.543160    67A      0.548365    68A      0.571370  
      69A      0.582190    70A      0.616338    71A      0.629666  
      72A      0.632391    73A      0.660963    74A      0.667070  
      75A      0.674072    76A      0.695914    77A      0.707290  
      78A      0.719594    79A      0.728779    80A      0.739903  
      81A      0.748625    82A      0.751804    83A      0.764428  
      84A      0.772112    85A      0.779115    86A      0.787893  
      87A      0.793686    88A      0.795830    89A      0.806008  
      90A      0.814334    91A      0.819188    92A      0.827360  
      93A      0.834119    94A      0.840113    95A      0.842474  
      96A      0.855431    97A      0.861947    98A      0.875428  
      99A      0.883213   100A      0.891833   101A      0.894357  
     102A      0.903804   103A      0.910010   104A      0.922455  
     105A      0.928776   106A      0.929700   107A      0.943755  
     108A      0.947846   109A      0.952137   110A      0.959087  
     111A      0.965492   112A      0.975756   113A      0.984523  
     114A      0.988609   115A      0.996973   116A      1.008493  
     117A      1.021161   118A      1.027059   119A      1.038294  
     120A      1.044617   121A      1.051866   122A      1.065868  
     123A      1.067273   124A      1.082402   125A      1.089826  
     126A      1.111459   127A      1.126259   128A      1.134479  
     129A      1.142928   130A      1.159628   131A      1.163506  
     132A      1.188566   133A      1.202430   134A      1.207088  
     135A      1.211353   136A      1.244648   137A      1.244821  
     138A      1.255260   139A      1.261614   140A      1.273331  
     141A      1.291189   142A      1.297580   143A      1.314480  
     144A      1.326864   145A      1.341834   146A      1.372229  
     147A      1.384764   148A      1.392993   149A      1.410920  
     150A      1.417844   151A      1.439723   152A      1.462378  
     153A      1.476427   154A      1.482358   155A      1.509622  
     156A      1.517147   157A      1.534230   158A      1.567491  
     159A      1.577318   160A      1.582664   161A      1.590400  
     162A      1.617403   163A      1.625099   164A      1.626071  
     165A      1.646713   166A      1.659209   167A      1.675474  
     168A      1.715254   169A      1.724179   170A      1.733765  
     171A      1.739758   172A      1.754518   173A      1.774605  
     174A      1.781083   175A      1.786000   176A      1.796008  
     177A      1.797924   178A      1.817875   179A      1.830038  
     180A      1.843772   181A      1.856199   182A      1.867184  
     183A      1.879769   184A      1.893858   185A      1.908117  
     186A      1.935929   187A      1.958847   188A      1.977702  
     189A      2.005899   190A      2.026780   191A      2.054918  
     192A      2.076558   193A      2.127240   194A      2.142264  
     195A      2.153900   196A      2.187735   197A      2.197985  
     198A      2.301402   199A      2.372384   200A      2.399008  
     201A      2.433813   202A      2.463678   203A      2.481677  
     204A      2.486149   205A      2.497423   206A      2.502616  
     207A      2.526444   208A      2.528159   209A      2.541256  
     210A      2.542780   211A      2.557275   212A      2.570069  
     213A      2.589803   214A      2.604657   215A      2.619208  
     216A      2.630235   217A      2.634490   218A      2.648724  
     219A      2.658748   220A      2.672505   221A      2.682515  
     222A      2.692145   223A      2.722213   224A      2.724415  
     225A      2.751898   226A      2.762365   227A      2.772284  
     228A      2.808802   229A      2.819413   230A      2.839938  
     231A      2.887170   232A      2.927332   233A      2.941018  
     234A      2.967303   235A      3.015197   236A      3.056833  
     237A      3.071848   238A      3.178210   239A      3.186499  
     240A      3.194072   241A      3.219363   242A      3.225631  
     243A      3.246010   244A      3.255679   245A      3.313388  
     246A      3.329466   247A      3.337099   248A      3.354818  
     249A      3.389009   250A      3.430371   251A      3.452135  
     252A      3.534240   253A      3.542347   254A      3.607799  
     255A      3.659093   256A      3.686517   257A      3.729970  
     258A      3.780053   259A      3.807363   260A      3.873418  
     261A      3.976261   262A      4.023401   263A      4.066786  
     264A      4.090521   265A      4.113698   266A      4.151878  
     267A      4.205685   268A      4.216518   269A      4.234137  
     270A      4.262426   271A      4.275381   272A      4.325308  
     273A      4.337418   274A      4.377414   275A      4.391697  
     276A      4.399102   277A      4.414349   278A      4.431743  
     279A      4.447296   280A      4.457244   281A      4.469901  
     282A      4.481553   283A      4.493338   284A      4.516711  
     285A      4.538039   286A      4.555021   287A      4.581586  
     288A      4.591942   289A      4.614521   290A      4.648766  
     291A      4.667018   292A      4.672915   293A      4.686873  
     294A      4.698124   295A      4.708151   296A      4.718922  
     297A      4.747978   298A      4.763155   299A      4.774964  
     300A      4.800015   301A      4.824274   302A      4.863426  
     303A      4.876248   304A      4.885935   305A      4.914717  
     306A      4.923661   307A      4.949352   308A      4.964797  
     309A      4.992169   310A      4.995994   311A      5.031809  
     312A      5.041239   313A      5.143751   314A      5.155329  
     315A      5.196756   316A      5.213278   317A      5.224442  
     318A      5.297502   319A      5.334767   320A      5.359028  
     321A      5.398325   322A      5.488218   323A      5.508287  
     324A      5.529521   325A      5.572997   326A      5.597667  
     327A      5.651555   328A      5.661003   329A      5.679347  
     330A      5.700636   331A      5.743967   332A      5.779340  
     333A      5.825995   334A      5.863504   335A      5.896192  
     336A      6.116221   337A      6.158532   338A      6.186325  
     339A      6.200116   340A      6.425765   341A      6.445133  
     342A      6.510937   343A      6.575793   344A      6.658945  
     345A      6.674060   346A      6.758464   347A      6.772186  
     348A      6.913040   349A      7.067569   350A      7.109048  
     351A      7.138215   352A      7.195269   353A      7.272883  
     354A      7.328479   355A      7.359276   356A      7.412347  
     357A      7.454915   358A      7.687145   359A      7.707244  
     360A      7.722129   361A      7.773715   362A      7.826794  
     363A      7.842630   364A      7.857579   365A      7.920493  
     366A      8.017547   367A      8.061997   368A      8.084319  
     369A      8.188257   370A      8.207714   371A      8.255302  
     372A      8.289324   373A      8.310777   374A      8.321459  
     375A      8.336704   376A      8.766659   377A      8.785390  
     378A      8.803375   379A      8.873958   380A      8.880368  
     381A      8.887481   382A      9.120846   383A      9.687994  
     384A      9.690564   385A      9.751617   386A      9.841374  
     387A      9.875092   388A      9.902148   389A     10.009827  
     390A     10.067564   391A     10.125742   392A     10.219163  
     393A     10.299414   394A     10.325704   395A     11.097593  
     396A     11.265787   397A     11.285479   398A     11.671184  
     399A     11.687844   400A     11.810905   401A     12.052832  
     402A     12.209484   403A     12.330910   404A     13.515375  
     405A     13.604350   406A     13.764873   407A     13.775845  
     408A     13.942469   409A     13.999713   410A     15.302252  
     411A     16.423932   412A     27.805847   413A     28.230520  
     414A     28.338034   415A     65.309811   416A     65.386900  
     417A     67.748706   418A    160.908290  

    Final Occupation by Irrep:
              A 
    DOCC [     5 ]
    NA   [     5 ]
    NB   [     5 ]

  @DF-RHF Final Energy:   -76.05894063738164

   => Energetics <=

    Nuclear Repulsion Energy =              9.0916218394436861
    One-Electron Energy =                -122.8640078826762760
    Two-Electron Energy =                  37.7134454058509476
    Total Energy =                        -76.0589406373816388

Computation Completed


Properties will be evaluated at   0.000000,   0.000000,   0.000000 [a0]

Properties computed using the SCF density matrix


 Multipole Moments:

 ------------------------------------------------------------------------------------
     Multipole            Electronic (a.u.)      Nuclear  (a.u.)        Total (a.u.)
 ------------------------------------------------------------------------------------

 L = 1.  Multiply by 2.5417464519 to convert [e a0] to [Debye]
 Dipole X            :        -37.8001513           37.7650296           -0.0351217
 Dipole Y            :          9.8977748          -10.1867822           -0.2890074
 Dipole Z            :        -46.8078868           46.0953826           -0.7125042
 Magnitude           :                                                    0.7696889

 ------------------------------------------------------------------------------------

*** tstop() called on ddmfs1 at Mon Jan 22 20:13:36 2024
Module time:
	user time   =      60.05 seconds =       1.00 minutes
	system time =       3.38 seconds =       0.06 minutes
	total time  =          4 seconds =       0.07 minutes
Total time:
	user time   =      60.05 seconds =       1.00 minutes
	system time =       3.38 seconds =       0.06 minutes
	total time  =          4 seconds =       0.07 minutes

*** tstart() called on ddmfs1
*** at Mon Jan 22 20:13:36 2024


  //>>>>>>>>>>>>>>>>>>>>>>>>>>>>>>>>>>>//
  //               DFMP2               //
  //<<<<<<<<<<<<<<<<<<<<<<<<<<<<<<<<<<<//

   => Loading Basis Set <=

    Name: (AUG-CC-PVTZ AUX)
    Role: RIFIT
    Keyword: DF_BASIS_MP2
    atoms 1                     entry CL         line   742 file /ddmfs1b/softs/psi4conda/share/psi4/basis/aug-cc-pvtz-ri.gbs 
    atoms 2, 5, 8, 11           entry O          line   264 file /ddmfs1b/softs/psi4conda/share/psi4/basis/aug-cc-pvtz-ri.gbs 
    atoms 3-4, 6-7, 9-10, 12-13 entry H          line    30 file /ddmfs1b/softs/psi4conda/share/psi4/basis/aug-cc-pvtz-ri.gbs 

	 --------------------------------------------------------
	                          DF-MP2                         
	      2nd-Order Density-Fitted Moller-Plesset Theory     
	              RMP2 Wavefunction,  20 Threads             
	                                                         
	        Rob Parrish, Justin Turney, Andy Simmonett,      
	           Ed Hohenstein, and C. David Sherrill          
	 --------------------------------------------------------

   => Auxiliary Basis Set <=

  Basis Set: (AUG-CC-PVTZ AUX)
    Blend: AUG-CC-PVTZ-RI
    Number of shells: 261
    Number of basis functions: 939
    Number of Cartesian functions: 1175
    Spherical Harmonics?: true
    Max angular momentum: 4

	 --------------------------------------------------------
	                 NBF =   418, NAUX =   939
	 --------------------------------------------------------
	   CLASS    FOCC     OCC    AOCC    AVIR     VIR    FVIR
	   PAIRS       0       5       5     413     413       0
	 --------------------------------------------------------

	-----------------------------------------------------------
	 ==================> DF-MP2 Energies <==================== 
	-----------------------------------------------------------
	 Reference Energy          =     -76.0589406373816388 [Eh]
	 Singles Energy            =      -0.0000000000000000 [Eh]
	 Same-Spin Energy          =      -0.0685216216753615 [Eh]
	 Opposite-Spin Energy      =      -0.2162037765822767 [Eh]
	 Correlation Energy        =      -0.2847253982576383 [Eh]
	 Total Energy              =     -76.3436660356392736 [Eh]
	-----------------------------------------------------------
	 ================> DF-SCS-MP2 Energies <================== 
	-----------------------------------------------------------
	 SCS Same-Spin Scale       =       0.3333333333333333 [-]
	 SCS Opposite-Spin Scale   =       1.2000000000000000 [-]
	 SCS Same-Spin Energy      =      -0.0228405405584538 [Eh]
	 SCS Opposite-Spin Energy  =      -0.2594445318987321 [Eh]
	 SCS Correlation Energy    =      -0.2822850724571859 [Eh]
	 SCS Total Energy          =     -76.3412257098388238 [Eh]
	-----------------------------------------------------------


*** tstop() called on ddmfs1 at Mon Jan 22 20:13:39 2024
Module time:
	user time   =      19.44 seconds =       0.32 minutes
	system time =       1.08 seconds =       0.02 minutes
	total time  =          3 seconds =       0.05 minutes
Total time:
	user time   =      79.51 seconds =       1.33 minutes
	system time =       4.46 seconds =       0.07 minutes
	total time  =          7 seconds =       0.12 minutes

    Psi4 stopped on: Monday, 22 January 2024 08:13PM
    Psi4 wall time for execution: 0:00:07.50

*** Psi4 exiting successfully. Buy a developer a beer!
