
    -----------------------------------------------------------------------
          Psi4: An Open-Source Ab Initio Electronic Structure Package
                               Psi4 1.8.2 release

                         Git: Rev {} zzzzzzz 


    D. G. A. Smith, L. A. Burns, A. C. Simmonett, R. M. Parrish,
    M. C. Schieber, R. Galvelis, P. Kraus, H. Kruse, R. Di Remigio,
    A. Alenaizan, A. M. James, S. Lehtola, J. P. Misiewicz, M. Scheurer,
    R. A. Shaw, J. B. Schriber, Y. Xie, Z. L. Glick, D. A. Sirianni,
    J. S. O'Brien, J. M. Waldrop, A. Kumar, E. G. Hohenstein,
    B. P. Pritchard, B. R. Brooks, H. F. Schaefer III, A. Yu. Sokolov,
    K. Patkowski, A. E. DePrince III, U. Bozkaya, R. A. King,
    F. A. Evangelista, J. M. Turney, T. D. Crawford, C. D. Sherrill,
    J. Chem. Phys. 152(18) 184108 (2020). https://doi.org/10.1063/5.0006002

                            Additional Code Authors
    E. T. Seidl, C. L. Janssen, E. F. Valeev, M. L. Leininger,
    J. F. Gonthier, R. M. Richard, H. R. McAlexander, M. Saitow, X. Wang,
    P. Verma, M. H. Lechner, A. Jiang, S. Behnle, A. G. Heide,
    M. F. Herbst, and D. L. Poole

             Previous Authors, Complete List of Code Contributors,
                       and Citations for Specific Modules
    https://github.com/psi4/psi4/blob/master/codemeta.json
    https://github.com/psi4/psi4/graphs/contributors
    http://psicode.org/psi4manual/master/introduction.html#citing-psifour

    -----------------------------------------------------------------------


    Psi4 started on: Monday, 22 January 2024 07:48PM

    Process ID: 99241
    Host:       ddmfs1
    PSIDATADIR: /ddmfs1b/softs/psi4conda/share/psi4
    Memory:     500.0 MiB
    Threads:    20
    
  ==> Input File <==

--------------------------------------------------------------------------
MEMORY 60 GB

molecule dimer {
0 1
Gh(Cl)     0.000000     0.000000     0.000000
O          0.523611    -3.326317    -0.270829
H          1.371760    -3.541864    -0.752050
H          0.520142    -2.413760    -0.485172
Gh(O)     -0.566034    -1.015128    -2.856991
Gh(H)     -1.423681    -1.463563    -2.743114
Gh(H)     -0.308453    -0.737514    -1.960884
Gh(O)      1.763372     1.458735    -2.322450
Gh(H)      1.440294     0.911291    -1.581146
Gh(H)      2.304948     0.879717    -2.772692
Gh(O)     -2.397826    -1.807276     1.763323
Gh(H)     -1.510550    -2.113811     1.658959
Gh(H)     -2.434657    -1.289060     0.981632

units ang
no_reorient
no_com
symmetry c1
}

set {
basis        aug-cc-pVTZ
scf_type     df
}

energy("mp2")
--------------------------------------------------------------------------

  Memory set to  55.879 GiB by Python driver.

Scratch directory: /ddmfs1a/scratch/
   => Libint2 <=

    Primary   basis highest AM E, G, H:  5, 4, 3
    Auxiliary basis highest AM E, G, H:  6, 5, 4
    Onebody   basis highest AM E, G, H:  6, 5, 4
    Solid Harmonics ordering:            gaussian

*** tstart() called on ddmfs1
*** at Mon Jan 22 19:48:11 2024

   => Loading Basis Set <=

    Name: AUG-CC-PVTZ
    Role: ORBITAL
    Keyword: BASIS
    atoms 1                     entry CL         line   988 file /ddmfs1b/softs/psi4conda/share/psi4/basis/aug-cc-pvtz.gbs 
    atoms 2, 5, 8, 11           entry O          line   331 file /ddmfs1b/softs/psi4conda/share/psi4/basis/aug-cc-pvtz.gbs 
    atoms 3-4, 6-7, 9-10, 12-13 entry H          line    40 file /ddmfs1b/softs/psi4conda/share/psi4/basis/aug-cc-pvtz.gbs 


         ---------------------------------------------------------
                                   SCF
               by Justin Turney, Rob Parrish, Andy Simmonett
                          and Daniel G. A. Smith
                              RHF Reference
                       20 Threads,  57220 MiB Core
         ---------------------------------------------------------

  ==> Geometry <==

    Molecular point group: c1
    Full point group: C1

    Geometry (in Angstrom), charge = 0, multiplicity = 1:

       Center              X                  Y                   Z               Mass       
    ------------   -----------------  -----------------  -----------------  -----------------
      Gh(CL)          0.000000000000     0.000000000000     0.000000000000    34.968852682000
         O            0.523611000000    -3.326317000000    -0.270829000000    15.994914619570
         H            1.371760000000    -3.541864000000    -0.752050000000     1.007825032230
         H            0.520142000000    -2.413760000000    -0.485172000000     1.007825032230
      Gh(O)          -0.566034000000    -1.015128000000    -2.856991000000    15.994914619570
      Gh(H)          -1.423681000000    -1.463563000000    -2.743114000000     1.007825032230
      Gh(H)          -0.308453000000    -0.737514000000    -1.960884000000     1.007825032230
      Gh(O)           1.763372000000     1.458735000000    -2.322450000000    15.994914619570
      Gh(H)           1.440294000000     0.911291000000    -1.581146000000     1.007825032230
      Gh(H)           2.304948000000     0.879717000000    -2.772692000000     1.007825032230
      Gh(O)          -2.397826000000    -1.807276000000     1.763323000000    15.994914619570
      Gh(H)          -1.510550000000    -2.113811000000     1.658959000000     1.007825032230
      Gh(H)          -2.434657000000    -1.289060000000     0.981632000000     1.007825032230

  Running in c1 symmetry.

  Rotational constants: A =      0.04972  B =      0.03275  C =      0.02428 [cm^-1]
  Rotational constants: A =   1490.53092  B =    981.95642  C =    727.91837 [MHz]
  Nuclear repulsion =    9.122971513284259

  Charge       = 0
  Multiplicity = 1
  Electrons    = 10
  Nalpha       = 5
  Nbeta        = 5

  ==> Algorithm <==

  SCF Algorithm Type is DF.
  DIIS enabled.
  MOM disabled.
  Fractional occupation disabled.
  Guess Type is SAD.
  Energy threshold   = 1.00e-08
  Density threshold  = 1.00e-08
  Integral threshold = 1.00e-12

  ==> Primary Basis <==

  Basis Set: AUG-CC-PVTZ
    Blend: AUG-CC-PVTZ
    Number of shells: 144
    Number of basis functions: 418
    Number of Cartesian functions: 479
    Spherical Harmonics?: true
    Max angular momentum: 3

   => Loading Basis Set <=

    Name: (AUG-CC-PVTZ AUX)
    Role: JKFIT
    Keyword: DF_BASIS_SCF
    atoms 1                     entry CL         line   816 file /ddmfs1b/softs/psi4conda/share/psi4/basis/aug-cc-pvtz-jkfit.gbs 
    atoms 2, 5, 8, 11           entry O          line   286 file /ddmfs1b/softs/psi4conda/share/psi4/basis/aug-cc-pvtz-jkfit.gbs 
    atoms 3-4, 6-7, 9-10, 12-13 entry H          line    70 file /ddmfs1b/softs/psi4conda/share/psi4/basis/aug-cc-pvtz-jkfit.gbs 

  ==> Integral Setup <==

  DFHelper Memory: AOs need 1.152 GiB; user supplied 41.910 GiB. 
  Using in-core AOs.

  ==> MemDFJK: Density-Fitted J/K Matrices <==

    J tasked:                   Yes
    K tasked:                   Yes
    wK tasked:                   No
    OpenMP threads:              20
    Memory [MiB]:             42915
    Algorithm:                 Core
    Schwarz Cutoff:           1E-12
    Mask sparsity (%):      10.4038
    Fitting Condition:        1E-10

   => Auxiliary Basis Set <=

  Basis Set: (AUG-CC-PVTZ AUX)
    Blend: AUG-CC-PVTZ-JKFIT
    Number of shells: 274
    Number of basis functions: 930
    Number of Cartesian functions: 1144
    Spherical Harmonics?: true
    Max angular momentum: 4

  Minimum eigenvalue in the overlap matrix is 1.4700368630E-04.
  Reciprocal condition number of the overlap matrix is 1.2595813967E-05.
    Using symmetric orthogonalization.

  ==> Pre-Iterations <==

  SCF Guess: Superposition of Atomic Densities via on-the-fly atomic UHF (no occupation information).

   -------------------------
    Irrep   Nso     Nmo    
   -------------------------
     A        418     418 
   -------------------------
    Total     418     418
   -------------------------

  ==> Iterations <==

                           Total Energy        Delta E     RMS |[F,P]|

   @DF-RHF iter SAD:   -75.47421797891612   -7.54742e+01   0.00000e+00 
   @DF-RHF iter   1:   -75.96934184447511   -4.95124e-01   1.12317e-03 DIIS/ADIIS
   @DF-RHF iter   2:   -76.02202308025065   -5.26812e-02   7.81254e-04 DIIS/ADIIS
   @DF-RHF iter   3:   -76.05515522443127   -3.31321e-02   5.28203e-05 DIIS
   @DF-RHF iter   4:   -76.05555544789900   -4.00223e-04   1.31207e-05 DIIS
   @DF-RHF iter   5:   -76.05558346197154   -2.80141e-05   3.15170e-06 DIIS
   @DF-RHF iter   6:   -76.05558594761798   -2.48565e-06   6.76297e-07 DIIS
   @DF-RHF iter   7:   -76.05558606932270   -1.21705e-07   1.08312e-07 DIIS
   @DF-RHF iter   8:   -76.05558607196834   -2.64563e-09   1.79318e-08 DIIS
   @DF-RHF iter   9:   -76.05558607202262   -5.42855e-11   4.08243e-09 DIIS
  Energy and wave function converged.


  ==> Post-Iterations <==

    Orbital Energies [Eh]
    ---------------------

    Doubly Occupied:                                                      

       1A    -20.572431     2A     -1.355271     3A     -0.695117  
       4A     -0.599286     5A     -0.512020  

    Virtual:                                                              

       6A      0.015994     7A      0.036156     8A      0.039872  
       9A      0.043375    10A      0.055330    11A      0.064854  
      12A      0.067435    13A      0.074856    14A      0.098886  
      15A      0.111539    16A      0.123855    17A      0.132321  
      18A      0.133890    19A      0.139508    20A      0.146781  
      21A      0.152829    22A      0.155149    23A      0.162897  
      24A      0.178806    25A      0.179365    26A      0.182552  
      27A      0.186157    28A      0.189203    29A      0.203731  
      30A      0.218627    31A      0.223826    32A      0.234466  
      33A      0.240043    34A      0.251780    35A      0.266244  
      36A      0.276274    37A      0.290570    38A      0.300756  
      39A      0.305074    40A      0.306318    41A      0.317895  
      42A      0.326279    43A      0.330897    44A      0.340758  
      45A      0.348126    46A      0.355573    47A      0.357695  
      48A      0.361662    49A      0.378998    50A      0.382339  
      51A      0.391713    52A      0.397926    53A      0.403894  
      54A      0.416134    55A      0.424529    56A      0.429620  
      57A      0.442495    58A      0.446553    59A      0.459921  
      60A      0.466750    61A      0.475112    62A      0.492509  
      63A      0.500829    64A      0.507842    65A      0.523582  
      66A      0.567447    67A      0.587440    68A      0.588873  
      69A      0.604267    70A      0.632451    71A      0.639571  
      72A      0.642864    73A      0.657365    74A      0.683349  
      75A      0.691431    76A      0.694559    77A      0.709011  
      78A      0.725597    79A      0.733416    80A      0.741434  
      81A      0.749684    82A      0.759447    83A      0.767178  
      84A      0.778128    85A      0.787551    86A      0.789619  
      87A      0.799625    88A      0.806328    89A      0.821559  
      90A      0.826087    91A      0.840425    92A      0.846190  
      93A      0.851473    94A      0.854015    95A      0.862619  
      96A      0.869402    97A      0.874714    98A      0.879549  
      99A      0.888141   100A      0.895743   101A      0.910409  
     102A      0.913784   103A      0.914355   104A      0.924171  
     105A      0.932562   106A      0.945972   107A      0.957075  
     108A      0.964296   109A      0.966436   110A      0.978588  
     111A      0.988981   112A      0.998920   113A      1.002290  
     114A      1.011084   115A      1.014167   116A      1.023208  
     117A      1.042965   118A      1.049876   119A      1.063962  
     120A      1.071712   121A      1.078904   122A      1.092598  
     123A      1.097049   124A      1.100544   125A      1.114313  
     126A      1.121633   127A      1.128302   128A      1.149879  
     129A      1.153859   130A      1.171021   131A      1.173181  
     132A      1.199512   133A      1.211888   134A      1.227105  
     135A      1.242325   136A      1.252297   137A      1.261273  
     138A      1.267763   139A      1.296585   140A      1.307677  
     141A      1.313548   142A      1.317294   143A      1.335855  
     144A      1.340671   145A      1.378424   146A      1.394324  
     147A      1.416873   148A      1.432468   149A      1.442833  
     150A      1.460449   151A      1.469989   152A      1.484329  
     153A      1.496578   154A      1.520768   155A      1.527794  
     156A      1.547033   157A      1.548138   158A      1.552939  
     159A      1.577625   160A      1.592980   161A      1.609073  
     162A      1.629545   163A      1.639167   164A      1.662286  
     165A      1.690396   166A      1.709109   167A      1.714733  
     168A      1.721145   169A      1.734537   170A      1.740887  
     171A      1.752636   172A      1.763014   173A      1.775243  
     174A      1.784505   175A      1.801727   176A      1.820904  
     177A      1.824414   178A      1.853229   179A      1.863922  
     180A      1.873125   181A      1.886890   182A      1.892032  
     183A      1.912825   184A      1.923279   185A      1.941760  
     186A      1.957663   187A      1.964175   188A      2.003434  
     189A      2.034133   190A      2.050288   191A      2.083278  
     192A      2.121507   193A      2.165945   194A      2.177637  
     195A      2.213501   196A      2.255698   197A      2.308919  
     198A      2.320882   199A      2.399204   200A      2.428609  
     201A      2.444664   202A      2.461783   203A      2.466994  
     204A      2.480543   205A      2.484896   206A      2.508000  
     207A      2.516028   208A      2.527834   209A      2.541178  
     210A      2.558343   211A      2.581841   212A      2.587322  
     213A      2.598050   214A      2.610775   215A      2.618405  
     216A      2.635706   217A      2.653758   218A      2.668752  
     219A      2.676733   220A      2.691729   221A      2.706314  
     222A      2.720938   223A      2.725533   224A      2.738722  
     225A      2.761377   226A      2.788289   227A      2.808429  
     228A      2.832343   229A      2.858128   230A      2.882926  
     231A      2.893186   232A      2.910225   233A      2.952504  
     234A      2.968730   235A      2.979880   236A      3.030493  
     237A      3.057105   238A      3.196276   239A      3.206759  
     240A      3.218573   241A      3.225576   242A      3.237552  
     243A      3.253767   244A      3.270030   245A      3.286393  
     246A      3.363097   247A      3.383401   248A      3.443607  
     249A      3.466634   250A      3.473311   251A      3.476322  
     252A      3.542188   253A      3.587822   254A      3.615616  
     255A      3.660078   256A      3.688728   257A      3.740861  
     258A      3.766661   259A      3.812453   260A      3.898470  
     261A      4.038040   262A      4.055877   263A      4.080297  
     264A      4.120078   265A      4.144429   266A      4.171569  
     267A      4.210277   268A      4.214595   269A      4.243913  
     270A      4.276900   271A      4.306668   272A      4.326434  
     273A      4.366443   274A      4.391011   275A      4.408884  
     276A      4.421578   277A      4.441414   278A      4.446274  
     279A      4.451680   280A      4.465891   281A      4.487268  
     282A      4.503242   283A      4.518909   284A      4.525224  
     285A      4.529045   286A      4.548990   287A      4.564174  
     288A      4.607566   289A      4.628037   290A      4.642569  
     291A      4.670699   292A      4.705016   293A      4.716068  
     294A      4.739816   295A      4.760098   296A      4.775752  
     297A      4.796727   298A      4.799726   299A      4.816291  
     300A      4.822237   301A      4.852314   302A      4.878636  
     303A      4.884413   304A      4.893231   305A      4.901413  
     306A      4.924615   307A      4.950786   308A      4.977764  
     309A      4.989159   310A      5.019140   311A      5.033870  
     312A      5.089156   313A      5.126336   314A      5.176710  
     315A      5.234658   316A      5.274014   317A      5.286869  
     318A      5.310677   319A      5.343948   320A      5.384247  
     321A      5.455732   322A      5.523358   323A      5.572037  
     324A      5.603340   325A      5.638199   326A      5.646022  
     327A      5.651297   328A      5.677798   329A      5.709451  
     330A      5.734754   331A      5.745785   332A      5.813934  
     333A      5.872371   334A      5.952247   335A      5.962623  
     336A      6.151111   337A      6.164408   338A      6.187052  
     339A      6.323063   340A      6.363469   341A      6.425175  
     342A      6.500905   343A      6.558576   344A      6.691968  
     345A      6.716093   346A      6.752572   347A      6.787159  
     348A      7.067448   349A      7.084285   350A      7.114511  
     351A      7.187283   352A      7.197697   353A      7.212155  
     354A      7.301784   355A      7.376393   356A      7.477788  
     357A      7.493277   358A      7.654303   359A      7.715441  
     360A      7.747518   361A      7.787387   362A      7.863503  
     363A      7.894156   364A      7.911389   365A      7.996723  
     366A      8.032118   367A      8.062969   368A      8.092388  
     369A      8.104841   370A      8.206298   371A      8.215905  
     372A      8.222945   373A      8.292133   374A      8.355165  
     375A      8.360822   376A      8.760437   377A      8.820401  
     378A      8.841012   379A      8.956637   380A      8.967674  
     381A      8.977057   382A      9.013363   383A      9.680715  
     384A      9.699869   385A      9.753152   386A      9.888602  
     387A      9.902774   388A      9.911690   389A     10.031911  
     390A     10.076876   391A     10.094769   392A     10.297875  
     393A     10.305034   394A     10.355382   395A     11.158852  
     396A     11.290214   397A     11.436794   398A     11.743527  
     399A     11.753808   400A     11.794197   401A     12.110827  
     402A     12.369313   403A     12.460543   404A     13.594592  
     405A     13.729074   406A     13.746437   407A     13.784839  
     408A     13.931595   409A     13.998324   410A     15.513480  
     411A     16.392101   412A     28.025562   413A     28.279886  
     414A     28.343217   415A     65.983921   416A     66.274408  
     417A     66.918742   418A    160.936083  

    Final Occupation by Irrep:
              A 
    DOCC [     5 ]
    NA   [     5 ]
    NB   [     5 ]

  @DF-RHF Final Energy:   -76.05558607202262

   => Energetics <=

    Nuclear Repulsion Energy =              9.1229715132842593
    One-Electron Energy =                -122.8888602416407707
    Two-Electron Energy =                  37.7103026563338872
    Total Energy =                        -76.0555860720226349

Computation Completed


Properties will be evaluated at   0.000000,   0.000000,   0.000000 [a0]

Properties computed using the SCF density matrix


 Multipole Moments:

 ------------------------------------------------------------------------------------
     Multipole            Electronic (a.u.)      Nuclear  (a.u.)        Total (a.u.)
 ------------------------------------------------------------------------------------

 L = 1.  Multiply by 2.5417464519 to convert [e a0] to [Debye]
 Dipole X            :        -10.9530370           11.4910277            0.5379907
 Dipole Y            :         62.0020463          -61.5411234            0.4609229
 Dipole Z            :          5.9856753           -6.4323518           -0.4466766
 Magnitude           :                                                    0.8374986

 ------------------------------------------------------------------------------------

*** tstop() called on ddmfs1 at Mon Jan 22 19:48:15 2024
Module time:
	user time   =      60.63 seconds =       1.01 minutes
	system time =       3.65 seconds =       0.06 minutes
	total time  =          4 seconds =       0.07 minutes
Total time:
	user time   =      60.63 seconds =       1.01 minutes
	system time =       3.65 seconds =       0.06 minutes
	total time  =          4 seconds =       0.07 minutes

*** tstart() called on ddmfs1
*** at Mon Jan 22 19:48:15 2024


  //>>>>>>>>>>>>>>>>>>>>>>>>>>>>>>>>>>>//
  //               DFMP2               //
  //<<<<<<<<<<<<<<<<<<<<<<<<<<<<<<<<<<<//

   => Loading Basis Set <=

    Name: (AUG-CC-PVTZ AUX)
    Role: RIFIT
    Keyword: DF_BASIS_MP2
    atoms 1                     entry CL         line   742 file /ddmfs1b/softs/psi4conda/share/psi4/basis/aug-cc-pvtz-ri.gbs 
    atoms 2, 5, 8, 11           entry O          line   264 file /ddmfs1b/softs/psi4conda/share/psi4/basis/aug-cc-pvtz-ri.gbs 
    atoms 3-4, 6-7, 9-10, 12-13 entry H          line    30 file /ddmfs1b/softs/psi4conda/share/psi4/basis/aug-cc-pvtz-ri.gbs 

	 --------------------------------------------------------
	                          DF-MP2                         
	      2nd-Order Density-Fitted Moller-Plesset Theory     
	              RMP2 Wavefunction,  20 Threads             
	                                                         
	        Rob Parrish, Justin Turney, Andy Simmonett,      
	           Ed Hohenstein, and C. David Sherrill          
	 --------------------------------------------------------

   => Auxiliary Basis Set <=

  Basis Set: (AUG-CC-PVTZ AUX)
    Blend: AUG-CC-PVTZ-RI
    Number of shells: 261
    Number of basis functions: 939
    Number of Cartesian functions: 1175
    Spherical Harmonics?: true
    Max angular momentum: 4

	 --------------------------------------------------------
	                 NBF =   418, NAUX =   939
	 --------------------------------------------------------
	   CLASS    FOCC     OCC    AOCC    AVIR     VIR    FVIR
	   PAIRS       0       5       5     413     413       0
	 --------------------------------------------------------

	-----------------------------------------------------------
	 ==================> DF-MP2 Energies <==================== 
	-----------------------------------------------------------
	 Reference Energy          =     -76.0555860720226207 [Eh]
	 Singles Energy            =      -0.0000000000000000 [Eh]
	 Same-Spin Energy          =      -0.0688245157576567 [Eh]
	 Opposite-Spin Energy      =      -0.2170009827169911 [Eh]
	 Correlation Energy        =      -0.2858254984746478 [Eh]
	 Total Energy              =     -76.3414115704972716 [Eh]
	-----------------------------------------------------------
	 ================> DF-SCS-MP2 Energies <================== 
	-----------------------------------------------------------
	 SCS Same-Spin Scale       =       0.3333333333333333 [-]
	 SCS Opposite-Spin Scale   =       1.2000000000000000 [-]
	 SCS Same-Spin Energy      =      -0.0229415052525522 [Eh]
	 SCS Opposite-Spin Energy  =      -0.2604011792603894 [Eh]
	 SCS Correlation Energy    =      -0.2833426845129416 [Eh]
	 SCS Total Energy          =     -76.3389287565355659 [Eh]
	-----------------------------------------------------------


*** tstop() called on ddmfs1 at Mon Jan 22 19:48:18 2024
Module time:
	user time   =      19.64 seconds =       0.33 minutes
	system time =       1.18 seconds =       0.02 minutes
	total time  =          3 seconds =       0.05 minutes
Total time:
	user time   =      80.29 seconds =       1.34 minutes
	system time =       4.83 seconds =       0.08 minutes
	total time  =          7 seconds =       0.12 minutes

    Psi4 stopped on: Monday, 22 January 2024 07:48PM
    Psi4 wall time for execution: 0:00:07.57

*** Psi4 exiting successfully. Buy a developer a beer!
