
    -----------------------------------------------------------------------
          Psi4: An Open-Source Ab Initio Electronic Structure Package
                               Psi4 1.8.2 release

                         Git: Rev {} zzzzzzz 


    D. G. A. Smith, L. A. Burns, A. C. Simmonett, R. M. Parrish,
    M. C. Schieber, R. Galvelis, P. Kraus, H. Kruse, R. Di Remigio,
    A. Alenaizan, A. M. James, S. Lehtola, J. P. Misiewicz, M. Scheurer,
    R. A. Shaw, J. B. Schriber, Y. Xie, Z. L. Glick, D. A. Sirianni,
    J. S. O'Brien, J. M. Waldrop, A. Kumar, E. G. Hohenstein,
    B. P. Pritchard, B. R. Brooks, H. F. Schaefer III, A. Yu. Sokolov,
    K. Patkowski, A. E. DePrince III, U. Bozkaya, R. A. King,
    F. A. Evangelista, J. M. Turney, T. D. Crawford, C. D. Sherrill,
    J. Chem. Phys. 152(18) 184108 (2020). https://doi.org/10.1063/5.0006002

                            Additional Code Authors
    E. T. Seidl, C. L. Janssen, E. F. Valeev, M. L. Leininger,
    J. F. Gonthier, R. M. Richard, H. R. McAlexander, M. Saitow, X. Wang,
    P. Verma, M. H. Lechner, A. Jiang, S. Behnle, A. G. Heide,
    M. F. Herbst, and D. L. Poole

             Previous Authors, Complete List of Code Contributors,
                       and Citations for Specific Modules
    https://github.com/psi4/psi4/blob/master/codemeta.json
    https://github.com/psi4/psi4/graphs/contributors
    http://psicode.org/psi4manual/master/introduction.html#citing-psifour

    -----------------------------------------------------------------------


    Psi4 started on: Monday, 22 January 2024 08:03PM

    Process ID: 101012
    Host:       ddmfs1
    PSIDATADIR: /ddmfs1b/softs/psi4conda/share/psi4
    Memory:     500.0 MiB
    Threads:    20
    
  ==> Input File <==

--------------------------------------------------------------------------
MEMORY 60 GB

molecule dimer {
0 1
Gh(Cl)     0.000000     0.000000     0.000000
O         -0.212648    -0.458124    -3.393214
H         -0.448749    -1.349680    -3.579356
H          0.402197    -0.522361    -2.656061
Gh(O)      2.027595    -1.452571     2.158350
Gh(H)      2.804391    -1.701626     1.514130
Gh(H)      1.635052    -0.772877     1.583500
Gh(O)      0.444892    -2.976621    -0.997622
Gh(H)      0.671190    -2.173167    -0.459218
Gh(H)      1.108987    -3.642094    -0.739784
Gh(O)     -1.886927    -2.865595     0.501677
Gh(H)     -2.776314    -2.613300     0.315070
Gh(H)     -1.242520    -2.183692     0.152953
Gh(O)     -1.815396     0.378644     2.887949
Gh(H)     -1.393814     0.212010     2.034179
Gh(H)     -2.619610     0.917524     2.698395

units ang
no_reorient
no_com
symmetry c1
}

set {
basis        aug-cc-pVTZ
scf_type     df
}

energy("mp2")
--------------------------------------------------------------------------

  Memory set to  55.879 GiB by Python driver.

Scratch directory: /ddmfs1a/scratch/
   => Libint2 <=

    Primary   basis highest AM E, G, H:  5, 4, 3
    Auxiliary basis highest AM E, G, H:  6, 5, 4
    Onebody   basis highest AM E, G, H:  6, 5, 4
    Solid Harmonics ordering:            gaussian

*** tstart() called on ddmfs1
*** at Mon Jan 22 20:03:07 2024

   => Loading Basis Set <=

    Name: AUG-CC-PVTZ
    Role: ORBITAL
    Keyword: BASIS
    atoms 1                            entry CL         line   988 file /ddmfs1b/softs/psi4conda/share/psi4/basis/aug-cc-pvtz.gbs 
    atoms 2, 5, 8, 11, 14              entry O          line   331 file /ddmfs1b/softs/psi4conda/share/psi4/basis/aug-cc-pvtz.gbs 
    atoms 3-4, 6-7, 9-10, 12-13, 15-16 entry H          line    40 file /ddmfs1b/softs/psi4conda/share/psi4/basis/aug-cc-pvtz.gbs 


         ---------------------------------------------------------
                                   SCF
               by Justin Turney, Rob Parrish, Andy Simmonett
                          and Daniel G. A. Smith
                              RHF Reference
                       20 Threads,  57220 MiB Core
         ---------------------------------------------------------

  ==> Geometry <==

    Molecular point group: c1
    Full point group: C1

    Geometry (in Angstrom), charge = 0, multiplicity = 1:

       Center              X                  Y                   Z               Mass       
    ------------   -----------------  -----------------  -----------------  -----------------
      Gh(CL)          0.000000000000     0.000000000000     0.000000000000    34.968852682000
         O           -0.212648000000    -0.458124000000    -3.393214000000    15.994914619570
         H           -0.448749000000    -1.349680000000    -3.579356000000     1.007825032230
         H            0.402197000000    -0.522361000000    -2.656061000000     1.007825032230
      Gh(O)           2.027595000000    -1.452571000000     2.158350000000    15.994914619570
      Gh(H)           2.804391000000    -1.701626000000     1.514130000000     1.007825032230
      Gh(H)           1.635052000000    -0.772877000000     1.583500000000     1.007825032230
      Gh(O)           0.444892000000    -2.976621000000    -0.997622000000    15.994914619570
      Gh(H)           0.671190000000    -2.173167000000    -0.459218000000     1.007825032230
      Gh(H)           1.108987000000    -3.642094000000    -0.739784000000     1.007825032230
      Gh(O)          -1.886927000000    -2.865595000000     0.501677000000    15.994914619570
      Gh(H)          -2.776314000000    -2.613300000000     0.315070000000     1.007825032230
      Gh(H)          -1.242520000000    -2.183692000000     0.152953000000     1.007825032230
      Gh(O)          -1.815396000000     0.378644000000     2.887949000000    15.994914619570
      Gh(H)          -1.393814000000     0.212010000000     2.034179000000     1.007825032230
      Gh(H)          -2.619610000000     0.917524000000     2.698395000000     1.007825032230

  Running in c1 symmetry.

  Rotational constants: A =      0.03064  B =      0.02538  C =      0.02102 [cm^-1]
  Rotational constants: A =    918.50116  B =    760.81254  C =    630.10386 [MHz]
  Nuclear repulsion =    9.251699562703006

  Charge       = 0
  Multiplicity = 1
  Electrons    = 10
  Nalpha       = 5
  Nbeta        = 5

  ==> Algorithm <==

  SCF Algorithm Type is DF.
  DIIS enabled.
  MOM disabled.
  Fractional occupation disabled.
  Guess Type is SAD.
  Energy threshold   = 1.00e-08
  Density threshold  = 1.00e-08
  Integral threshold = 1.00e-12

  ==> Primary Basis <==

  Basis Set: AUG-CC-PVTZ
    Blend: AUG-CC-PVTZ
    Number of shells: 176
    Number of basis functions: 510
    Number of Cartesian functions: 584
    Spherical Harmonics?: true
    Max angular momentum: 3

   => Loading Basis Set <=

    Name: (AUG-CC-PVTZ AUX)
    Role: JKFIT
    Keyword: DF_BASIS_SCF
    atoms 1                            entry CL         line   816 file /ddmfs1b/softs/psi4conda/share/psi4/basis/aug-cc-pvtz-jkfit.gbs 
    atoms 2, 5, 8, 11, 14              entry O          line   286 file /ddmfs1b/softs/psi4conda/share/psi4/basis/aug-cc-pvtz-jkfit.gbs 
    atoms 3-4, 6-7, 9-10, 12-13, 15-16 entry H          line    70 file /ddmfs1b/softs/psi4conda/share/psi4/basis/aug-cc-pvtz-jkfit.gbs 

  ==> Integral Setup <==

  DFHelper Memory: AOs need 2.011 GiB; user supplied 41.910 GiB. 
  Using in-core AOs.

  ==> MemDFJK: Density-Fitted J/K Matrices <==

    J tasked:                   Yes
    K tasked:                   Yes
    wK tasked:                   No
    OpenMP threads:              20
    Memory [MiB]:             42915
    Algorithm:                 Core
    Schwarz Cutoff:           1E-12
    Mask sparsity (%):      12.4544
    Fitting Condition:        1E-10

   => Auxiliary Basis Set <=

  Basis Set: (AUG-CC-PVTZ AUX)
    Blend: AUG-CC-PVTZ-JKFIT
    Number of shells: 332
    Number of basis functions: 1126
    Number of Cartesian functions: 1385
    Spherical Harmonics?: true
    Max angular momentum: 4

  Minimum eigenvalue in the overlap matrix is 1.4260463052E-04.
  Reciprocal condition number of the overlap matrix is 1.1156702974E-05.
    Using symmetric orthogonalization.

  ==> Pre-Iterations <==

  SCF Guess: Superposition of Atomic Densities via on-the-fly atomic UHF (no occupation information).

   -------------------------
    Irrep   Nso     Nmo    
   -------------------------
     A        510     510 
   -------------------------
    Total     510     510
   -------------------------

  ==> Iterations <==

                           Total Energy        Delta E     RMS |[F,P]|

   @DF-RHF iter SAD:   -75.48461148866156   -7.54846e+01   0.00000e+00 
   @DF-RHF iter   1:   -75.97662115318542   -4.92010e-01   9.20569e-04 DIIS/ADIIS
   @DF-RHF iter   2:   -76.02943851944843   -5.28174e-02   6.21892e-04 DIIS/ADIIS
   @DF-RHF iter   3:   -76.06031902915130   -3.08805e-02   4.22252e-05 DIIS
   @DF-RHF iter   4:   -76.06069883416411   -3.79805e-04   9.92075e-06 DIIS
   @DF-RHF iter   5:   -76.06072157442745   -2.27403e-05   2.23795e-06 DIIS
   @DF-RHF iter   6:   -76.06072341498739   -1.84056e-06   4.90401e-07 DIIS
   @DF-RHF iter   7:   -76.06072351284175   -9.78544e-08   8.95912e-08 DIIS
   @DF-RHF iter   8:   -76.06072351573295   -2.89120e-09   1.48635e-08 DIIS
   @DF-RHF iter   9:   -76.06072351579509   -6.21441e-11   3.61377e-09 DIIS
  Energy and wave function converged.


  ==> Post-Iterations <==

    Orbital Energies [Eh]
    ---------------------

    Doubly Occupied:                                                      

       1A    -20.566099     2A     -1.356750     3A     -0.720783  
       4A     -0.586177     5A     -0.510875  

    Virtual:                                                              

       6A      0.014509     7A      0.031553     8A      0.033590  
       9A      0.044401    10A      0.052350    11A      0.058028  
      12A      0.058208    13A      0.071683    14A      0.079076  
      15A      0.087083    16A      0.089948    17A      0.113257  
      18A      0.119967    19A      0.123528    20A      0.133097  
      21A      0.140199    22A      0.141321    23A      0.150258  
      24A      0.150644    25A      0.157547    26A      0.161345  
      27A      0.164594    28A      0.176958    29A      0.184979  
      30A      0.188091    31A      0.195395    32A      0.202311  
      33A      0.203967    34A      0.209039    35A      0.217691  
      36A      0.221433    37A      0.236169    38A      0.238025  
      39A      0.252128    40A      0.264394    41A      0.269773  
      42A      0.281463    43A      0.287713    44A      0.301243  
      45A      0.304649    46A      0.308718    47A      0.314196  
      48A      0.322180    49A      0.324910    50A      0.331823  
      51A      0.336779    52A      0.347043    53A      0.347884  
      54A      0.358872    55A      0.365027    56A      0.369200  
      57A      0.377266    58A      0.381080    59A      0.391241  
      60A      0.392524    61A      0.403807    62A      0.407880  
      63A      0.408725    64A      0.421886    65A      0.422410  
      66A      0.433950    67A      0.439484    68A      0.452542  
      69A      0.456391    70A      0.466479    71A      0.473264  
      72A      0.483863    73A      0.487924    74A      0.500480  
      75A      0.504069    76A      0.518906    77A      0.528379  
      78A      0.543399    79A      0.564725    80A      0.583909  
      81A      0.592914    82A      0.608109    83A      0.622772  
      84A      0.632167    85A      0.637294    86A      0.651461  
      87A      0.662371    88A      0.677676    89A      0.679393  
      90A      0.690741    91A      0.699687    92A      0.708637  
      93A      0.736263    94A      0.738185    95A      0.738537  
      96A      0.751522    97A      0.757966    98A      0.760476  
      99A      0.772226   100A      0.780587   101A      0.784579  
     102A      0.791374   103A      0.795547   104A      0.805322  
     105A      0.813420   106A      0.815241   107A      0.821377  
     108A      0.830194   109A      0.835297   110A      0.836906  
     111A      0.839709   112A      0.855908   113A      0.858908  
     114A      0.865350   115A      0.874492   116A      0.878794  
     117A      0.884881   118A      0.890658   119A      0.906186  
     120A      0.911310   121A      0.916913   122A      0.923831  
     123A      0.930576   124A      0.932740   125A      0.936958  
     126A      0.948250   127A      0.952220   128A      0.960557  
     129A      0.969246   130A      0.975966   131A      0.984681  
     132A      0.991940   133A      1.001490   134A      1.003619  
     135A      1.012479   136A      1.017252   137A      1.022521  
     138A      1.028602   139A      1.033271   140A      1.044178  
     141A      1.049797   142A      1.059274   143A      1.068858  
     144A      1.078048   145A      1.079946   146A      1.087633  
     147A      1.093884   148A      1.099776   149A      1.113242  
     150A      1.125864   151A      1.128700   152A      1.131236  
     153A      1.153868   154A      1.168016   155A      1.171176  
     156A      1.175377   157A      1.185486   158A      1.193162  
     159A      1.201607   160A      1.219513   161A      1.221357  
     162A      1.228203   163A      1.236773   164A      1.242828  
     165A      1.258263   166A      1.281755   167A      1.288172  
     168A      1.297091   169A      1.307144   170A      1.316442  
     171A      1.328319   172A      1.332248   173A      1.350952  
     174A      1.364163   175A      1.377195   176A      1.380082  
     177A      1.397891   178A      1.410492   179A      1.426264  
     180A      1.427838   181A      1.452561   182A      1.456384  
     183A      1.474525   184A      1.498310   185A      1.508250  
     186A      1.523879   187A      1.527091   188A      1.539142  
     189A      1.558839   190A      1.567736   191A      1.576010  
     192A      1.589847   193A      1.614477   194A      1.627241  
     195A      1.633601   196A      1.648408   197A      1.662084  
     198A      1.689887   199A      1.697088   200A      1.711960  
     201A      1.716399   202A      1.724894   203A      1.731410  
     204A      1.740924   205A      1.757507   206A      1.766193  
     207A      1.773750   208A      1.789839   209A      1.804310  
     210A      1.806898   211A      1.816413   212A      1.829595  
     213A      1.832302   214A      1.849228   215A      1.867429  
     216A      1.874502   217A      1.891463   218A      1.892169  
     219A      1.902496   220A      1.929696   221A      1.931022  
     222A      1.945665   223A      1.953118   224A      1.968806  
     225A      1.982306   226A      2.012386   227A      2.025849  
     228A      2.037618   229A      2.042965   230A      2.052986  
     231A      2.061193   232A      2.103649   233A      2.126305  
     234A      2.156209   235A      2.217791   236A      2.228788  
     237A      2.255575   238A      2.276800   239A      2.318168  
     240A      2.379551   241A      2.433352   242A      2.451154  
     243A      2.454401   244A      2.460756   245A      2.473657  
     246A      2.477264   247A      2.492790   248A      2.501822  
     249A      2.510621   250A      2.524890   251A      2.547733  
     252A      2.561076   253A      2.568054   254A      2.571045  
     255A      2.574187   256A      2.590685   257A      2.599340  
     258A      2.609911   259A      2.618413   260A      2.636053  
     261A      2.642876   262A      2.654879   263A      2.665623  
     264A      2.671871   265A      2.689414   266A      2.701922  
     267A      2.707243   268A      2.730670   269A      2.735974  
     270A      2.751694   271A      2.769052   272A      2.784135  
     273A      2.796533   274A      2.813052   275A      2.816364  
     276A      2.829709   277A      2.860101   278A      2.869188  
     279A      2.877364   280A      2.925269   281A      2.935166  
     282A      2.958411   283A      2.979891   284A      2.993723  
     285A      2.999007   286A      3.043952   287A      3.074991  
     288A      3.097651   289A      3.155878   290A      3.175835  
     291A      3.188757   292A      3.243846   293A      3.265945  
     294A      3.277661   295A      3.292187   296A      3.298570  
     297A      3.338396   298A      3.363795   299A      3.384943  
     300A      3.395580   301A      3.416968   302A      3.422837  
     303A      3.433544   304A      3.457781   305A      3.483476  
     306A      3.501823   307A      3.555544   308A      3.590351  
     309A      3.624623   310A      3.662393   311A      3.700092  
     312A      3.739292   313A      3.792141   314A      3.816858  
     315A      3.823992   316A      3.847791   317A      3.859707  
     318A      4.045791   319A      4.110056   320A      4.165095  
     321A      4.170474   322A      4.220824   323A      4.239171  
     324A      4.265052   325A      4.280233   326A      4.290740  
     327A      4.318864   328A      4.332860   329A      4.359194  
     330A      4.359764   331A      4.366601   332A      4.384831  
     333A      4.403436   334A      4.409722   335A      4.425562  
     336A      4.430493   337A      4.450272   338A      4.456657  
     339A      4.466870   340A      4.475557   341A      4.492282  
     342A      4.511837   343A      4.531074   344A      4.540790  
     345A      4.559393   346A      4.566808   347A      4.578510  
     348A      4.592897   349A      4.603808   350A      4.608298  
     351A      4.656513   352A      4.658707   353A      4.675093  
     354A      4.697119   355A      4.726960   356A      4.732620  
     357A      4.745717   358A      4.787722   359A      4.800478  
     360A      4.816478   361A      4.829325   362A      4.853217  
     363A      4.865894   364A      4.885109   365A      4.896885  
     366A      4.907261   367A      4.918757   368A      4.941816  
     369A      4.950920   370A      4.990045   371A      4.993251  
     372A      5.019078   373A      5.047316   374A      5.079378  
     375A      5.092565   376A      5.111295   377A      5.137391  
     378A      5.159492   379A      5.197492   380A      5.207462  
     381A      5.219544   382A      5.226240   383A      5.281911  
     384A      5.297826   385A      5.321729   386A      5.357905  
     387A      5.405508   388A      5.427641   389A      5.467636  
     390A      5.483393   391A      5.502214   392A      5.511910  
     393A      5.540057   394A      5.553144   395A      5.553614  
     396A      5.569809   397A      5.581695   398A      5.638057  
     399A      5.645120   400A      5.661332   401A      5.729730  
     402A      5.760486   403A      5.833768   404A      5.848850  
     405A      5.876594   406A      5.914947   407A      6.137453  
     408A      6.147181   409A      6.189085   410A      6.215036  
     411A      6.243200   412A      6.306105   413A      6.394278  
     414A      6.418486   415A      6.456215   416A      6.468401  
     417A      6.557744   418A      6.659445   419A      6.669765  
     420A      6.799774   421A      6.814615   422A      6.941969  
     423A      6.974717   424A      7.039448   425A      7.047048  
     426A      7.120144   427A      7.179548   428A      7.314828  
     429A      7.364149   430A      7.381302   431A      7.391115  
     432A      7.457543   433A      7.631579   434A      7.680781  
     435A      7.699432   436A      7.739542   437A      7.770657  
     438A      7.786497   439A      7.800910   440A      7.865221  
     441A      7.899560   442A      7.950494   443A      7.965057  
     444A      7.996790   445A      8.003307   446A      8.039668  
     447A      8.075617   448A      8.139165   449A      8.190131  
     450A      8.210277   451A      8.248515   452A      8.257752  
     453A      8.282036   454A      8.296210   455A      8.317184  
     456A      8.550586   457A      8.721435   458A      8.726664  
     459A      8.747273   460A      8.764095   461A      8.827014  
     462A      8.874864   463A      8.936617   464A      8.982311  
     465A      9.675840   466A      9.679569   467A      9.705214  
     468A      9.812669   469A      9.855003   470A      9.893704  
     471A      9.904961   472A      9.975950   473A     10.034057  
     474A     10.052959   475A     10.071895   476A     10.132402  
     477A     10.264480   478A     10.285949   479A     10.301677  
     480A     10.356774   481A     10.903193   482A     11.064032  
     483A     11.088794   484A     11.106427   485A     11.677712  
     486A     11.735705   487A     11.757248   488A     11.787625  
     489A     11.864588   490A     12.005970   491A     12.019757  
     492A     12.172843   493A     13.453478   494A     13.511732  
     495A     13.528248   496A     13.593766   497A     13.885531  
     498A     13.967848   499A     13.989190   500A     14.056861  
     501A     16.007698   502A     16.256772   503A     28.185709  
     504A     28.229123   505A     28.360476   506A     63.511544  
     507A     64.727950   508A     65.380352   509A     65.818097  
     510A    160.986723  

    Final Occupation by Irrep:
              A 
    DOCC [     5 ]
    NA   [     5 ]
    NB   [     5 ]

  @DF-RHF Final Energy:   -76.06072351579509

   => Energetics <=

    Nuclear Repulsion Energy =              9.2516995627030063
    One-Electron Energy =                -123.1434762985914091
    Two-Electron Energy =                  37.8310532200933167
    Total Energy =                        -76.0607235157950754

Computation Completed


Properties will be evaluated at   0.000000,   0.000000,   0.000000 [a0]

Properties computed using the SCF density matrix


 Multipole Moments:

 ------------------------------------------------------------------------------------
     Multipole            Electronic (a.u.)      Nuclear  (a.u.)        Total (a.u.)
 ------------------------------------------------------------------------------------

 L = 1.  Multiply by 2.5417464519 to convert [e a0] to [Debye]
 Dipole X            :          3.5539298           -3.3027424            0.2511875
 Dipole Y            :          9.8234061          -10.4634759           -0.6400698
 Dipole Z            :         63.4469466          -63.0811916            0.3657550
 Magnitude           :                                                    0.7788204

 ------------------------------------------------------------------------------------

*** tstop() called on ddmfs1 at Mon Jan 22 20:03:13 2024
Module time:
	user time   =      91.30 seconds =       1.52 minutes
	system time =       4.99 seconds =       0.08 minutes
	total time  =          6 seconds =       0.10 minutes
Total time:
	user time   =      91.30 seconds =       1.52 minutes
	system time =       4.99 seconds =       0.08 minutes
	total time  =          6 seconds =       0.10 minutes

*** tstart() called on ddmfs1
*** at Mon Jan 22 20:03:13 2024


  //>>>>>>>>>>>>>>>>>>>>>>>>>>>>>>>>>>>//
  //               DFMP2               //
  //<<<<<<<<<<<<<<<<<<<<<<<<<<<<<<<<<<<//

   => Loading Basis Set <=

    Name: (AUG-CC-PVTZ AUX)
    Role: RIFIT
    Keyword: DF_BASIS_MP2
    atoms 1                            entry CL         line   742 file /ddmfs1b/softs/psi4conda/share/psi4/basis/aug-cc-pvtz-ri.gbs 
    atoms 2, 5, 8, 11, 14              entry O          line   264 file /ddmfs1b/softs/psi4conda/share/psi4/basis/aug-cc-pvtz-ri.gbs 
    atoms 3-4, 6-7, 9-10, 12-13, 15-16 entry H          line    30 file /ddmfs1b/softs/psi4conda/share/psi4/basis/aug-cc-pvtz-ri.gbs 

	 --------------------------------------------------------
	                          DF-MP2                         
	      2nd-Order Density-Fitted Moller-Plesset Theory     
	              RMP2 Wavefunction,  20 Threads             
	                                                         
	        Rob Parrish, Justin Turney, Andy Simmonett,      
	           Ed Hohenstein, and C. David Sherrill          
	 --------------------------------------------------------

   => Auxiliary Basis Set <=

  Basis Set: (AUG-CC-PVTZ AUX)
    Blend: AUG-CC-PVTZ-RI
    Number of shells: 317
    Number of basis functions: 1137
    Number of Cartesian functions: 1421
    Spherical Harmonics?: true
    Max angular momentum: 4

	 --------------------------------------------------------
	                 NBF =   510, NAUX =  1137
	 --------------------------------------------------------
	   CLASS    FOCC     OCC    AOCC    AVIR     VIR    FVIR
	   PAIRS       0       5       5     505     505       0
	 --------------------------------------------------------

	-----------------------------------------------------------
	 ==================> DF-MP2 Energies <==================== 
	-----------------------------------------------------------
	 Reference Energy          =     -76.0607235157950896 [Eh]
	 Singles Energy            =      -0.0000000000000000 [Eh]
	 Same-Spin Energy          =      -0.0682718842381035 [Eh]
	 Opposite-Spin Energy      =      -0.2151795886628300 [Eh]
	 Correlation Energy        =      -0.2834514729009335 [Eh]
	 Total Energy              =     -76.3441749886960253 [Eh]
	-----------------------------------------------------------
	 ================> DF-SCS-MP2 Energies <================== 
	-----------------------------------------------------------
	 SCS Same-Spin Scale       =       0.3333333333333333 [-]
	 SCS Opposite-Spin Scale   =       1.2000000000000000 [-]
	 SCS Same-Spin Energy      =      -0.0227572947460345 [Eh]
	 SCS Opposite-Spin Energy  =      -0.2582155063953960 [Eh]
	 SCS Correlation Energy    =      -0.2809728011414305 [Eh]
	 SCS Total Energy          =     -76.3416963169365204 [Eh]
	-----------------------------------------------------------


*** tstop() called on ddmfs1 at Mon Jan 22 20:03:18 2024
Module time:
	user time   =      26.79 seconds =       0.45 minutes
	system time =       1.50 seconds =       0.03 minutes
	total time  =          5 seconds =       0.08 minutes
Total time:
	user time   =     118.11 seconds =       1.97 minutes
	system time =       6.49 seconds =       0.11 minutes
	total time  =         11 seconds =       0.18 minutes

    Psi4 stopped on: Monday, 22 January 2024 08:03PM
    Psi4 wall time for execution: 0:00:11.00

*** Psi4 exiting successfully. Buy a developer a beer!
