
    -----------------------------------------------------------------------
          Psi4: An Open-Source Ab Initio Electronic Structure Package
                               Psi4 1.9 release

                         Git: Rev {} zzzzzzz 


    D. G. A. Smith, L. A. Burns, A. C. Simmonett, R. M. Parrish,
    M. C. Schieber, R. Galvelis, P. Kraus, H. Kruse, R. Di Remigio,
    A. Alenaizan, A. M. James, S. Lehtola, J. P. Misiewicz, M. Scheurer,
    R. A. Shaw, J. B. Schriber, Y. Xie, Z. L. Glick, D. A. Sirianni,
    J. S. O'Brien, J. M. Waldrop, A. Kumar, E. G. Hohenstein,
    B. P. Pritchard, B. R. Brooks, H. F. Schaefer III, A. Yu. Sokolov,
    K. Patkowski, A. E. DePrince III, U. Bozkaya, R. A. King,
    F. A. Evangelista, J. M. Turney, T. D. Crawford, C. D. Sherrill,
    J. Chem. Phys. 152(18) 184108 (2020). https://doi.org/10.1063/5.0006002

                            Additional Code Authors
    E. T. Seidl, C. L. Janssen, E. F. Valeev, M. L. Leininger,
    J. F. Gonthier, R. M. Richard, H. R. McAlexander, M. Saitow, X. Wang,
    P. Verma, M. H. Lechner, A. Jiang, S. Behnle, A. G. Heide,
    M. F. Herbst, and D. L. Poole

             Previous Authors, Complete List of Code Contributors,
                       and Citations for Specific Modules
    https://github.com/psi4/psi4/blob/master/codemeta.json
    https://github.com/psi4/psi4/graphs/contributors
    http://psicode.org/psi4manual/master/introduction.html#citing-psifour

    -----------------------------------------------------------------------


    Psi4 started on: Saturday, 06 January 2024 11:23PM

    Process ID: 560113
    Host:       moses-razer
    PSIDATADIR: /home/kchung25/anaconda3/envs/psi4_19/share/psi4
    Memory:     500.0 MiB
    Threads:    6
    
  ==> Input File <==

--------------------------------------------------------------------------
MEMORY 60 GB

molecule dimer {
-1 1
Cl     0.000000     0.000000     0.000000
--
0 1
O      1.204895    -0.292806     3.103745
H      0.858812    -0.438415     2.264549
H      0.985701    -1.004115     3.659773
O      0.789525    -2.891032     1.505917
H     -0.080665    -2.757418     1.853570
H      0.819466    -2.343279     0.748618
O     -0.872242     2.463895     1.602122
H     -1.313491     2.263765     2.460438
H     -0.729683     1.568483     1.276229
O      1.378925     2.839395    -1.431688
H      2.181119     3.120693    -1.891219
H      1.599881     2.296982    -0.701732
O     -0.356147    -2.668445    -1.634404
H      0.502565    -3.070606    -1.479224
H     -0.391807    -1.750591    -1.299217
O     -0.586778     0.539437    -3.392799
H     -0.357652     0.715562    -2.504387
H     -1.194776    -0.217509    -3.459535
O     -2.873076    -0.935610     0.706102
H     -2.054198    -0.673415     0.344225
H     -3.477967    -0.300884     1.099128

units ang
no_reorient
no_com
symmetry c1
}

set {
basis        aug-cc-pVTZ
scf_type     df
}

energy("mp2", bsse_type="cp")
--------------------------------------------------------------------------

  Memory set to  55.879 GiB by Python driver.

Scratch directory: /scratch/

  //>>>>>>>>>>>>>>>>>>>>>>>>>>>>>>>>>>>>>//
  // ManyBody Setup: N-Body Levels [1, 2]//
  //<<<<<<<<<<<<<<<<<<<<<<<<<<<<<<<<<<<<<//

        Number of 1-body computations:     2
        Number of 2-body computations:     1

    -----------------------------------------------------------------------
          Psi4: An Open-Source Ab Initio Electronic Structure Package
                               Psi4 1.9 release

                         Git: Rev {} zzzzzzz 


    D. G. A. Smith, L. A. Burns, A. C. Simmonett, R. M. Parrish,
    M. C. Schieber, R. Galvelis, P. Kraus, H. Kruse, R. Di Remigio,
    A. Alenaizan, A. M. James, S. Lehtola, J. P. Misiewicz, M. Scheurer,
    R. A. Shaw, J. B. Schriber, Y. Xie, Z. L. Glick, D. A. Sirianni,
    J. S. O'Brien, J. M. Waldrop, A. Kumar, E. G. Hohenstein,
    B. P. Pritchard, B. R. Brooks, H. F. Schaefer III, A. Yu. Sokolov,
    K. Patkowski, A. E. DePrince III, U. Bozkaya, R. A. King,
    F. A. Evangelista, J. M. Turney, T. D. Crawford, C. D. Sherrill,
    J. Chem. Phys. 152(18) 184108 (2020). https://doi.org/10.1063/5.0006002

                            Additional Code Authors
    E. T. Seidl, C. L. Janssen, E. F. Valeev, M. L. Leininger,
    J. F. Gonthier, R. M. Richard, H. R. McAlexander, M. Saitow, X. Wang,
    P. Verma, M. H. Lechner, A. Jiang, S. Behnle, A. G. Heide,
    M. F. Herbst, and D. L. Poole

             Previous Authors, Complete List of Code Contributors,
                       and Citations for Specific Modules
    https://github.com/psi4/psi4/blob/master/codemeta.json
    https://github.com/psi4/psi4/graphs/contributors
    http://psicode.org/psi4manual/master/introduction.html#citing-psifour

    -----------------------------------------------------------------------


    Psi4 started on: Saturday, 06 January 2024 11:23PM

    Process ID: 560113
    Host:       moses-razer
    PSIDATADIR: /home/kchung25/anaconda3/envs/psi4_19/share/psi4
    Memory:     55.9 GiB
    Threads:    6
    
  ==> Input QCSchema <==

--------------------------------------------------------------------------
{'driver': 'energy',
 'extras': {'psiapi': True, 'wfn_qcvars_only': True},
 'id': None,
 'keywords': {'SCF_TYPE': 'DF', 'function_kwargs': {}},
 'model': {'basis': 'aug-cc-pvtz', 'method': 'mp2'},
 'molecule': {'atom_labels': ['', '', '', '', '', '', '', '', '', '', '', '', '', '', '', '', '', '', '', '', '', ''],
              'atomic_numbers': [17, 8, 1, 1, 8, 1, 1, 8, 1, 1, 8, 1, 1, 8, 1, 1, 8, 1, 1, 8, 1, 1],
              'extras': {},
              'fix_com': True,
              'fix_orientation': True,
              'fix_symmetry': 'c1',
              'fragment_charges': [0.0, 0.0],
              'fragment_multiplicities': [1, 1],
              'fragments': [[0], [1, 2, 3, 4, 5, 6, 7, 8, 9, 10, 11, 12, 13, 14, 15, 16, 17, 18, 19, 20, 21]],
              'geometry': [0.0, 0.0, 0.0, 2.27692155993351, -0.5533231478908048, 5.865228013259107, 1.6229194732566883,
                           -0.8284842792925937, 4.2793774076794, 1.8627049315899067, -1.8975023484640874,
                           6.915968651345172, 1.4919860192020915, -5.463258699934596, 2.845770697671076,
                           -0.1524347579100557, -5.210764833407674, 3.5027396543648663, 1.5485663091244246,
                           -4.428155545536693, 1.4146829925879885, -1.6482984951215869, 4.656086751884915,
                           3.0275717995707465, -2.482138258253728, 4.27789586239704, 4.649553968669208,
                           -1.3789010284024443, 2.964003302436471, 2.4117232833669187, 2.6057905975469358,
                           5.365678911994329, -2.7054982171044673, 4.1217175570324525, 5.897255091633366,
                           -3.5738859532622285, 3.023336923323596, 4.340666895106373, -1.3260812934697728,
                           -0.6730202904034291, -5.0426302308473145, -3.088575938352776, 0.9497102102407134,
                           -5.80260437918756, -2.7953282382042306, -0.7404079240372553, -3.308137547691345,
                           -2.455164307538943, -1.1088497164438935, 1.0193881919385945, -6.411460908727194,
                           -0.6758643282222432, 1.3522162057848546, -4.7326055421569535, -2.2577994212700023,
                           -0.4110324398222068, -6.537573671435747, -5.429326777625875, -1.7680466602395988,
                           1.3343393966380235, -3.8818716274632195, -1.2725699187751833, 0.6504909755357209,
                           -6.572405103380186, -0.5685883555322532, 2.077050896822212],
              'mass_numbers': [35, 16, 1, 1, 16, 1, 1, 16, 1, 1, 16, 1, 1, 16, 1, 1, 16, 1, 1, 16, 1, 1],
              'masses': [34.968852682, 15.99491461957, 1.00782503223, 1.00782503223, 15.99491461957, 1.00782503223,
                         1.00782503223, 15.99491461957, 1.00782503223, 1.00782503223, 15.99491461957, 1.00782503223,
                         1.00782503223, 15.99491461957, 1.00782503223, 1.00782503223, 15.99491461957, 1.00782503223,
                         1.00782503223, 15.99491461957, 1.00782503223, 1.00782503223],
              'molecular_charge': 0.0,
              'molecular_multiplicity': 1,
              'name': 'dimer',
              'provenance': {'creator': 'QCElemental',
                             'routine': 'qcelemental.molparse.from_string',
                             'version': '0.27.1'},
              'real': [False, True, True, True, True, True, True, True, True, True, True, True, True, True, True, True,
                       True, True, True, True, True, True],
              'schema_name': 'qcschema_molecule',
              'schema_version': 2,
              'symbols': ['Cl', 'O', 'H', 'H', 'O', 'H', 'H', 'O', 'H', 'H', 'O', 'H', 'H', 'O', 'H', 'H', 'O', 'H',
                          'H', 'O', 'H', 'H'],
              'validated': True},
 'protocols': {'stdout': True},
 'provenance': {'creator': 'QCElemental', 'routine': 'qcelemental.models.results', 'version': '0.27.1'},
 'schema_name': 'qcschema_input',
 'schema_version': 1}
--------------------------------------------------------------------------

Scratch directory: /scratch/
   => Libint2 <=

    Primary   basis highest AM E, G, H:  5, 4, 3
    Auxiliary basis highest AM E, G, H:  6, 5, 4
    Onebody   basis highest AM E, G, H:  6, 5, 4
    Solid Harmonics ordering:            gaussian

*** tstart() called on moses-razer
*** at Sat Jan  6 23:23:23 2024

   => Loading Basis Set <=

    Name: AUG-CC-PVTZ
    Role: ORBITAL
    Keyword: BASIS
    atoms 1                                          entry CL         line   988 file /home/kchung25/anaconda3/envs/p415env/share/psi4/basis/aug-cc-pvtz.gbs 
    atoms 2, 5, 8, 11, 14, 17, 20                    entry O          line   331 file /home/kchung25/anaconda3/envs/p415env/share/psi4/basis/aug-cc-pvtz.gbs 
    atoms 3-4, 6-7, 9-10, 12-13, 15-16, 18-19, 21-22 entry H          line    40 file /home/kchung25/anaconda3/envs/p415env/share/psi4/basis/aug-cc-pvtz.gbs 


         ---------------------------------------------------------
                                   SCF
               by Justin Turney, Rob Parrish, Andy Simmonett
                          and Daniel G. A. Smith
                              RHF Reference
                        6 Threads,  57220 MiB Core
         ---------------------------------------------------------

  ==> Geometry <==

    Molecular point group: c1
    Full point group: C1

    Geometry (in Bohr), charge = 0, multiplicity = 1:

       Center              X                  Y                   Z               Mass       
    ------------   -----------------  -----------------  -----------------  -----------------
      Gh(CL)          0.000000000000     0.000000000000     0.000000000000    34.968852682000
         O            2.276921559934    -0.553323147891     5.865228013259    15.994914619570
         H            1.622919473257    -0.828484279293     4.279377407679     1.007825032230
         H            1.862704931590    -1.897502348464     6.915968651345     1.007825032230
         O            1.491986019202    -5.463258699935     2.845770697671    15.994914619570
         H           -0.152434757910    -5.210764833408     3.502739654365     1.007825032230
         H            1.548566309124    -4.428155545537     1.414682992588     1.007825032230
         O           -1.648298495122     4.656086751885     3.027571799571    15.994914619570
         H           -2.482138258254     4.277895862397     4.649553968669     1.007825032230
         H           -1.378901028402     2.964003302436     2.411723283367     1.007825032230
         O            2.605790597547     5.365678911994    -2.705498217104    15.994914619570
         H            4.121717557032     5.897255091633    -3.573885953262     1.007825032230
         H            3.023336923324     4.340666895106    -1.326081293470     1.007825032230
         O           -0.673020290403    -5.042630230847    -3.088575938353    15.994914619570
         H            0.949710210241    -5.802604379188    -2.795328238204     1.007825032230
         H           -0.740407924037    -3.308137547691    -2.455164307539     1.007825032230
         O           -1.108849716444     1.019388191939    -6.411460908727    15.994914619570
         H           -0.675864328222     1.352216205785    -4.732605542157     1.007825032230
         H           -2.257799421270    -0.411032439822    -6.537573671436     1.007825032230
         O           -5.429326777626    -1.768046660240     1.334339396638    15.994914619570
         H           -3.881871627463    -1.272569918775     0.650490975536     1.007825032230
         H           -6.572405103380    -0.568588355532     2.077050896822     1.007825032230

  Running in c1 symmetry.

  Rotational constants: A =      0.02297  B =      0.01987  C =      0.01515 [cm^-1]
  Rotational constants: A =    688.73871  B =    595.74876  C =    454.06530 [MHz]
  Nuclear repulsion =  309.753357164473243

  Charge       = 0
  Multiplicity = 1
  Electrons    = 70
  Nalpha       = 35
  Nbeta        = 35

  ==> Algorithm <==

  SCF Algorithm Type is DF.
  DIIS enabled.
  MOM disabled.
  Fractional occupation disabled.
  Guess Type is SAD.
  Energy threshold   = 1.00e-08
  Density threshold  = 1.00e-08
  Integral threshold = 1.00e-12

  ==> Primary Basis <==

  Basis Set: AUG-CC-PVTZ
    Blend: AUG-CC-PVTZ
    Number of shells: 240
    Number of basis functions: 694
    Number of Cartesian functions: 794
    Spherical Harmonics?: true
    Max angular momentum: 3

   => Loading Basis Set <=

    Name: (AUG-CC-PVTZ AUX)
    Role: JKFIT
    Keyword: DF_BASIS_SCF
    atoms 1                                          entry CL         line   816 file /home/kchung25/anaconda3/envs/p415env/share/psi4/basis/aug-cc-pvtz-jkfit.gbs 
    atoms 2, 5, 8, 11, 14, 17, 20                    entry O          line   286 file /home/kchung25/anaconda3/envs/p415env/share/psi4/basis/aug-cc-pvtz-jkfit.gbs 
    atoms 3-4, 6-7, 9-10, 12-13, 15-16, 18-19, 21-22 entry H          line    70 file /home/kchung25/anaconda3/envs/p415env/share/psi4/basis/aug-cc-pvtz-jkfit.gbs 

  ==> Integral Setup <==

  DFHelper Memory: AOs need 4.691 GiB; user supplied 41.910 GiB. 
  Using in-core AOs.

  ==> MemDFJK: Density-Fitted J/K Matrices <==

    J tasked:                   Yes
    K tasked:                   Yes
    wK tasked:                   No
    OpenMP threads:               6
    Memory [MiB]:             42915
    Algorithm:                 Core
    Schwarz Cutoff:           1E-12
    Mask sparsity (%):      16.3721
    Fitting Condition:        1E-10

   => Auxiliary Basis Set <=

  Basis Set: (AUG-CC-PVTZ AUX)
    Blend: AUG-CC-PVTZ-JKFIT
    Number of shells: 448
    Number of basis functions: 1518
    Number of Cartesian functions: 1867
    Spherical Harmonics?: true
    Max angular momentum: 4

  Minimum eigenvalue in the overlap matrix is 8.4640681300E-05.
  Reciprocal condition number of the overlap matrix is 5.7637541969E-06.
    Using symmetric orthogonalization.

  ==> Pre-Iterations <==

  SCF Guess: Superposition of Atomic Densities via on-the-fly atomic UHF (no occupation information).

   -------------------------
    Irrep   Nso     Nmo    
   -------------------------
     A        694     694 
   -------------------------
    Total     694     694
   -------------------------

  ==> Iterations <==

                           Total Energy        Delta E     RMS |[F,P]|

   @DF-RHF iter SAD:  -528.55159355316778   -5.28552e+02   0.00000e+00 
   @DF-RHF iter   1:  -531.81600813276350   -3.26441e+00   1.77962e-03 DIIS/ADIIS
   @DF-RHF iter   2:  -532.18324364544355   -3.67236e-01   1.19308e-03 DIIS/ADIIS
   @DF-RHF iter   3:  -532.39495366038545   -2.11710e-01   8.49879e-05 DIIS
   @DF-RHF iter   4:  -532.39786589729067   -2.91224e-03   2.28617e-05 DIIS
   @DF-RHF iter   5:  -532.39805236299310   -1.86466e-04   8.43639e-06 DIIS
   @DF-RHF iter   6:  -532.39807582822539   -2.34652e-05   2.82504e-06 DIIS
   @DF-RHF iter   7:  -532.39807915653432   -3.32831e-06   5.89821e-07 DIIS
   @DF-RHF iter   8:  -532.39807940881963   -2.52285e-07   1.37981e-07 DIIS
   @DF-RHF iter   9:  -532.39807941792640   -9.10677e-09   6.21695e-08 DIIS
   @DF-RHF iter  10:  -532.39807941910271   -1.17632e-09   1.22794e-08 DIIS
   @DF-RHF iter  11:  -532.39807941918627   -8.35598e-11   3.76701e-09 DIIS
  Energy and wave function converged.


  ==> Post-Iterations <==

    Orbital Energies [Eh]
    ---------------------

    Doubly Occupied:                                                      

       1A    -20.595291     2A    -20.592505     3A    -20.589735  
       4A    -20.587270     5A    -20.572237     6A    -20.570424  
       7A    -20.564124     8A     -1.393700     9A     -1.380991  
      10A     -1.380248    11A     -1.372392    12A     -1.363177  
      13A     -1.360191    14A     -1.351742    15A     -0.786962  
      16A     -0.762782    17A     -0.756174    18A     -0.753419  
      19A     -0.739309    20A     -0.732772    21A     -0.714856  
      22A     -0.619357    23A     -0.604924    24A     -0.599131  
      25A     -0.595861    26A     -0.585381    27A     -0.582137  
      28A     -0.572578    29A     -0.544656    30A     -0.538316  
      31A     -0.533519    32A     -0.526012    33A     -0.520343  
      34A     -0.516375    35A     -0.508557  

    Virtual:                                                              

      36A      0.003681    37A      0.024031    38A      0.034745  
      39A      0.036249    40A      0.042725    41A      0.047016  
      42A      0.051885    43A      0.058274    44A      0.068470  
      45A      0.076468    46A      0.082321    47A      0.085395  
      48A      0.090266    49A      0.098248    50A      0.111096  
      51A      0.118653    52A      0.124342    53A      0.125911  
      54A      0.137093    55A      0.148894    56A      0.151658  
      57A      0.156231    58A      0.160394    59A      0.162225  
      60A      0.172753    61A      0.177481    62A      0.180379  
      63A      0.181274    64A      0.187108    65A      0.190182  
      66A      0.190547    67A      0.197266    68A      0.203641  
      69A      0.207898    70A      0.212974    71A      0.214625  
      72A      0.219006    73A      0.224703    74A      0.232410  
      75A      0.238308    76A      0.241783    77A      0.245565  
      78A      0.250305    79A      0.257334    80A      0.262122  
      81A      0.264163    82A      0.270150    83A      0.272737  
      84A      0.277642    85A      0.280117    86A      0.288028  
      87A      0.290881    88A      0.297066    89A      0.303633  
      90A      0.313918    91A      0.320391    92A      0.325363  
      93A      0.330418    94A      0.338200    95A      0.342286  
      96A      0.345084    97A      0.349266    98A      0.354699  
      99A      0.358627   100A      0.372644   101A      0.374339  
     102A      0.381258   103A      0.386893   104A      0.388864  
     105A      0.394231   106A      0.404702   107A      0.409800  
     108A      0.415474   109A      0.421630   110A      0.431834  
     111A      0.435354   112A      0.436653   113A      0.437788  
     114A      0.444646   115A      0.449371   116A      0.449891  
     117A      0.453496   118A      0.457649   119A      0.468220  
     120A      0.470829   121A      0.473403   122A      0.473642  
     123A      0.484744   124A      0.493920   125A      0.496516  
     126A      0.504810   127A      0.506119   128A      0.512835  
     129A      0.531741   130A      0.542678   131A      0.558680  
     132A      0.565497   133A      0.571968   134A      0.583251  
     135A      0.591533   136A      0.598823   137A      0.602932  
     138A      0.608232   139A      0.615629   140A      0.625243  
     141A      0.630566   142A      0.647174   143A      0.648369  
     144A      0.653795   145A      0.670366   146A      0.674793  
     147A      0.676051   148A      0.684137   149A      0.695650  
     150A      0.699747   151A      0.703232   152A      0.709142  
     153A      0.716210   154A      0.718376   155A      0.728272  
     156A      0.732741   157A      0.733968   158A      0.745024  
     159A      0.747136   160A      0.751745   161A      0.757861  
     162A      0.759446   163A      0.767184   164A      0.767772  
     165A      0.776367   166A      0.781773   167A      0.783723  
     168A      0.787549   169A      0.794968   170A      0.800547  
     171A      0.811268   172A      0.815677   173A      0.825126  
     174A      0.829598   175A      0.835828   176A      0.842656  
     177A      0.845687   178A      0.857693   179A      0.863031  
     180A      0.868995   181A      0.877443   182A      0.883975  
     183A      0.892592   184A      0.894762   185A      0.900399  
     186A      0.902132   187A      0.908606   188A      0.915768  
     189A      0.919929   190A      0.929906   191A      0.933381  
     192A      0.943916   193A      0.947357   194A      0.951413  
     195A      0.952287   196A      0.955415   197A      0.961625  
     198A      0.966908   199A      0.975680   200A      0.977723  
     201A      0.985306   202A      0.993318   203A      0.995480  
     204A      1.001228   205A      1.003970   206A      1.007169  
     207A      1.015652   208A      1.020295   209A      1.024483  
     210A      1.030301   211A      1.033917   212A      1.042581  
     213A      1.044640   214A      1.049242   215A      1.055237  
     216A      1.060369   217A      1.062963   218A      1.068879  
     219A      1.070850   220A      1.079036   221A      1.087106  
     222A      1.089081   223A      1.096318   224A      1.102565  
     225A      1.108569   226A      1.114894   227A      1.118776  
     228A      1.126185   229A      1.128948   230A      1.141870  
     231A      1.151756   232A      1.157568   233A      1.160701  
     234A      1.170207   235A      1.172973   236A      1.181316  
     237A      1.186745   238A      1.193906   239A      1.199363  
     240A      1.206559   241A      1.215577   242A      1.223924  
     243A      1.230369   244A      1.236161   245A      1.241995  
     246A      1.246286   247A      1.249921   248A      1.255047  
     249A      1.264770   250A      1.274894   251A      1.278104  
     252A      1.285478   253A      1.295896   254A      1.300496  
     255A      1.311419   256A      1.315146   257A      1.318602  
     258A      1.325519   259A      1.333890   260A      1.341409  
     261A      1.346548   262A      1.358910   263A      1.373264  
     264A      1.376162   265A      1.382981   266A      1.393773  
     267A      1.395594   268A      1.404400   269A      1.413535  
     270A      1.419876   271A      1.426022   272A      1.443392  
     273A      1.447850   274A      1.460450   275A      1.484538  
     276A      1.489290   277A      1.493605   278A      1.499860  
     279A      1.509290   280A      1.518807   281A      1.529728  
     282A      1.543211   283A      1.550272   284A      1.559077  
     285A      1.566645   286A      1.585284   287A      1.601598  
     288A      1.604522   289A      1.614999   290A      1.623680  
     291A      1.628280   292A      1.635057   293A      1.647876  
     294A      1.657046   295A      1.658392   296A      1.667894  
     297A      1.676436   298A      1.682612   299A      1.687546  
     300A      1.708666   301A      1.709644   302A      1.721243  
     303A      1.724568   304A      1.727524   305A      1.749484  
     306A      1.763069   307A      1.770205   308A      1.777824  
     309A      1.791270   310A      1.800263   311A      1.805953  
     312A      1.825398   313A      1.827074   314A      1.850453  
     315A      1.851316   316A      1.859858   317A      1.868452  
     318A      1.879139   319A      1.893084   320A      1.900807  
     321A      1.913564   322A      1.924967   323A      1.926650  
     324A      1.941229   325A      1.953020   326A      1.967986  
     327A      1.985452   328A      1.997502   329A      2.006203  
     330A      2.007314   331A      2.016783   332A      2.040679  
     333A      2.064712   334A      2.078550   335A      2.092283  
     336A      2.098834   337A      2.108937   338A      2.117070  
     339A      2.141848   340A      2.163362   341A      2.166908  
     342A      2.201721   343A      2.222064   344A      2.256302  
     345A      2.269856   346A      2.298061   347A      2.321774  
     348A      2.328605   349A      2.341308   350A      2.348392  
     351A      2.357349   352A      2.373195   353A      2.383373  
     354A      2.388315   355A      2.394907   356A      2.407343  
     357A      2.409360   358A      2.422185   359A      2.427322  
     360A      2.438112   361A      2.440982   362A      2.452647  
     363A      2.458113   364A      2.473725   365A      2.481908  
     366A      2.482292   367A      2.491894   368A      2.496304  
     369A      2.498606   370A      2.505243   371A      2.512130  
     372A      2.516854   373A      2.520051   374A      2.531173  
     375A      2.536295   376A      2.550910   377A      2.558958  
     378A      2.569705   379A      2.576080   380A      2.586022  
     381A      2.587597   382A      2.599578   383A      2.611159  
     384A      2.619390   385A      2.627297   386A      2.634993  
     387A      2.639522   388A      2.653245   389A      2.654525  
     390A      2.675184   391A      2.685139   392A      2.693156  
     393A      2.706936   394A      2.717147   395A      2.734820  
     396A      2.738566   397A      2.752844   398A      2.763436  
     399A      2.770596   400A      2.776937   401A      2.787548  
     402A      2.792429   403A      2.802978   404A      2.812486  
     405A      2.814380   406A      2.831365   407A      2.835718  
     408A      2.841265   409A      2.852073   410A      2.864727  
     411A      2.873490   412A      2.882203   413A      2.892063  
     414A      2.902438   415A      2.908597   416A      2.924302  
     417A      2.942912   418A      2.956713   419A      2.967862  
     420A      2.972169   421A      2.984931   422A      2.987581  
     423A      2.997583   424A      3.019888   425A      3.024911  
     426A      3.062346   427A      3.072198   428A      3.081107  
     429A      3.090047   430A      3.115400   431A      3.127318  
     432A      3.145653   433A      3.153033   434A      3.166683  
     435A      3.220407   436A      3.713570   437A      3.739658  
     438A      3.757924   439A      3.772363   440A      3.784197  
     441A      3.820018   442A      3.855080   443A      3.870591  
     444A      3.880185   445A      3.922110   446A      3.934778  
     447A      3.983924   448A      4.002544   449A      4.016731  
     450A      4.057773   451A      4.062992   452A      4.082772  
     453A      4.092511   454A      4.120627   455A      4.130384  
     456A      4.139465   457A      4.150445   458A      4.167555  
     459A      4.170250   460A      4.184467   461A      4.211687  
     462A      4.224180   463A      4.232728   464A      4.232890  
     465A      4.240846   466A      4.249085   467A      4.262136  
     468A      4.265531   469A      4.278354   470A      4.281758  
     471A      4.286672   472A      4.291768   473A      4.304669  
     474A      4.309606   475A      4.320307   476A      4.323812  
     477A      4.330839   478A      4.332581   479A      4.337742  
     480A      4.352132   481A      4.361103   482A      4.374123  
     483A      4.376410   484A      4.387023   485A      4.390621  
     486A      4.399970   487A      4.403321   488A      4.407765  
     489A      4.419101   490A      4.422154   491A      4.425038  
     492A      4.430688   493A      4.433377   494A      4.437679  
     495A      4.454042   496A      4.456518   497A      4.461695  
     498A      4.466335   499A      4.468325   500A      4.476695  
     501A      4.480224   502A      4.492300   503A      4.493939  
     504A      4.500353   505A      4.523175   506A      4.530229  
     507A      4.536234   508A      4.559175   509A      4.573492  
     510A      4.575123   511A      4.584226   512A      4.606045  
     513A      4.623954   514A      4.627605   515A      4.644800  
     516A      4.654083   517A      4.666593   518A      4.674305  
     519A      4.703383   520A      4.717046   521A      4.725903  
     522A      4.764887   523A      4.773720   524A      4.785018  
     525A      4.795207   526A      4.804140   527A      4.811517  
     528A      4.845205   529A      4.849628   530A      4.863376  
     531A      4.893700   532A      4.902205   533A      4.923246  
     534A      4.929551   535A      4.968494   536A      4.981358  
     537A      4.992915   538A      5.015825   539A      5.033665  
     540A      5.068072   541A      5.103728   542A      5.144563  
     543A      5.171456   544A      5.176859   545A      5.206551  
     546A      5.208331   547A      5.213706   548A      5.222733  
     549A      5.234356   550A      5.248215   551A      5.260325  
     552A      5.281406   553A      5.291567   554A      5.298790  
     555A      5.306549   556A      5.324071   557A      5.359118  
     558A      5.376750   559A      5.380621   560A      5.390224  
     561A      5.407108   562A      5.416475   563A      5.439999  
     564A      5.451781   565A      5.457436   566A      5.487642  
     567A      5.504946   568A      5.518190   569A      5.528833  
     570A      5.544656   571A      5.554952   572A      5.563671  
     573A      5.577747   574A      5.597064   575A      5.629937  
     576A      5.665501   577A      5.676075   578A      5.734956  
     579A      5.776531   580A      5.856963   581A      5.869361  
     582A      5.876781   583A      5.918808   584A      5.998921  
     585A      6.038484   586A      6.176310   587A      6.182969  
     588A      6.208536   589A      6.286917   590A      6.329475  
     591A      6.346970   592A      6.555982   593A      6.577917  
     594A      6.588365   595A      6.593424   596A      6.600930  
     597A      6.607424   598A      6.620588   599A      6.733147  
     600A      6.781755   601A      6.782186   602A      6.798259  
     603A      6.808892   604A      6.822304   605A      6.850916  
     606A      6.862007   607A      6.876109   608A      6.879081  
     609A      6.924271   610A      6.970991   611A      7.007928  
     612A      7.026169   613A      7.125571   614A      7.178503  
     615A      7.193351   616A      7.196939   617A      7.210256  
     618A      7.234264   619A      7.236533   620A      7.256237  
     621A      7.267067   622A      7.272472   623A      7.280999  
     624A      7.293239   625A      7.304814   626A      7.309386  
     627A      7.328829   628A      7.335635   629A      7.340975  
     630A      7.347549   631A      7.357149   632A      7.360256  
     633A      7.362920   634A      7.370732   635A      7.374558  
     636A      7.378420   637A      7.387223   638A      7.399244  
     639A      7.400423   640A      7.425046   641A      7.429663  
     642A      7.446267   643A      7.454331   644A      7.472016  
     645A      7.479785   646A      7.481511   647A      7.513366  
     648A      7.520400   649A      7.532286   650A      7.541413  
     651A      7.564880   652A      7.572167   653A      7.608081  
     654A      7.665852   655A      7.688342   656A      7.701370  
     657A      7.727556   658A      7.763899   659A      7.797619  
     660A      7.800722   661A      7.881890   662A      7.914206  
     663A      7.925142   664A      7.937411   665A      7.964867  
     666A      7.981957   667A      7.991594   668A      8.027444  
     669A      8.037632   670A      8.052306   671A      8.068794  
     672A      8.074039   673A      8.117256   674A      8.186186  
     675A      8.213386   676A      8.744481   677A      8.788280  
     678A      8.808645   679A      8.810737   680A      8.853448  
     681A      8.938627   682A      8.985236   683A     16.018839  
     684A     16.442106   685A     16.452868   686A     16.889612  
     687A     16.971254   688A     17.279497   689A     17.739586  
     690A     18.028774   691A     28.340099   692A     28.366884  
     693A     28.550280   694A    160.933904  

    Final Occupation by Irrep:
              A 
    DOCC [    35 ]
    NA   [    35 ]
    NB   [    35 ]

  @DF-RHF Final Energy:  -532.39807941918627

   => Energetics <=

    Nuclear Repulsion Energy =            309.7533571644732433
    One-Electron Energy =               -1350.7679708425521312
    Two-Electron Energy =                 508.6165342588925569
    Total Energy =                       -532.3980794191862742

Computation Completed


Properties will be evaluated at   0.000000,   0.000000,   0.000000 [a0]

Properties computed using the SCF density matrix


 Multipole Moments:

 ------------------------------------------------------------------------------------
     Multipole            Electronic (a.u.)      Nuclear  (a.u.)        Total (a.u.)
 ------------------------------------------------------------------------------------

 L = 1.  Multiply by 2.5417464519 to convert [e a0] to [Debye]
 Dipole X            :         24.8657738          -24.8912439           -0.0254701
 Dipole Y            :         18.6920844          -19.1846414           -0.4925569
 Dipole Z            :        -10.4664614           11.4199476            0.9534862
 Magnitude           :                                                    1.0734975

 ------------------------------------------------------------------------------------

*** tstop() called on moses-razer at Sat Jan  6 23:23:46 2024
Module time:
	user time   =     125.18 seconds =       2.09 minutes
	system time =       3.94 seconds =       0.07 minutes
	total time  =         23 seconds =       0.38 minutes
Total time:
	user time   =     125.18 seconds =       2.09 minutes
	system time =       3.94 seconds =       0.07 minutes
	total time  =         23 seconds =       0.38 minutes

*** tstart() called on moses-razer
*** at Sat Jan  6 23:23:46 2024


  //>>>>>>>>>>>>>>>>>>>>>>>>>>>>>>>>>>>//
  //               DFMP2               //
  //<<<<<<<<<<<<<<<<<<<<<<<<<<<<<<<<<<<//

   => Loading Basis Set <=

    Name: (AUG-CC-PVTZ AUX)
    Role: RIFIT
    Keyword: DF_BASIS_MP2
    atoms 1                                          entry CL         line   742 file /home/kchung25/anaconda3/envs/p415env/share/psi4/basis/aug-cc-pvtz-ri.gbs 
    atoms 2, 5, 8, 11, 14, 17, 20                    entry O          line   264 file /home/kchung25/anaconda3/envs/p415env/share/psi4/basis/aug-cc-pvtz-ri.gbs 
    atoms 3-4, 6-7, 9-10, 12-13, 15-16, 18-19, 21-22 entry H          line    30 file /home/kchung25/anaconda3/envs/p415env/share/psi4/basis/aug-cc-pvtz-ri.gbs 

	 --------------------------------------------------------
	                          DF-MP2                         
	      2nd-Order Density-Fitted Moller-Plesset Theory     
	              RMP2 Wavefunction,   6 Threads             
	                                                         
	        Rob Parrish, Justin Turney, Andy Simmonett,      
	           Ed Hohenstein, and C. David Sherrill          
	 --------------------------------------------------------

   => Auxiliary Basis Set <=

  Basis Set: (AUG-CC-PVTZ AUX)
    Blend: AUG-CC-PVTZ-RI
    Number of shells: 429
    Number of basis functions: 1533
    Number of Cartesian functions: 1913
    Spherical Harmonics?: true
    Max angular momentum: 4

	 --------------------------------------------------------
	                 NBF =   694, NAUX =  1533
	 --------------------------------------------------------
	   CLASS    FOCC     OCC    AOCC    AVIR     VIR    FVIR
	   PAIRS       0      35      35     659     659       0
	 --------------------------------------------------------

	-----------------------------------------------------------
	 ==================> DF-MP2 Energies <==================== 
	-----------------------------------------------------------
	 Reference Energy          =    -532.3980794191862742 [Eh]
	 Singles Energy            =      -0.0000000000000000 [Eh]
	 Same-Spin Energy          =      -0.4812585096403488 [Eh]
	 Opposite-Spin Energy      =      -1.5119954554566657 [Eh]
	 Correlation Energy        =      -1.9932539650970145 [Eh]
	 Total Energy              =    -534.3913333842832571 [Eh]
	-----------------------------------------------------------
	 ================> DF-SCS-MP2 Energies <================== 
	-----------------------------------------------------------
	 SCS Same-Spin Scale       =       0.3333333333333333 [-]
	 SCS Opposite-Spin Scale   =       1.2000000000000000 [-]
	 SCS Same-Spin Energy      =      -0.1604195032134496 [Eh]
	 SCS Opposite-Spin Energy  =      -1.8143945465479987 [Eh]
	 SCS Correlation Energy    =      -1.9748140497614484 [Eh]
	 SCS Total Energy          =    -534.3728934689477228 [Eh]
	-----------------------------------------------------------


*** tstop() called on moses-razer at Sat Jan  6 23:23:59 2024
Module time:
	user time   =      58.63 seconds =       0.98 minutes
	system time =       2.45 seconds =       0.04 minutes
	total time  =         13 seconds =       0.22 minutes
Total time:
	user time   =     183.81 seconds =       3.06 minutes
	system time =       6.39 seconds =       0.11 minutes
	total time  =         36 seconds =       0.60 minutes

    Psi4 stopped on: Saturday, 06 January 2024 11:23PM
    Psi4 wall time for execution: 0:00:36.37


    -----------------------------------------------------------------------
          Psi4: An Open-Source Ab Initio Electronic Structure Package
                               Psi4 1.9 release

                         Git: Rev {} zzzzzzz 


    D. G. A. Smith, L. A. Burns, A. C. Simmonett, R. M. Parrish,
    M. C. Schieber, R. Galvelis, P. Kraus, H. Kruse, R. Di Remigio,
    A. Alenaizan, A. M. James, S. Lehtola, J. P. Misiewicz, M. Scheurer,
    R. A. Shaw, J. B. Schriber, Y. Xie, Z. L. Glick, D. A. Sirianni,
    J. S. O'Brien, J. M. Waldrop, A. Kumar, E. G. Hohenstein,
    B. P. Pritchard, B. R. Brooks, H. F. Schaefer III, A. Yu. Sokolov,
    K. Patkowski, A. E. DePrince III, U. Bozkaya, R. A. King,
    F. A. Evangelista, J. M. Turney, T. D. Crawford, C. D. Sherrill,
    J. Chem. Phys. 152(18) 184108 (2020). https://doi.org/10.1063/5.0006002

                            Additional Code Authors
    E. T. Seidl, C. L. Janssen, E. F. Valeev, M. L. Leininger,
    J. F. Gonthier, R. M. Richard, H. R. McAlexander, M. Saitow, X. Wang,
    P. Verma, M. H. Lechner, A. Jiang, S. Behnle, A. G. Heide,
    M. F. Herbst, and D. L. Poole

             Previous Authors, Complete List of Code Contributors,
                       and Citations for Specific Modules
    https://github.com/psi4/psi4/blob/master/codemeta.json
    https://github.com/psi4/psi4/graphs/contributors
    http://psicode.org/psi4manual/master/introduction.html#citing-psifour

    -----------------------------------------------------------------------


    Psi4 started on: Saturday, 06 January 2024 11:23PM

    Process ID: 560113
    Host:       moses-razer
    PSIDATADIR: /home/kchung25/anaconda3/envs/psi4_19/share/psi4
    Memory:     55.9 GiB
    Threads:    6
    
  ==> Input QCSchema <==

--------------------------------------------------------------------------
{'driver': 'energy',
 'extras': {'psiapi': True, 'wfn_qcvars_only': True},
 'id': None,
 'keywords': {'SCF_TYPE': 'DF', 'function_kwargs': {}},
 'model': {'basis': 'aug-cc-pvtz', 'method': 'mp2'},
 'molecule': {'atom_labels': ['', '', '', '', '', '', '', '', '', '', '', '', '', '', '', '', '', '', '', '', '', ''],
              'atomic_numbers': [17, 8, 1, 1, 8, 1, 1, 8, 1, 1, 8, 1, 1, 8, 1, 1, 8, 1, 1, 8, 1, 1],
              'extras': {},
              'fix_com': True,
              'fix_orientation': True,
              'fix_symmetry': 'c1',
              'fragment_charges': [-1.0, 0.0],
              'fragment_multiplicities': [1, 1],
              'fragments': [[0], [1, 2, 3, 4, 5, 6, 7, 8, 9, 10, 11, 12, 13, 14, 15, 16, 17, 18, 19, 20, 21]],
              'geometry': [0.0, 0.0, 0.0, 2.27692155993351, -0.5533231478908048, 5.865228013259107, 1.6229194732566883,
                           -0.8284842792925937, 4.2793774076794, 1.8627049315899067, -1.8975023484640874,
                           6.915968651345172, 1.4919860192020915, -5.463258699934596, 2.845770697671076,
                           -0.1524347579100557, -5.210764833407674, 3.5027396543648663, 1.5485663091244246,
                           -4.428155545536693, 1.4146829925879885, -1.6482984951215869, 4.656086751884915,
                           3.0275717995707465, -2.482138258253728, 4.27789586239704, 4.649553968669208,
                           -1.3789010284024443, 2.964003302436471, 2.4117232833669187, 2.6057905975469358,
                           5.365678911994329, -2.7054982171044673, 4.1217175570324525, 5.897255091633366,
                           -3.5738859532622285, 3.023336923323596, 4.340666895106373, -1.3260812934697728,
                           -0.6730202904034291, -5.0426302308473145, -3.088575938352776, 0.9497102102407134,
                           -5.80260437918756, -2.7953282382042306, -0.7404079240372553, -3.308137547691345,
                           -2.455164307538943, -1.1088497164438935, 1.0193881919385945, -6.411460908727194,
                           -0.6758643282222432, 1.3522162057848546, -4.7326055421569535, -2.2577994212700023,
                           -0.4110324398222068, -6.537573671435747, -5.429326777625875, -1.7680466602395988,
                           1.3343393966380235, -3.8818716274632195, -1.2725699187751833, 0.6504909755357209,
                           -6.572405103380186, -0.5685883555322532, 2.077050896822212],
              'mass_numbers': [35, 16, 1, 1, 16, 1, 1, 16, 1, 1, 16, 1, 1, 16, 1, 1, 16, 1, 1, 16, 1, 1],
              'masses': [34.968852682, 15.99491461957, 1.00782503223, 1.00782503223, 15.99491461957, 1.00782503223,
                         1.00782503223, 15.99491461957, 1.00782503223, 1.00782503223, 15.99491461957, 1.00782503223,
                         1.00782503223, 15.99491461957, 1.00782503223, 1.00782503223, 15.99491461957, 1.00782503223,
                         1.00782503223, 15.99491461957, 1.00782503223, 1.00782503223],
              'molecular_charge': -1.0,
              'molecular_multiplicity': 1,
              'name': 'dimer',
              'provenance': {'creator': 'QCElemental',
                             'routine': 'qcelemental.molparse.from_string',
                             'version': '0.27.1'},
              'real': [True, False, False, False, False, False, False, False, False, False, False, False, False, False,
                       False, False, False, False, False, False, False, False],
              'schema_name': 'qcschema_molecule',
              'schema_version': 2,
              'symbols': ['Cl', 'O', 'H', 'H', 'O', 'H', 'H', 'O', 'H', 'H', 'O', 'H', 'H', 'O', 'H', 'H', 'O', 'H',
                          'H', 'O', 'H', 'H'],
              'validated': True},
 'protocols': {'stdout': True},
 'provenance': {'creator': 'QCElemental', 'routine': 'qcelemental.models.results', 'version': '0.27.1'},
 'schema_name': 'qcschema_input',
 'schema_version': 1}
--------------------------------------------------------------------------

Scratch directory: /scratch/
   => Libint2 <=

    Primary   basis highest AM E, G, H:  5, 4, 3
    Auxiliary basis highest AM E, G, H:  6, 5, 4
    Onebody   basis highest AM E, G, H:  6, 5, 4
    Solid Harmonics ordering:            gaussian

*** tstart() called on moses-razer
*** at Sat Jan  6 23:23:59 2024

   => Loading Basis Set <=

    Name: AUG-CC-PVTZ
    Role: ORBITAL
    Keyword: BASIS
    atoms 1                                          entry CL         line   988 file /home/kchung25/anaconda3/envs/p415env/share/psi4/basis/aug-cc-pvtz.gbs 
    atoms 2, 5, 8, 11, 14, 17, 20                    entry O          line   331 file /home/kchung25/anaconda3/envs/p415env/share/psi4/basis/aug-cc-pvtz.gbs 
    atoms 3-4, 6-7, 9-10, 12-13, 15-16, 18-19, 21-22 entry H          line    40 file /home/kchung25/anaconda3/envs/p415env/share/psi4/basis/aug-cc-pvtz.gbs 


         ---------------------------------------------------------
                                   SCF
               by Justin Turney, Rob Parrish, Andy Simmonett
                          and Daniel G. A. Smith
                              RHF Reference
                        6 Threads,  57220 MiB Core
         ---------------------------------------------------------

  ==> Geometry <==

    Molecular point group: c1
    Full point group: C1

    Geometry (in Bohr), charge = -1, multiplicity = 1:

       Center              X                  Y                   Z               Mass       
    ------------   -----------------  -----------------  -----------------  -----------------
         CL           0.000000000000     0.000000000000     0.000000000000    34.968852682000
      Gh(O)           2.276921559934    -0.553323147891     5.865228013259    15.994914619570
      Gh(H)           1.622919473257    -0.828484279293     4.279377407679     1.007825032230
      Gh(H)           1.862704931590    -1.897502348464     6.915968651345     1.007825032230
      Gh(O)           1.491986019202    -5.463258699935     2.845770697671    15.994914619570
      Gh(H)          -0.152434757910    -5.210764833408     3.502739654365     1.007825032230
      Gh(H)           1.548566309124    -4.428155545537     1.414682992588     1.007825032230
      Gh(O)          -1.648298495122     4.656086751885     3.027571799571    15.994914619570
      Gh(H)          -2.482138258254     4.277895862397     4.649553968669     1.007825032230
      Gh(H)          -1.378901028402     2.964003302436     2.411723283367     1.007825032230
      Gh(O)           2.605790597547     5.365678911994    -2.705498217104    15.994914619570
      Gh(H)           4.121717557032     5.897255091633    -3.573885953262     1.007825032230
      Gh(H)           3.023336923324     4.340666895106    -1.326081293470     1.007825032230
      Gh(O)          -0.673020290403    -5.042630230847    -3.088575938353    15.994914619570
      Gh(H)           0.949710210241    -5.802604379188    -2.795328238204     1.007825032230
      Gh(H)          -0.740407924037    -3.308137547691    -2.455164307539     1.007825032230
      Gh(O)          -1.108849716444     1.019388191939    -6.411460908727    15.994914619570
      Gh(H)          -0.675864328222     1.352216205785    -4.732605542157     1.007825032230
      Gh(H)          -2.257799421270    -0.411032439822    -6.537573671436     1.007825032230
      Gh(O)          -5.429326777626    -1.768046660240     1.334339396638    15.994914619570
      Gh(H)          -3.881871627463    -1.272569918775     0.650490975536     1.007825032230
      Gh(H)          -6.572405103380    -0.568588355532     2.077050896822     1.007825032230

  Running in c1 symmetry.

  Rotational constants: A =      0.02297  B =      0.01987  C =      0.01515 [cm^-1]
  Rotational constants: A =    688.73871  B =    595.74876  C =    454.06530 [MHz]
  Nuclear repulsion =    0.000000000000000

  Charge       = -1
  Multiplicity = 1
  Electrons    = 18
  Nalpha       = 9
  Nbeta        = 9

  ==> Algorithm <==

  SCF Algorithm Type is DF.
  DIIS enabled.
  MOM disabled.
  Fractional occupation disabled.
  Guess Type is SAD.
  Energy threshold   = 1.00e-08
  Density threshold  = 1.00e-08
  Integral threshold = 1.00e-12

  ==> Primary Basis <==

  Basis Set: AUG-CC-PVTZ
    Blend: AUG-CC-PVTZ
    Number of shells: 240
    Number of basis functions: 694
    Number of Cartesian functions: 794
    Spherical Harmonics?: true
    Max angular momentum: 3

   => Loading Basis Set <=

    Name: (AUG-CC-PVTZ AUX)
    Role: JKFIT
    Keyword: DF_BASIS_SCF
    atoms 1                                          entry CL         line   816 file /home/kchung25/anaconda3/envs/p415env/share/psi4/basis/aug-cc-pvtz-jkfit.gbs 
    atoms 2, 5, 8, 11, 14, 17, 20                    entry O          line   286 file /home/kchung25/anaconda3/envs/p415env/share/psi4/basis/aug-cc-pvtz-jkfit.gbs 
    atoms 3-4, 6-7, 9-10, 12-13, 15-16, 18-19, 21-22 entry H          line    70 file /home/kchung25/anaconda3/envs/p415env/share/psi4/basis/aug-cc-pvtz-jkfit.gbs 

  ==> Integral Setup <==

  DFHelper Memory: AOs need 4.691 GiB; user supplied 41.910 GiB. 
  Using in-core AOs.

  ==> MemDFJK: Density-Fitted J/K Matrices <==

    J tasked:                   Yes
    K tasked:                   Yes
    wK tasked:                   No
    OpenMP threads:               6
    Memory [MiB]:             42915
    Algorithm:                 Core
    Schwarz Cutoff:           1E-12
    Mask sparsity (%):      16.3721
    Fitting Condition:        1E-10

   => Auxiliary Basis Set <=

  Basis Set: (AUG-CC-PVTZ AUX)
    Blend: AUG-CC-PVTZ-JKFIT
    Number of shells: 448
    Number of basis functions: 1518
    Number of Cartesian functions: 1867
    Spherical Harmonics?: true
    Max angular momentum: 4

  Minimum eigenvalue in the overlap matrix is 8.4640681300E-05.
  Reciprocal condition number of the overlap matrix is 5.7637541969E-06.
    Using symmetric orthogonalization.

  ==> Pre-Iterations <==

  SCF Guess: Superposition of Atomic Densities via on-the-fly atomic UHF (no occupation information).

   -------------------------
    Irrep   Nso     Nmo    
   -------------------------
     A        694     694 
   -------------------------
    Total     694     694
   -------------------------

  ==> Iterations <==

                           Total Energy        Delta E     RMS |[F,P]|

   @DF-RHF iter SAD:  -459.11248998752842   -4.59112e+02   0.00000e+00 
   @DF-RHF iter   1:  -459.51391843101311   -4.01428e-01   4.30817e-04 DIIS/ADIIS
   @DF-RHF iter   2:  -459.56483941765487   -5.09210e-02   2.21038e-04 DIIS/ADIIS
   @DF-RHF iter   3:  -459.57353840268547   -8.69899e-03   1.55779e-05 DIIS
   @DF-RHF iter   4:  -459.57359684707291   -5.84444e-05   3.03080e-06 DIIS
   @DF-RHF iter   5:  -459.57360046392267   -3.61685e-06   3.12494e-07 DIIS
   @DF-RHF iter   6:  -459.57360054802956   -8.41069e-08   2.95200e-08 DIIS
   @DF-RHF iter   7:  -459.57360054919178   -1.16222e-09   3.28943e-09 DIIS
  Energy and wave function converged.


  ==> Post-Iterations <==

    Orbital Energies [Eh]
    ---------------------

    Doubly Occupied:                                                      

       1A   -104.507525     2A    -10.230125     3A     -7.696194  
       4A     -7.696191     5A     -7.696169     6A     -0.733457  
       7A     -0.150302     8A     -0.150299     9A     -0.150294  

    Virtual:                                                              

      10A      0.116370    11A      0.118511    12A      0.125159  
      13A      0.128063    14A      0.135672    15A      0.137961  
      16A      0.151338    17A      0.158747    18A      0.163833  
      19A      0.174762    20A      0.176781    21A      0.182854  
      22A      0.194309    23A      0.196794    24A      0.230538  
      25A      0.237348    26A      0.241735    27A      0.249917  
      28A      0.251988    29A      0.256486    30A      0.262295  
      31A      0.264507    32A      0.268891    33A      0.270484  
      34A      0.276285    35A      0.286055    36A      0.288224  
      37A      0.289855    38A      0.292175    39A      0.299098  
      40A      0.299880    41A      0.312017    42A      0.316891  
      43A      0.318661    44A      0.321070    45A      0.328626  
      46A      0.341001    47A      0.345339    48A      0.350463  
      49A      0.352402    50A      0.360429    51A      0.363020  
      52A      0.377749    53A      0.381016    54A      0.388679  
      55A      0.407598    56A      0.421458    57A      0.427259  
      58A      0.431752    59A      0.435157    60A      0.443241  
      61A      0.451724    62A      0.454616    63A      0.461330  
      64A      0.463187    65A      0.465440    66A      0.469805  
      67A      0.480172    68A      0.481525    69A      0.485579  
      70A      0.492592    71A      0.497634    72A      0.499191  
      73A      0.504664    74A      0.506870    75A      0.516107  
      76A      0.519132    77A      0.524259    78A      0.526732  
      79A      0.532017    80A      0.536704    81A      0.541768  
      82A      0.548207    83A      0.549916    84A      0.552304  
      85A      0.556125    86A      0.563287    87A      0.568923  
      88A      0.574291    89A      0.587452    90A      0.591855  
      91A      0.593534    92A      0.602929    93A      0.611611  
      94A      0.618945    95A      0.623407    96A      0.631373  
      97A      0.643661    98A      0.646386    99A      0.648632  
     100A      0.656662   101A      0.664838   102A      0.683858  
     103A      0.686173   104A      0.703410   105A      0.705383  
     106A      0.712115   107A      0.727115   108A      0.747152  
     109A      0.754002   110A      0.765748   111A      0.771668  
     112A      0.797988   113A      0.806330   114A      0.807259  
     115A      0.827795   116A      0.832909   117A      0.839763  
     118A      0.847934   119A      0.854123   120A      0.861309  
     121A      0.872575   122A      0.875600   123A      0.881834  
     124A      0.885234   125A      0.896219   126A      0.907277  
     127A      0.911006   128A      0.919489   129A      0.927592  
     130A      0.929628   131A      0.936322   132A      0.942452  
     133A      0.946077   134A      0.951219   135A      0.958318  
     136A      0.964392   137A      0.966414   138A      0.971207  
     139A      0.977012   140A      0.981865   141A      0.984147  
     142A      0.986082   143A      0.992304   144A      0.996386  
     145A      0.996805   146A      1.005261   147A      1.009528  
     148A      1.016524   149A      1.020811   150A      1.024794  
     151A      1.028548   152A      1.032407   153A      1.038989  
     154A      1.043138   155A      1.049925   156A      1.052190  
     157A      1.053582   158A      1.061300   159A      1.063066  
     160A      1.066343   161A      1.076902   162A      1.081458  
     163A      1.082638   164A      1.089904   165A      1.095247  
     166A      1.099014   167A      1.102480   168A      1.112193  
     169A      1.115881   170A      1.121697   171A      1.127888  
     172A      1.133987   173A      1.135464   174A      1.144130  
     175A      1.145600   176A      1.160145   177A      1.164411  
     178A      1.171069   179A      1.177833   180A      1.179323  
     181A      1.183981   182A      1.188073   183A      1.195771  
     184A      1.196653   185A      1.201716   186A      1.210510  
     187A      1.214441   188A      1.221801   189A      1.226342  
     190A      1.230253   191A      1.231801   192A      1.241101  
     193A      1.245358   194A      1.248357   195A      1.255701  
     196A      1.260134   197A      1.273217   198A      1.276178  
     199A      1.283563   200A      1.284776   201A      1.290065  
     202A      1.298889   203A      1.303007   204A      1.309435  
     205A      1.314571   206A      1.327653   207A      1.334064  
     208A      1.341930   209A      1.353353   210A      1.361008  
     211A      1.370899   212A      1.376049   213A      1.379038  
     214A      1.388861   215A      1.390997   216A      1.401122  
     217A      1.409520   218A      1.421768   219A      1.428495  
     220A      1.435780   221A      1.452442   222A      1.455035  
     223A      1.464244   224A      1.470068   225A      1.480392  
     226A      1.487947   227A      1.505362   228A      1.508933  
     229A      1.513868   230A      1.516236   231A      1.521882  
     232A      1.527809   233A      1.541900   234A      1.554912  
     235A      1.561622   236A      1.575776   237A      1.584428  
     238A      1.597420   239A      1.599933   240A      1.612139  
     241A      1.614957   242A      1.622083   243A      1.637484  
     244A      1.647956   245A      1.652531   246A      1.669695  
     247A      1.681507   248A      1.689839   249A      1.697040  
     250A      1.699058   251A      1.714740   252A      1.729325  
     253A      1.733388   254A      1.737563   255A      1.754005  
     256A      1.774057   257A      1.784420   258A      1.792454  
     259A      1.808441   260A      1.820338   261A      1.825122  
     262A      1.826296   263A      1.840198   264A      1.861479  
     265A      1.871756   266A      1.878880   267A      1.890829  
     268A      1.908172   269A      1.913707   270A      1.916197  
     271A      1.923891   272A      1.937283   273A      1.939122  
     274A      1.951050   275A      1.953694   276A      1.962161  
     277A      1.969567   278A      1.973118   279A      1.979957  
     280A      1.984109   281A      1.988960   282A      2.000202  
     283A      2.001995   284A      2.015099   285A      2.023295  
     286A      2.030437   287A      2.040102   288A      2.046933  
     289A      2.049247   290A      2.057767   291A      2.063340  
     292A      2.072832   293A      2.084132   294A      2.088522  
     295A      2.099518   296A      2.119017   297A      2.134940  
     298A      2.149494   299A      2.157384   300A      2.163392  
     301A      2.168007   302A      2.185037   303A      2.192042  
     304A      2.199849   305A      2.214431   306A      2.227434  
     307A      2.240781   308A      2.253039   309A      2.266588  
     310A      2.277152   311A      2.295049   312A      2.318652  
     313A      2.329607   314A      2.342645   315A      2.360269  
     316A      2.386392   317A      2.406378   318A      2.422339  
     319A      2.437919   320A      2.491911   321A      2.548283  
     322A      2.612536   323A      2.620193   324A      2.625666  
     325A      2.634032   326A      2.643371   327A      2.647948  
     328A      2.662274   329A      2.668114   330A      2.673097  
     331A      2.679867   332A      2.695443   333A      2.701853  
     334A      2.713259   335A      2.716850   336A      2.720130  
     337A      2.721610   338A      2.749074   339A      2.754986  
     340A      2.760095   341A      2.773662   342A      2.776032  
     343A      2.784814   344A      2.788315   345A      2.795083  
     346A      2.807653   347A      2.819056   348A      2.828389  
     349A      2.841056   350A      2.851940   351A      2.856180  
     352A      2.861586   353A      2.869805   354A      2.877179  
     355A      2.884702   356A      2.896666   357A      2.904326  
     358A      2.908634   359A      2.920305   360A      2.927115  
     361A      2.947875   362A      2.950455   363A      2.957780  
     364A      2.963548   365A      2.983487   366A      2.991906  
     367A      2.997199   368A      3.014989   369A      3.022574  
     370A      3.029208   371A      3.039999   372A      3.068119  
     373A      3.078781   374A      3.107017   375A      3.108953  
     376A      3.139764   377A      3.146754   378A      3.160151  
     379A      3.187702   380A      3.196090   381A      3.199349  
     382A      3.222176   383A      3.251155   384A      3.256040  
     385A      3.267709   386A      3.294994   387A      3.313152  
     388A      3.346027   389A      3.350845   390A      3.360196  
     391A      3.365710   392A      3.371298   393A      3.384435  
     394A      3.388797   395A      3.394585   396A      3.400870  
     397A      3.410777   398A      3.423872   399A      3.426812  
     400A      3.430997   401A      3.432936   402A      3.446921  
     403A      3.458993   404A      3.479254   405A      3.482838  
     406A      3.497577   407A      3.508405   408A      3.532138  
     409A      3.551311   410A      3.559655   411A      3.565194  
     412A      3.587785   413A      3.604532   414A      3.609542  
     415A      3.650780   416A      3.657502   417A      3.669246  
     418A      3.681315   419A      3.699719   420A      3.709021  
     421A      3.724312   422A      3.732925   423A      3.764226  
     424A      3.769739   425A      3.775834   426A      3.786886  
     427A      3.792502   428A      3.801410   429A      3.822301  
     430A      3.838729   431A      3.854282   432A      3.869845  
     433A      3.877322   434A      3.883653   435A      3.897753  
     436A      3.908398   437A      3.939524   438A      3.951303  
     439A      3.979258   440A      4.002636   441A      4.013966  
     442A      4.038607   443A      4.043273   444A      4.067169  
     445A      4.090397   446A      4.164281   447A      4.171398  
     448A      4.278340   449A      4.542325   450A      4.573344  
     451A      4.585421   452A      4.621936   453A      4.625784  
     454A      4.636492   455A      4.645576   456A      4.648132  
     457A      4.662829   458A      4.673036   459A      4.690451  
     460A      4.693010   461A      4.725515   462A      4.749047  
     463A      4.769903   464A      4.779384   465A      4.786890  
     466A      4.793691   467A      4.806537   468A      4.831277  
     469A      4.836524   470A      4.851954   471A      4.854723  
     472A      4.857931   473A      4.864522   474A      4.881058  
     475A      4.883888   476A      4.890233   477A      4.901792  
     478A      4.907294   479A      4.915668   480A      4.925139  
     481A      4.929797   482A      4.934695   483A      4.953205  
     484A      4.982736   485A      5.007897   486A      5.051112  
     487A      5.054414   488A      5.073193   489A      5.081862  
     490A      5.087141   491A      5.087935   492A      5.100198  
     493A      5.116987   494A      5.124930   495A      5.132369  
     496A      5.145213   497A      5.151858   498A      5.166689  
     499A      5.188061   500A      5.200445   501A      5.209323  
     502A      5.221144   503A      5.239754   504A      5.248632  
     505A      5.264713   506A      5.287655   507A      5.326848  
     508A      5.337266   509A      5.350348   510A      5.396858  
     511A      5.422660   512A      5.439934   513A      5.448224  
     514A      5.457387   515A      5.493484   516A      5.536268  
     517A      5.553218   518A      5.589743   519A      5.692857  
     520A      5.702460   521A      5.718987   522A      5.724480  
     523A      5.734656   524A      5.762334   525A      5.781214  
     526A      5.798242   527A      5.816561   528A      5.819336  
     529A      5.841823   530A      5.864427   531A      5.888711  
     532A      5.895410   533A      5.907972   534A      5.908836  
     535A      5.919693   536A      5.940786   537A      5.971458  
     538A      5.991001   539A      6.005423   540A      6.022008  
     541A      6.027331   542A      6.035513   543A      6.057148  
     544A      6.136352   545A      6.164305   546A      6.183248  
     547A      6.355293   548A      6.358327   549A      6.365770  
     550A      6.378286   551A      6.393096   552A      6.408870  
     553A      6.423682   554A      6.539663   555A      6.548832  
     556A      6.567721   557A      6.601989   558A      6.618855  
     559A      6.750129   560A      6.829298   561A      6.832486  
     562A      6.940286   563A      6.994411   564A      7.010236  
     565A      7.039766   566A      7.114316   567A      7.255601  
     568A      7.270875   569A      7.290557   570A      7.307898  
     571A      7.357771   572A      7.405134   573A      7.439899  
     574A      7.487226   575A      7.851121   576A      7.851720  
     577A      7.878827   578A      7.888960   579A      7.914519  
     580A      7.930761   581A      7.939939   582A      7.959004  
     583A      7.967500   584A      7.982468   585A      7.985331  
     586A      8.026976   587A      8.075648   588A      8.106878  
     589A      8.173327   590A      8.211842   591A      8.281655  
     592A      8.288190   593A      8.323766   594A      8.348613  
     595A      8.387075   596A      8.411215   597A      8.429696  
     598A      8.445614   599A      8.454694   600A      8.463429  
     601A      8.466397   602A      8.475346   603A      8.483872  
     604A      8.520774   605A      8.541801   606A      8.552849  
     607A      8.565940   608A      8.574999   609A      8.602280  
     610A      8.674622   611A      8.951364   612A      8.967973  
     613A      8.984502   614A      8.993205   615A      9.027882  
     616A      9.087522   617A      9.114768   618A      9.138491  
     619A      9.174915   620A      9.201476   621A      9.222076  
     622A      9.275114   623A      9.499674   624A      9.527425  
     625A      9.887558   626A      9.892801   627A      9.932604  
     628A      9.951855   629A      9.969537   630A      9.992487  
     631A     10.007062   632A     10.024270   633A     10.054642  
     634A     10.073962   635A     10.089780   636A     10.091645  
     637A     10.101585   638A     10.123895   639A     10.196478  
     640A     10.227574   641A     10.278982   642A     10.294384  
     643A     10.301156   644A     10.322068   645A     10.335782  
     646A     10.384907   647A     10.464413   648A     10.482395  
     649A     10.521800   650A     10.524289   651A     10.550292  
     652A     10.580573   653A     11.275156   654A     11.303978  
     655A     11.326721   656A     11.354066   657A     11.374647  
     658A     11.545648   659A     11.594739   660A     11.883662  
     661A     11.895981   662A     11.964492   663A     12.028171  
     664A     12.034589   665A     12.098267   666A     12.125305  
     667A     12.294023   668A     12.364396   669A     12.445739  
     670A     12.479481   671A     12.577801   672A     12.600263  
     673A     12.692396   674A     13.785886   675A     13.825784  
     676A     13.846588   677A     13.871765   678A     13.977095  
     679A     14.014384   680A     14.035616   681A     14.046908  
     682A     14.111109   683A     14.153536   684A     14.192205  
     685A     14.207297   686A     14.298862   687A     14.391815  
     688A     66.037294   689A     66.072244   690A     66.776661  
     691A     67.172350   692A     67.735893   693A     68.605151  
     694A     69.302572  

    Final Occupation by Irrep:
              A 
    DOCC [     9 ]
    NA   [     9 ]
    NB   [     9 ]

  @DF-RHF Final Energy:  -459.57360054919178

   => Energetics <=

    Nuclear Repulsion Energy =              0.0000000000000000
    One-Electron Energy =                -641.1261015877294085
    Two-Electron Energy =                 181.5525010385376277
    Total Energy =                       -459.5736005491917808

Computation Completed


Properties will be evaluated at   0.000000,   0.000000,   0.000000 [a0]

Properties computed using the SCF density matrix


 Multipole Moments:

 ------------------------------------------------------------------------------------
     Multipole            Electronic (a.u.)      Nuclear  (a.u.)        Total (a.u.)
 ------------------------------------------------------------------------------------

 L = 1.  Multiply by 2.5417464519 to convert [e a0] to [Debye]
 Dipole X            :         -0.0000634            0.0000000           -0.0000634
 Dipole Y            :         -0.0000096            0.0000000           -0.0000096
 Dipole Z            :          0.0000089            0.0000000            0.0000089
 Magnitude           :                                                    0.0000647

 ------------------------------------------------------------------------------------

*** tstop() called on moses-razer at Sat Jan  6 23:24:15 2024
Module time:
	user time   =      82.79 seconds =       1.38 minutes
	system time =       2.82 seconds =       0.05 minutes
	total time  =         16 seconds =       0.27 minutes
Total time:
	user time   =     266.94 seconds =       4.45 minutes
	system time =       9.21 seconds =       0.15 minutes
	total time  =         52 seconds =       0.87 minutes

*** tstart() called on moses-razer
*** at Sat Jan  6 23:24:15 2024


  //>>>>>>>>>>>>>>>>>>>>>>>>>>>>>>>>>>>//
  //               DFMP2               //
  //<<<<<<<<<<<<<<<<<<<<<<<<<<<<<<<<<<<//

   => Loading Basis Set <=

    Name: (AUG-CC-PVTZ AUX)
    Role: RIFIT
    Keyword: DF_BASIS_MP2
    atoms 1                                          entry CL         line   742 file /home/kchung25/anaconda3/envs/p415env/share/psi4/basis/aug-cc-pvtz-ri.gbs 
    atoms 2, 5, 8, 11, 14, 17, 20                    entry O          line   264 file /home/kchung25/anaconda3/envs/p415env/share/psi4/basis/aug-cc-pvtz-ri.gbs 
    atoms 3-4, 6-7, 9-10, 12-13, 15-16, 18-19, 21-22 entry H          line    30 file /home/kchung25/anaconda3/envs/p415env/share/psi4/basis/aug-cc-pvtz-ri.gbs 

	 --------------------------------------------------------
	                          DF-MP2                         
	      2nd-Order Density-Fitted Moller-Plesset Theory     
	              RMP2 Wavefunction,   6 Threads             
	                                                         
	        Rob Parrish, Justin Turney, Andy Simmonett,      
	           Ed Hohenstein, and C. David Sherrill          
	 --------------------------------------------------------

   => Auxiliary Basis Set <=

  Basis Set: (AUG-CC-PVTZ AUX)
    Blend: AUG-CC-PVTZ-RI
    Number of shells: 429
    Number of basis functions: 1533
    Number of Cartesian functions: 1913
    Spherical Harmonics?: true
    Max angular momentum: 4

	 --------------------------------------------------------
	                 NBF =   694, NAUX =  1533
	 --------------------------------------------------------
	   CLASS    FOCC     OCC    AOCC    AVIR     VIR    FVIR
	   PAIRS       0       9       9     685     685       0
	 --------------------------------------------------------

	-----------------------------------------------------------
	 ==================> DF-MP2 Energies <==================== 
	-----------------------------------------------------------
	 Reference Energy          =    -459.5736005491917808 [Eh]
	 Singles Energy            =      -0.0000000000000000 [Eh]
	 Same-Spin Energy          =      -0.0638564260322132 [Eh]
	 Opposite-Spin Energy      =      -0.1851270316534945 [Eh]
	 Correlation Energy        =      -0.2489834576857078 [Eh]
	 Total Energy              =    -459.8225840068774914 [Eh]
	-----------------------------------------------------------
	 ================> DF-SCS-MP2 Energies <================== 
	-----------------------------------------------------------
	 SCS Same-Spin Scale       =       0.3333333333333333 [-]
	 SCS Opposite-Spin Scale   =       1.2000000000000000 [-]
	 SCS Same-Spin Energy      =      -0.0212854753440711 [Eh]
	 SCS Opposite-Spin Energy  =      -0.2221524379841934 [Eh]
	 SCS Correlation Energy    =      -0.2434379133282645 [Eh]
	 SCS Total Energy          =    -459.8170384625200313 [Eh]
	-----------------------------------------------------------


*** tstop() called on moses-razer at Sat Jan  6 23:24:22 2024
Module time:
	user time   =      27.68 seconds =       0.46 minutes
	system time =       1.73 seconds =       0.03 minutes
	total time  =          7 seconds =       0.12 minutes
Total time:
	user time   =     294.63 seconds =       4.91 minutes
	system time =      10.94 seconds =       0.18 minutes
	total time  =         59 seconds =       0.98 minutes

    Psi4 stopped on: Saturday, 06 January 2024 11:24PM
    Psi4 wall time for execution: 0:00:23.56


    -----------------------------------------------------------------------
          Psi4: An Open-Source Ab Initio Electronic Structure Package
                               Psi4 1.9 release

                         Git: Rev {} zzzzzzz 


    D. G. A. Smith, L. A. Burns, A. C. Simmonett, R. M. Parrish,
    M. C. Schieber, R. Galvelis, P. Kraus, H. Kruse, R. Di Remigio,
    A. Alenaizan, A. M. James, S. Lehtola, J. P. Misiewicz, M. Scheurer,
    R. A. Shaw, J. B. Schriber, Y. Xie, Z. L. Glick, D. A. Sirianni,
    J. S. O'Brien, J. M. Waldrop, A. Kumar, E. G. Hohenstein,
    B. P. Pritchard, B. R. Brooks, H. F. Schaefer III, A. Yu. Sokolov,
    K. Patkowski, A. E. DePrince III, U. Bozkaya, R. A. King,
    F. A. Evangelista, J. M. Turney, T. D. Crawford, C. D. Sherrill,
    J. Chem. Phys. 152(18) 184108 (2020). https://doi.org/10.1063/5.0006002

                            Additional Code Authors
    E. T. Seidl, C. L. Janssen, E. F. Valeev, M. L. Leininger,
    J. F. Gonthier, R. M. Richard, H. R. McAlexander, M. Saitow, X. Wang,
    P. Verma, M. H. Lechner, A. Jiang, S. Behnle, A. G. Heide,
    M. F. Herbst, and D. L. Poole

             Previous Authors, Complete List of Code Contributors,
                       and Citations for Specific Modules
    https://github.com/psi4/psi4/blob/master/codemeta.json
    https://github.com/psi4/psi4/graphs/contributors
    http://psicode.org/psi4manual/master/introduction.html#citing-psifour

    -----------------------------------------------------------------------


    Psi4 started on: Saturday, 06 January 2024 11:23PM

    Process ID: 560113
    Host:       moses-razer
    PSIDATADIR: /home/kchung25/anaconda3/envs/psi4_19/share/psi4
    Memory:     55.9 GiB
    Threads:    6
    
  ==> Input QCSchema <==

--------------------------------------------------------------------------
{'driver': 'energy',
 'extras': {'psiapi': True, 'wfn_qcvars_only': True},
 'id': None,
 'keywords': {'SCF_TYPE': 'DF', 'function_kwargs': {}},
 'model': {'basis': 'aug-cc-pvtz', 'method': 'mp2'},
 'molecule': {'atom_labels': ['', '', '', '', '', '', '', '', '', '', '', '', '', '', '', '', '', '', '', '', '', ''],
              'atomic_numbers': [17, 8, 1, 1, 8, 1, 1, 8, 1, 1, 8, 1, 1, 8, 1, 1, 8, 1, 1, 8, 1, 1],
              'extras': {},
              'fix_com': True,
              'fix_orientation': True,
              'fix_symmetry': 'c1',
              'fragment_charges': [-1.0, 0.0],
              'fragment_multiplicities': [1, 1],
              'fragments': [[0], [1, 2, 3, 4, 5, 6, 7, 8, 9, 10, 11, 12, 13, 14, 15, 16, 17, 18, 19, 20, 21]],
              'geometry': [0.0, 0.0, 0.0, 2.27692155993351, -0.5533231478908048, 5.865228013259107, 1.6229194732566883,
                           -0.8284842792925937, 4.2793774076794, 1.8627049315899067, -1.8975023484640874,
                           6.915968651345172, 1.4919860192020915, -5.463258699934596, 2.845770697671076,
                           -0.1524347579100557, -5.210764833407674, 3.5027396543648663, 1.5485663091244246,
                           -4.428155545536693, 1.4146829925879885, -1.6482984951215869, 4.656086751884915,
                           3.0275717995707465, -2.482138258253728, 4.27789586239704, 4.649553968669208,
                           -1.3789010284024443, 2.964003302436471, 2.4117232833669187, 2.6057905975469358,
                           5.365678911994329, -2.7054982171044673, 4.1217175570324525, 5.897255091633366,
                           -3.5738859532622285, 3.023336923323596, 4.340666895106373, -1.3260812934697728,
                           -0.6730202904034291, -5.0426302308473145, -3.088575938352776, 0.9497102102407134,
                           -5.80260437918756, -2.7953282382042306, -0.7404079240372553, -3.308137547691345,
                           -2.455164307538943, -1.1088497164438935, 1.0193881919385945, -6.411460908727194,
                           -0.6758643282222432, 1.3522162057848546, -4.7326055421569535, -2.2577994212700023,
                           -0.4110324398222068, -6.537573671435747, -5.429326777625875, -1.7680466602395988,
                           1.3343393966380235, -3.8818716274632195, -1.2725699187751833, 0.6504909755357209,
                           -6.572405103380186, -0.5685883555322532, 2.077050896822212],
              'mass_numbers': [35, 16, 1, 1, 16, 1, 1, 16, 1, 1, 16, 1, 1, 16, 1, 1, 16, 1, 1, 16, 1, 1],
              'masses': [34.968852682, 15.99491461957, 1.00782503223, 1.00782503223, 15.99491461957, 1.00782503223,
                         1.00782503223, 15.99491461957, 1.00782503223, 1.00782503223, 15.99491461957, 1.00782503223,
                         1.00782503223, 15.99491461957, 1.00782503223, 1.00782503223, 15.99491461957, 1.00782503223,
                         1.00782503223, 15.99491461957, 1.00782503223, 1.00782503223],
              'molecular_charge': -1.0,
              'molecular_multiplicity': 1,
              'name': 'dimer',
              'provenance': {'creator': 'QCElemental',
                             'routine': 'qcelemental.molparse.from_string',
                             'version': '0.27.1'},
              'real': [True, True, True, True, True, True, True, True, True, True, True, True, True, True, True, True,
                       True, True, True, True, True, True],
              'schema_name': 'qcschema_molecule',
              'schema_version': 2,
              'symbols': ['Cl', 'O', 'H', 'H', 'O', 'H', 'H', 'O', 'H', 'H', 'O', 'H', 'H', 'O', 'H', 'H', 'O', 'H',
                          'H', 'O', 'H', 'H'],
              'validated': True},
 'protocols': {'stdout': True},
 'provenance': {'creator': 'QCElemental', 'routine': 'qcelemental.models.results', 'version': '0.27.1'},
 'schema_name': 'qcschema_input',
 'schema_version': 1}
--------------------------------------------------------------------------

Scratch directory: /scratch/
   => Libint2 <=

    Primary   basis highest AM E, G, H:  5, 4, 3
    Auxiliary basis highest AM E, G, H:  6, 5, 4
    Onebody   basis highest AM E, G, H:  6, 5, 4
    Solid Harmonics ordering:            gaussian

*** tstart() called on moses-razer
*** at Sat Jan  6 23:24:22 2024

   => Loading Basis Set <=

    Name: AUG-CC-PVTZ
    Role: ORBITAL
    Keyword: BASIS
    atoms 1                                          entry CL         line   988 file /home/kchung25/anaconda3/envs/p415env/share/psi4/basis/aug-cc-pvtz.gbs 
    atoms 2, 5, 8, 11, 14, 17, 20                    entry O          line   331 file /home/kchung25/anaconda3/envs/p415env/share/psi4/basis/aug-cc-pvtz.gbs 
    atoms 3-4, 6-7, 9-10, 12-13, 15-16, 18-19, 21-22 entry H          line    40 file /home/kchung25/anaconda3/envs/p415env/share/psi4/basis/aug-cc-pvtz.gbs 


         ---------------------------------------------------------
                                   SCF
               by Justin Turney, Rob Parrish, Andy Simmonett
                          and Daniel G. A. Smith
                              RHF Reference
                        6 Threads,  57220 MiB Core
         ---------------------------------------------------------

  ==> Geometry <==

    Molecular point group: c1
    Full point group: C1

    Geometry (in Bohr), charge = -1, multiplicity = 1:

       Center              X                  Y                   Z               Mass       
    ------------   -----------------  -----------------  -----------------  -----------------
         CL           0.000000000000     0.000000000000     0.000000000000    34.968852682000
         O            2.276921559934    -0.553323147891     5.865228013259    15.994914619570
         H            1.622919473257    -0.828484279293     4.279377407679     1.007825032230
         H            1.862704931590    -1.897502348464     6.915968651345     1.007825032230
         O            1.491986019202    -5.463258699935     2.845770697671    15.994914619570
         H           -0.152434757910    -5.210764833408     3.502739654365     1.007825032230
[...]
      84A      0.360823    85A      0.366282    86A      0.368080  
      87A      0.371980    88A      0.378288    89A      0.389036  
      90A      0.392124    91A      0.395437    92A      0.407809  
      93A      0.409609    94A      0.416190    95A      0.429015  
      96A      0.438375    97A      0.444563    98A      0.445986  
      99A      0.449014   100A      0.458083   101A      0.462711  
     102A      0.467357   103A      0.470478   104A      0.473800  
     105A      0.477631   106A      0.483289   107A      0.489001  
     108A      0.499802   109A      0.504284   110A      0.512776  
     111A      0.516518   112A      0.522269   113A      0.522752  
     114A      0.530876   115A      0.538175   116A      0.544818  
     117A      0.548465   118A      0.552378   119A      0.555741  
     120A      0.562216   121A      0.565427   122A      0.573860  
     123A      0.576470   124A      0.578520   125A      0.582397  
     126A      0.587224   127A      0.592322   128A      0.600238  
     129A      0.602640   130A      0.609836   131A      0.615373  
     132A      0.625238   133A      0.634569   134A      0.640754  
     135A      0.647826   136A      0.652570   137A      0.669776  
     138A      0.683652   139A      0.687204   140A      0.704186  
     141A      0.710108   142A      0.712920   143A      0.724554  
     144A      0.733237   145A      0.739578   146A      0.750680  
     147A      0.757036   148A      0.764427   149A      0.774930  
     150A      0.783551   151A      0.786543   152A      0.800339  
     153A      0.808519   154A      0.814752   155A      0.827538  
     156A      0.835323   157A      0.839184   158A      0.846534  
     159A      0.849613   160A      0.853926   161A      0.860449  
     162A      0.868039   163A      0.870248   164A      0.874551  
     165A      0.880656   166A      0.882341   167A      0.891642  
     168A      0.894171   169A      0.899148   170A      0.902178  
     171A      0.903333   172A      0.913271   173A      0.915972  
     174A      0.925714   175A      0.926346   176A      0.931959  
     177A      0.944491   178A      0.945455   179A      0.952366  
     180A      0.960482   181A      0.963321   182A      0.974735  
     183A      0.984048   184A      0.985364   185A      0.993995  
     186A      0.997604   187A      1.005213   188A      1.016554  
     189A      1.020519   190A      1.023620   191A      1.027619  
     192A      1.036632   193A      1.038289   194A      1.046949  
     195A      1.059027   196A      1.061713   197A      1.064755  
     198A      1.072701   199A      1.077843   200A      1.083500  
     201A      1.085982   202A      1.093820   203A      1.095816  
     204A      1.103122   205A      1.108561   206A      1.113247  
     207A      1.116658   208A      1.119643   209A      1.129167  
     210A      1.135167   211A      1.141179   212A      1.143591  
     213A      1.149052   214A      1.151508   215A      1.153430  
     216A      1.161104   217A      1.164372   218A      1.167743  
     219A      1.171759   220A      1.176791   221A      1.180328  
     222A      1.187739   223A      1.195232   224A      1.197367  
     225A      1.203433   226A      1.206876   227A      1.213915  
     228A      1.220832   229A      1.228094   230A      1.231900  
     231A      1.236586   232A      1.247694   233A      1.251779  
     234A      1.255053   235A      1.258032   236A      1.262845  
     237A      1.267829   238A      1.272750   239A      1.293647  
     240A      1.299359   241A      1.304879   242A      1.307267  
     243A      1.312789   244A      1.314869   245A      1.326624  
     246A      1.328335   247A      1.338290   248A      1.346314  
     249A      1.351224   250A      1.367635   251A      1.368636  
     252A      1.377438   253A      1.380230   254A      1.385171  
     255A      1.392895   256A      1.401270   257A      1.409351  
     258A      1.413172   259A      1.415737   260A      1.426094  
     261A      1.435781   262A      1.441627   263A      1.452313  
     264A      1.453408   265A      1.459955   266A      1.469551  
     267A      1.479237   268A      1.486403   269A      1.490940  
     270A      1.496052   271A      1.500920   272A      1.514612  
     273A      1.516744   274A      1.528152   275A      1.532235  
     276A      1.547218   277A      1.549330   278A      1.561433  
     279A      1.575883   280A      1.581134   281A      1.587127  
     282A      1.605837   283A      1.615936   284A      1.634599  
     285A      1.639678   286A      1.654914   287A      1.660382  
     288A      1.667262   289A      1.672442   290A      1.678782  
     291A      1.692528   292A      1.700869   293A      1.705767  
     294A      1.719869   295A      1.725178   296A      1.741008  
     297A      1.748791   298A      1.753657   299A      1.756631  
     300A      1.766619   301A      1.779196   302A      1.790098  
     303A      1.796829   304A      1.801392   305A      1.807448  
     306A      1.818222   307A      1.836553   308A      1.836967  
     309A      1.851979   310A      1.857904   311A      1.870294  
     312A      1.880131   313A      1.885896   314A      1.899106  
     315A      1.905232   316A      1.920784   317A      1.928884  
     318A      1.937765   319A      1.945188   320A      1.946810  
     321A      1.977994   322A      1.985922   323A      1.991962  
     324A      2.003944   325A      2.013292   326A      2.025331  
     327A      2.043313   328A      2.051241   329A      2.062669  
     330A      2.079993   331A      2.084298   332A      2.092575  
     333A      2.100976   334A      2.117468   335A      2.128187  
     336A      2.140200   337A      2.161798   338A      2.183693  
     339A      2.202095   340A      2.208886   341A      2.223229  
     342A      2.230276   343A      2.239493   344A      2.268030  
     345A      2.279455   346A      2.285064   347A      2.296926  
     348A      2.325260   349A      2.354910   350A      2.394788  
     351A      2.433138   352A      2.469315   353A      2.471753  
     354A      2.480223   355A      2.485791   356A      2.490831  
     357A      2.507483   358A      2.513485   359A      2.520662  
     360A      2.534874   361A      2.541685   362A      2.548007  
     363A      2.564669   364A      2.566128   365A      2.575272  
     366A      2.580689   367A      2.590222   368A      2.598073  
     369A      2.606361   370A      2.616446   371A      2.623637  
     372A      2.628047   373A      2.632667   374A      2.637204  
     375A      2.639602   376A      2.649285   377A      2.656390  
     378A      2.658339   379A      2.671294   380A      2.674059  
     381A      2.682449   382A      2.695140   383A      2.702104  
     384A      2.710117   385A      2.718819   386A      2.725479  
     387A      2.729176   388A      2.739729   389A      2.750618  
     390A      2.758529   391A      2.768114   392A      2.771972  
     393A      2.780116   394A      2.787115   395A      2.807991  
     396A      2.815716   397A      2.820838   398A      2.836038  
     399A      2.838554   400A      2.855645   401A      2.872056  
     402A      2.880123   403A      2.882578   404A      2.898597  
     405A      2.906000   406A      2.922100   407A      2.927840  
     408A      2.930982   409A      2.939381   410A      2.942657  
     411A      2.956412   412A      2.963350   413A      2.982385  
     414A      2.986932   415A      2.994520   416A      3.008209  
     417A      3.010366   418A      3.027820   419A      3.036058  
     420A      3.046370   421A      3.053276   422A      3.058136  
     423A      3.069272   424A      3.077773   425A      3.092903  
     426A      3.097519   427A      3.111979   428A      3.133790  
     429A      3.145014   430A      3.151187   431A      3.164201  
     432A      3.169210   433A      3.182082   434A      3.200663  
     435A      3.220106   436A      3.225412   437A      3.246238  
     438A      3.253351   439A      3.256739   440A      3.280349  
     441A      3.308850   442A      3.339614   443A      3.387125  
     444A      3.413367   445A      3.479578   446A      3.498493  
     447A      3.595493   448A      3.631207   449A      3.669661  
     450A      3.700176   451A      3.750512   452A      3.784261  
     453A      3.843717   454A      3.865592   455A      3.870871  
     456A      3.896702   457A      3.922970   458A      3.941667  
     459A      3.956807   460A      3.974540   461A      4.005818  
     462A      4.026658   463A      4.035658   464A      4.097310  
     465A      4.123638   466A      4.170091   467A      4.182566  
     468A      4.194254   469A      4.208872   470A      4.229461  
     471A      4.241561   472A      4.255433   473A      4.269135  
     474A      4.302564   475A      4.315445   476A      4.335987  
     477A      4.370396   478A      4.374249   479A      4.382529  
     480A      4.403394   481A      4.416048   482A      4.419738  
     483A      4.433318   484A      4.441219   485A      4.450533  
     486A      4.456395   487A      4.465890   488A      4.472317  
     489A      4.478871   490A      4.485316   491A      4.489969  
     492A      4.496569   493A      4.504555   494A      4.509773  
     495A      4.515550   496A      4.531525   497A      4.541328  
     498A      4.545224   499A      4.554530   500A      4.556414  
     501A      4.561389   502A      4.564122   503A      4.574538  
     504A      4.582272   505A      4.584634   506A      4.594582  
     507A      4.598972   508A      4.608476   509A      4.617993  
     510A      4.621218   511A      4.627507   512A      4.629718  
     513A      4.634512   514A      4.639361   515A      4.644911  
     516A      4.653146   517A      4.669245   518A      4.671532  
     519A      4.689641   520A      4.707076   521A      4.711779  
     522A      4.742059   523A      4.768074   524A      4.778288  
     525A      4.788465   526A      4.791887   527A      4.798224  
     528A      4.827568   529A      4.872759   530A      4.876996  
     531A      4.883932   532A      4.917561   533A      4.926344  
     534A      4.941183   535A      4.954997   536A      4.964475  
     537A      4.981771   538A      5.007400   539A      5.032774  
     540A      5.063349   541A      5.074921   542A      5.076178  
     543A      5.100884   544A      5.131206   545A      5.159154  
     546A      5.182714   547A      5.286223   548A      5.302531  
     549A      5.333028   550A      5.341321   551A      5.347528  
     552A      5.362934   553A      5.371235   554A      5.386401  
     555A      5.400648   556A      5.403529   557A      5.409273  
     558A      5.440390   559A      5.445451   560A      5.461738  
     561A      5.465586   562A      5.505257   563A      5.516614  
     564A      5.536337   565A      5.541991   566A      5.553982  
     567A      5.559299   568A      5.581329   569A      5.606442  
     570A      5.611452   571A      5.650276   572A      5.672199  
     573A      5.676767   574A      5.681353   575A      5.689782  
     576A      5.700526   577A      5.723071   578A      5.733009  
     579A      5.770193   580A      5.781074   581A      5.825707  
     582A      5.845677   583A      5.927942   584A      5.987786  
     585A      6.009483   586A      6.011822   587A      6.063245  
     588A      6.165707   589A      6.191743   590A      6.315995  
     591A      6.336886   592A      6.360580   593A      6.437208  
     594A      6.487472   595A      6.501448   596A      6.707426  
     597A      6.721642   598A      6.734877   599A      6.743639  
     600A      6.747615   601A      6.764285   602A      6.781675  
     603A      6.897780   604A      6.912102   605A      6.938076  
     606A      6.947129   607A      6.965314   608A      6.973224  
     609A      7.008158   610A      7.011715   611A      7.021785  
     612A      7.034830   613A      7.066031   614A      7.119956  
     615A      7.169061   616A      7.180831   617A      7.286331  
     618A      7.327610   619A      7.332315   620A      7.354152  
     621A      7.358618   622A      7.394669   623A      7.397979  
     624A      7.415744   625A      7.417201   626A      7.424056  
     627A      7.434254   628A      7.440279   629A      7.452307  
     630A      7.467462   631A      7.478551   632A      7.484269  
     633A      7.490228   634A      7.494636   635A      7.501266  
     636A      7.508172   637A      7.511056   638A      7.513507  
     639A      7.523707   640A      7.526764   641A      7.538020  
     642A      7.550469   643A      7.552604   644A      7.565066  
     645A      7.580380   646A      7.596959   647A      7.604971  
     648A      7.613151   649A      7.627007   650A      7.642160  
     651A      7.664328   652A      7.676980   653A      7.683576  
     654A      7.697494   655A      7.715181   656A      7.735176  
     657A      7.753205   658A      7.814742   659A      7.817027  
     660A      7.863553   661A      7.883094   662A      7.921423  
     663A      7.947829   664A      7.965310   665A      7.977396  
     666A      8.050939   667A      8.059719   668A      8.091736  
     669A      8.111100   670A      8.124653   671A      8.143153  
     672A      8.172452   673A      8.176222   674A      8.189790  
     675A      8.215241   676A      8.225261   677A      8.258462  
     678A      8.295239   679A      8.379985   680A      8.473208  
     681A      8.919728   682A      8.954596   683A      8.959988  
     684A      8.977408   685A      9.000270   686A      9.096068  
     687A      9.136956   688A     16.441323   689A     16.586122  
     690A     16.855402   691A     17.086479   692A     17.412398  
     693A     17.784672   694A     18.167546  

    Final Occupation by Irrep:
              A 
    DOCC [    44 ]
    NA   [    44 ]
    NB   [    44 ]

  @DF-RHF Final Energy:  -992.05162779222064

   => Energetics <=

    Nuclear Repulsion Energy =            506.8410707315826471
    One-Electron Energy =               -2394.9977207415927296
    Two-Electron Energy =                 896.1050222177893829
    Total Energy =                       -992.0516277922206427

Computation Completed


Properties will be evaluated at   0.000000,   0.000000,   0.000000 [a0]

Properties computed using the SCF density matrix


 Multipole Moments:

 ------------------------------------------------------------------------------------
     Multipole            Electronic (a.u.)      Nuclear  (a.u.)        Total (a.u.)
 ------------------------------------------------------------------------------------

 L = 1.  Multiply by 2.5417464519 to convert [e a0] to [Debye]
 Dipole X            :         25.2228875          -24.8912439            0.3316437
 Dipole Y            :         19.0027147          -19.1846414           -0.1819267
 Dipole Z            :        -10.6597347           11.4199476            0.7602129
 Magnitude           :                                                    0.8491222

 ------------------------------------------------------------------------------------

*** tstop() called on moses-razer at Sat Jan  6 23:24:48 2024
Module time:
	user time   =     134.46 seconds =       2.24 minutes
	system time =       4.29 seconds =       0.07 minutes
	total time  =         26 seconds =       0.43 minutes
Total time:
	user time   =     429.46 seconds =       7.16 minutes
	system time =      15.24 seconds =       0.25 minutes
	total time  =         85 seconds =       1.42 minutes

*** tstart() called on moses-razer
*** at Sat Jan  6 23:24:48 2024


  //>>>>>>>>>>>>>>>>>>>>>>>>>>>>>>>>>>>//
  //               DFMP2               //
  //<<<<<<<<<<<<<<<<<<<<<<<<<<<<<<<<<<<//

   => Loading Basis Set <=

    Name: (AUG-CC-PVTZ AUX)
    Role: RIFIT
    Keyword: DF_BASIS_MP2
    atoms 1                                          entry CL         line   742 file /home/kchung25/anaconda3/envs/p415env/share/psi4/basis/aug-cc-pvtz-ri.gbs 
    atoms 2, 5, 8, 11, 14, 17, 20                    entry O          line   264 file /home/kchung25/anaconda3/envs/p415env/share/psi4/basis/aug-cc-pvtz-ri.gbs 
    atoms 3-4, 6-7, 9-10, 12-13, 15-16, 18-19, 21-22 entry H          line    30 file /home/kchung25/anaconda3/envs/p415env/share/psi4/basis/aug-cc-pvtz-ri.gbs 

	 --------------------------------------------------------
	                          DF-MP2                         
	      2nd-Order Density-Fitted Moller-Plesset Theory     
	              RMP2 Wavefunction,   6 Threads             
	                                                         
	        Rob Parrish, Justin Turney, Andy Simmonett,      
	           Ed Hohenstein, and C. David Sherrill          
	 --------------------------------------------------------

   => Auxiliary Basis Set <=

  Basis Set: (AUG-CC-PVTZ AUX)
    Blend: AUG-CC-PVTZ-RI
    Number of shells: 429
    Number of basis functions: 1533
    Number of Cartesian functions: 1913
    Spherical Harmonics?: true
    Max angular momentum: 4

	 --------------------------------------------------------
	                 NBF =   694, NAUX =  1533
	 --------------------------------------------------------
	   CLASS    FOCC     OCC    AOCC    AVIR     VIR    FVIR
	   PAIRS       0      44      44     650     650       0
	 --------------------------------------------------------

	-----------------------------------------------------------
	 ==================> DF-MP2 Energies <==================== 
	-----------------------------------------------------------
	 Reference Energy          =    -992.0516277922206427 [Eh]
	 Singles Energy            =      -0.0000000000000000 [Eh]
	 Same-Spin Energy          =      -0.5563076411373628 [Eh]
	 Opposite-Spin Energy      =      -1.7052097983149730 [Eh]
	 Correlation Energy        =      -2.2615174394523359 [Eh]
	 Total Energy              =    -994.3131452316729337 [Eh]
	-----------------------------------------------------------
	 ================> DF-SCS-MP2 Energies <================== 
	-----------------------------------------------------------
	 SCS Same-Spin Scale       =       0.3333333333333333 [-]
	 SCS Opposite-Spin Scale   =       1.2000000000000000 [-]
	 SCS Same-Spin Energy      =      -0.1854358803791209 [Eh]
	 SCS Opposite-Spin Energy  =      -2.0462517579779673 [Eh]
	 SCS Correlation Energy    =      -2.2316876383570881 [Eh]
	 SCS Total Energy          =    -994.2833154305777725 [Eh]
	-----------------------------------------------------------


*** tstop() called on moses-razer at Sat Jan  6 23:25:03 2024
Module time:
	user time   =      74.19 seconds =       1.24 minutes
	system time =       2.54 seconds =       0.04 minutes
	total time  =         15 seconds =       0.25 minutes
Total time:
	user time   =     503.65 seconds =       8.39 minutes
	system time =      17.78 seconds =       0.30 minutes
	total time  =        100 seconds =       1.67 minutes

    Psi4 stopped on: Saturday, 06 January 2024 11:25PM
    Psi4 wall time for execution: 0:00:40.63


  //>>>>>>>>>>>>>>>>>>>>>>>>>>>>>>>>>>>//
  //          ManyBody Results         //
  //<<<<<<<<<<<<<<<<<<<<<<<<<<<<<<<<<<<//


   ==> N-Body: Counterpoise Corrected (CP) energies <==

        n-Body     Total Energy            Interaction Energy                          N-body Contribution to Interaction Energy
                   [Eh]                    [Eh]                  [kcal/mol]            [Eh]                  [kcal/mol]
             1  N/A                         0.000000000000        0.000000000000        0.000000000000        0.000000000000
  FULL/RTN   2  N/A                        -0.099227840512      -62.266409983883       -0.099227840512      -62.266409983883


    Psi4 stopped on: Saturday, 06 January 2024 11:25PM
    Psi4 wall time for execution: 0:01:42.21

*** Psi4 exiting successfully. Buy a developer a beer!
