
    -----------------------------------------------------------------------
          Psi4: An Open-Source Ab Initio Electronic Structure Package
                               Psi4 1.9 release

                         Git: Rev {} zzzzzzz 


    D. G. A. Smith, L. A. Burns, A. C. Simmonett, R. M. Parrish,
    M. C. Schieber, R. Galvelis, P. Kraus, H. Kruse, R. Di Remigio,
    A. Alenaizan, A. M. James, S. Lehtola, J. P. Misiewicz, M. Scheurer,
    R. A. Shaw, J. B. Schriber, Y. Xie, Z. L. Glick, D. A. Sirianni,
    J. S. O'Brien, J. M. Waldrop, A. Kumar, E. G. Hohenstein,
    B. P. Pritchard, B. R. Brooks, H. F. Schaefer III, A. Yu. Sokolov,
    K. Patkowski, A. E. DePrince III, U. Bozkaya, R. A. King,
    F. A. Evangelista, J. M. Turney, T. D. Crawford, C. D. Sherrill,
    J. Chem. Phys. 152(18) 184108 (2020). https://doi.org/10.1063/5.0006002

                            Additional Code Authors
    E. T. Seidl, C. L. Janssen, E. F. Valeev, M. L. Leininger,
    J. F. Gonthier, R. M. Richard, H. R. McAlexander, M. Saitow, X. Wang,
    P. Verma, M. H. Lechner, A. Jiang, S. Behnle, A. G. Heide,
    M. F. Herbst, and D. L. Poole

             Previous Authors, Complete List of Code Contributors,
                       and Citations for Specific Modules
    https://github.com/psi4/psi4/blob/master/codemeta.json
    https://github.com/psi4/psi4/graphs/contributors
    http://psicode.org/psi4manual/master/introduction.html#citing-psifour

    -----------------------------------------------------------------------


    Psi4 started on: Saturday, 06 January 2024 11:46PM

    Process ID: 560902
    Host:       moses-razer
    PSIDATADIR: /home/kchung25/anaconda3/envs/psi4_19/share/psi4
    Memory:     500.0 MiB
    Threads:    6
    
  ==> Input File <==

--------------------------------------------------------------------------
MEMORY 60 GB

molecule dimer {
-1 1
Cl     0.000000     0.000000     0.000000
--
0 1
O     -2.041021    -2.196464    -1.333745
H     -1.300794    -2.029781    -0.728894
H     -2.698392    -2.708355    -0.840419
O      0.419223     0.084825    -3.085711
H     -0.280779     0.277678    -3.790691
H      0.077234     0.159042    -2.208543
O      3.090762    -0.717603    -0.627277
H      3.080613    -1.289849    -1.410804
H      2.118014    -0.454394    -0.575587
O      0.777671     3.142833     0.471574
H      1.633570     3.312266     0.051366
H      0.542632     2.198669     0.371825

units ang
no_reorient
no_com
symmetry c1
}

set {
basis        aug-cc-pVTZ
scf_type     df
}

energy("mp2", bsse_type="cp")
--------------------------------------------------------------------------

  Memory set to  55.879 GiB by Python driver.

Scratch directory: /scratch/

  //>>>>>>>>>>>>>>>>>>>>>>>>>>>>>>>>>>>>>//
  // ManyBody Setup: N-Body Levels [1, 2]//
  //<<<<<<<<<<<<<<<<<<<<<<<<<<<<<<<<<<<<<//

        Number of 1-body computations:     2
        Number of 2-body computations:     1

    -----------------------------------------------------------------------
          Psi4: An Open-Source Ab Initio Electronic Structure Package
                               Psi4 1.9 release

                         Git: Rev {} zzzzzzz 


    D. G. A. Smith, L. A. Burns, A. C. Simmonett, R. M. Parrish,
    M. C. Schieber, R. Galvelis, P. Kraus, H. Kruse, R. Di Remigio,
    A. Alenaizan, A. M. James, S. Lehtola, J. P. Misiewicz, M. Scheurer,
    R. A. Shaw, J. B. Schriber, Y. Xie, Z. L. Glick, D. A. Sirianni,
    J. S. O'Brien, J. M. Waldrop, A. Kumar, E. G. Hohenstein,
    B. P. Pritchard, B. R. Brooks, H. F. Schaefer III, A. Yu. Sokolov,
    K. Patkowski, A. E. DePrince III, U. Bozkaya, R. A. King,
    F. A. Evangelista, J. M. Turney, T. D. Crawford, C. D. Sherrill,
    J. Chem. Phys. 152(18) 184108 (2020). https://doi.org/10.1063/5.0006002

                            Additional Code Authors
    E. T. Seidl, C. L. Janssen, E. F. Valeev, M. L. Leininger,
    J. F. Gonthier, R. M. Richard, H. R. McAlexander, M. Saitow, X. Wang,
    P. Verma, M. H. Lechner, A. Jiang, S. Behnle, A. G. Heide,
    M. F. Herbst, and D. L. Poole

             Previous Authors, Complete List of Code Contributors,
                       and Citations for Specific Modules
    https://github.com/psi4/psi4/blob/master/codemeta.json
    https://github.com/psi4/psi4/graphs/contributors
    http://psicode.org/psi4manual/master/introduction.html#citing-psifour

    -----------------------------------------------------------------------


    Psi4 started on: Saturday, 06 January 2024 11:46PM

    Process ID: 560902
    Host:       moses-razer
    PSIDATADIR: /home/kchung25/anaconda3/envs/psi4_19/share/psi4
    Memory:     55.9 GiB
    Threads:    6
    
  ==> Input QCSchema <==

--------------------------------------------------------------------------
{'driver': 'energy',
 'extras': {'psiapi': True, 'wfn_qcvars_only': True},
 'id': None,
 'keywords': {'SCF_TYPE': 'DF', 'function_kwargs': {}},
 'model': {'basis': 'aug-cc-pvtz', 'method': 'mp2'},
 'molecule': {'atom_labels': ['', '', '', '', '', '', '', '', '', '', '', '', ''],
              'atomic_numbers': [17, 8, 1, 1, 8, 1, 1, 8, 1, 1, 8, 1, 1],
              'extras': {},
              'fix_com': True,
              'fix_orientation': True,
              'fix_symmetry': 'c1',
              'fragment_charges': [0.0, 0.0],
              'fragment_multiplicities': [1, 1],
              'fragments': [[0], [1, 2, 3, 4, 5, 6, 7, 8, 9, 10, 11, 12]],
              'geometry': [0.0, 0.0, 0.0, -3.8569707063080623, -4.150715404427603, -2.520412771198751,
                           -2.45814440563879, -3.8357301846579155, -1.3774100344894582, -5.0992218591264,
                           -5.118049200514336, -1.5881617406311426, 0.792216655492807, 0.16029601859196027,
                           -5.8311486923126, -0.5305954117799235, 0.5247353710648788, -7.16336781623786,
                           0.1459511075736099, 0.3005458224450639, -4.173541406297009, 5.840693698972287,
                           -1.3560731368069139, -1.18538173479881, 5.821514868525016, -2.4374613531956544,
                           -2.6660331767004055, 4.002466389885437, -0.8586802130512844, -1.0877017913738949,
                           1.4695852057109147, 5.939093628051002, 0.8911457078866498, 3.0869999067641443,
                           6.259275594665699, 0.09706767216026681, 1.0254258669094323, 4.154882250534237,
                           0.7026474165983569],
              'mass_numbers': [35, 16, 1, 1, 16, 1, 1, 16, 1, 1, 16, 1, 1],
              'masses': [34.968852682, 15.99491461957, 1.00782503223, 1.00782503223, 15.99491461957, 1.00782503223,
                         1.00782503223, 15.99491461957, 1.00782503223, 1.00782503223, 15.99491461957, 1.00782503223,
                         1.00782503223],
              'molecular_charge': 0.0,
              'molecular_multiplicity': 1,
              'name': 'dimer',
              'provenance': {'creator': 'QCElemental',
                             'routine': 'qcelemental.molparse.from_string',
                             'version': '0.27.1'},
              'real': [False, True, True, True, True, True, True, True, True, True, True, True, True],
              'schema_name': 'qcschema_molecule',
              'schema_version': 2,
              'symbols': ['Cl', 'O', 'H', 'H', 'O', 'H', 'H', 'O', 'H', 'H', 'O', 'H', 'H'],
              'validated': True},
 'protocols': {'stdout': True},
 'provenance': {'creator': 'QCElemental', 'routine': 'qcelemental.models.results', 'version': '0.27.1'},
 'schema_name': 'qcschema_input',
 'schema_version': 1}
--------------------------------------------------------------------------

Scratch directory: /scratch/
   => Libint2 <=

    Primary   basis highest AM E, G, H:  5, 4, 3
    Auxiliary basis highest AM E, G, H:  6, 5, 4
    Onebody   basis highest AM E, G, H:  6, 5, 4
    Solid Harmonics ordering:            gaussian

*** tstart() called on moses-razer
*** at Sat Jan  6 23:46:02 2024

   => Loading Basis Set <=

    Name: AUG-CC-PVTZ
    Role: ORBITAL
    Keyword: BASIS
    atoms 1                     entry CL         line   988 file /home/kchung25/anaconda3/envs/p415env/share/psi4/basis/aug-cc-pvtz.gbs 
    atoms 2, 5, 8, 11           entry O          line   331 file /home/kchung25/anaconda3/envs/p415env/share/psi4/basis/aug-cc-pvtz.gbs 
    atoms 3-4, 6-7, 9-10, 12-13 entry H          line    40 file /home/kchung25/anaconda3/envs/p415env/share/psi4/basis/aug-cc-pvtz.gbs 


         ---------------------------------------------------------
                                   SCF
               by Justin Turney, Rob Parrish, Andy Simmonett
                          and Daniel G. A. Smith
                              RHF Reference
                        6 Threads,  57220 MiB Core
         ---------------------------------------------------------

  ==> Geometry <==

    Molecular point group: c1
    Full point group: C1

    Geometry (in Bohr), charge = 0, multiplicity = 1:

       Center              X                  Y                   Z               Mass       
    ------------   -----------------  -----------------  -----------------  -----------------
      Gh(CL)          0.000000000000     0.000000000000     0.000000000000    34.968852682000
         O           -3.856970706308    -4.150715404428    -2.520412771199    15.994914619570
         H           -2.458144405639    -3.835730184658    -1.377410034489     1.007825032230
         H           -5.099221859126    -5.118049200514    -1.588161740631     1.007825032230
         O            0.792216655493     0.160296018592    -5.831148692313    15.994914619570
         H           -0.530595411780     0.524735371065    -7.163367816238     1.007825032230
         H            0.145951107574     0.300545822445    -4.173541406297     1.007825032230
         O            5.840693698972    -1.356073136807    -1.185381734799    15.994914619570
         H            5.821514868525    -2.437461353196    -2.666033176700     1.007825032230
         H            4.002466389885    -0.858680213051    -1.087701791374     1.007825032230
         O            1.469585205711     5.939093628051     0.891145707887    15.994914619570
         H            3.086999906764     6.259275594666     0.097067672160     1.007825032230
         H            1.025425866909     4.154882250534     0.702647416598     1.007825032230

  Running in c1 symmetry.

  Rotational constants: A =      0.04557  B =      0.03329  C =      0.02749 [cm^-1]
  Rotational constants: A =   1366.11832  B =    997.88558  C =    824.12703 [MHz]
  Nuclear repulsion =  106.157718715534216

  Charge       = 0
  Multiplicity = 1
  Electrons    = 40
  Nalpha       = 20
  Nbeta        = 20

  ==> Algorithm <==

  SCF Algorithm Type is DF.
  DIIS enabled.
  MOM disabled.
  Fractional occupation disabled.
  Guess Type is SAD.
  Energy threshold   = 1.00e-08
  Density threshold  = 1.00e-08
  Integral threshold = 1.00e-12

  ==> Primary Basis <==

  Basis Set: AUG-CC-PVTZ
    Blend: AUG-CC-PVTZ
    Number of shells: 144
    Number of basis functions: 418
    Number of Cartesian functions: 479
    Spherical Harmonics?: true
    Max angular momentum: 3

   => Loading Basis Set <=

    Name: (AUG-CC-PVTZ AUX)
    Role: JKFIT
    Keyword: DF_BASIS_SCF
    atoms 1                     entry CL         line   816 file /home/kchung25/anaconda3/envs/p415env/share/psi4/basis/aug-cc-pvtz-jkfit.gbs 
    atoms 2, 5, 8, 11           entry O          line   286 file /home/kchung25/anaconda3/envs/p415env/share/psi4/basis/aug-cc-pvtz-jkfit.gbs 
    atoms 3-4, 6-7, 9-10, 12-13 entry H          line    70 file /home/kchung25/anaconda3/envs/p415env/share/psi4/basis/aug-cc-pvtz-jkfit.gbs 

  ==> Integral Setup <==

  DFHelper Memory: AOs need 1.116 GiB; user supplied 41.910 GiB. 
  Using in-core AOs.

  ==> MemDFJK: Density-Fitted J/K Matrices <==

    J tasked:                   Yes
    K tasked:                   Yes
    wK tasked:                   No
    OpenMP threads:               6
    Memory [MiB]:             42915
    Algorithm:                 Core
    Schwarz Cutoff:           1E-12
    Mask sparsity (%):      11.8610
    Fitting Condition:        1E-10

   => Auxiliary Basis Set <=

  Basis Set: (AUG-CC-PVTZ AUX)
    Blend: AUG-CC-PVTZ-JKFIT
    Number of shells: 274
    Number of basis functions: 930
    Number of Cartesian functions: 1144
    Spherical Harmonics?: true
    Max angular momentum: 4

  Minimum eigenvalue in the overlap matrix is 1.7898989517E-04.
  Reciprocal condition number of the overlap matrix is 1.6528489044E-05.
    Using symmetric orthogonalization.

  ==> Pre-Iterations <==

  SCF Guess: Superposition of Atomic Densities via on-the-fly atomic UHF (no occupation information).

   -------------------------
    Irrep   Nso     Nmo    
   -------------------------
     A        418     418 
   -------------------------
    Total     418     418
   -------------------------

  ==> Iterations <==

                           Total Energy        Delta E     RMS |[F,P]|

   @DF-RHF iter SAD:  -301.83796463768783   -3.01838e+02   0.00000e+00 
   @DF-RHF iter   1:  -303.89053129218752   -2.05257e+00   2.22443e-03 ADIIS/DIIS
   @DF-RHF iter   2:  -304.09773204241469   -2.07201e-01   1.53477e-03 ADIIS/DIIS
   @DF-RHF iter   3:  -304.22541158635255   -1.27680e-01   1.07198e-04 ADIIS/DIIS
   @DF-RHF iter   4:  -304.22714333825519   -1.73175e-03   2.73830e-05 DIIS
   @DF-RHF iter   5:  -304.22726172575011   -1.18387e-04   8.09017e-06 DIIS
   @DF-RHF iter   6:  -304.22727250747334   -1.07817e-05   3.74882e-06 DIIS
   @DF-RHF iter   7:  -304.22727411636885   -1.60890e-06   8.05392e-07 DIIS
   @DF-RHF iter   8:  -304.22727428122397   -1.64855e-07   1.42189e-07 DIIS
   @DF-RHF iter   9:  -304.22727428600251   -4.77854e-09   3.06017e-08 DIIS
   @DF-RHF iter  10:  -304.22727428615133   -1.48816e-10   1.30164e-08 DIIS
   @DF-RHF iter  11:  -304.22727428617105   -1.97247e-11   4.32036e-09 DIIS
  Energy and wave function converged.


  ==> Post-Iterations <==

    Orbital Energies [Eh]
    ---------------------

    Doubly Occupied:                                                      

       1A    -20.583175     2A    -20.577870     3A    -20.577828  
       4A    -20.571647     5A     -1.360838     6A     -1.350437  
       7A     -1.345895     8A     -1.343634     9A     -0.734011  
      10A     -0.730298    11A     -0.722634    12A     -0.697092  
      13A     -0.593247    14A     -0.590026    15A     -0.576853  
      16A     -0.575669    17A     -0.523667    18A     -0.517753  
      19A     -0.512259    20A     -0.511278  

    Virtual:                                                              

      21A      0.013128    22A      0.033225    23A      0.039057  
      24A      0.044825    25A      0.049177    26A      0.065004  
      27A      0.072977    28A      0.076441    29A      0.105133  
      30A      0.110583    31A      0.126267    32A      0.129713  
      33A      0.144900    34A      0.147223    35A      0.155610  
      36A      0.156741    37A      0.165663    38A      0.175653  
      39A      0.179818    40A      0.186116    41A      0.191806  
      42A      0.194946    43A      0.206812    44A      0.210873  
      45A      0.221230    46A      0.227047    47A      0.235153  
      48A      0.237801    49A      0.245215    50A      0.261398  
      51A      0.265924    52A      0.279615    53A      0.288460  
      54A      0.293544    55A      0.300177    56A      0.302372  
      57A      0.309807    58A      0.316624    59A      0.322572  
      60A      0.325575    61A      0.337079    62A      0.338961  
      63A      0.361704    64A      0.374273    65A      0.375745  
      66A      0.390618    67A      0.392901    68A      0.409196  
      69A      0.428842    70A      0.434167    71A      0.439586  
      72A      0.444407    73A      0.454623    74A      0.461618  
      75A      0.469299    76A      0.471549    77A      0.484103  
      78A      0.505398    79A      0.515759    80A      0.534282  
      81A      0.569019    82A      0.572991    83A      0.582797  
      84A      0.603342    85A      0.612180    86A      0.625160  
      87A      0.646588    88A      0.653593    89A      0.660295  
      90A      0.674642    91A      0.685249    92A      0.699735  
      93A      0.706137    94A      0.716036    95A      0.719167  
      96A      0.728905    97A      0.729564    98A      0.732239  
      99A      0.737216   100A      0.743999   101A      0.748807  
     102A      0.755590   103A      0.764033   104A      0.775083  
     105A      0.788714   106A      0.797080   107A      0.804810  
     108A      0.819033   109A      0.831883   110A      0.839477  
     111A      0.851914   112A      0.867689   113A      0.879838  
     114A      0.890835   115A      0.911401   116A      0.915580  
     117A      0.922212   118A      0.925343   119A      0.928569  
     120A      0.940676   121A      0.943169   122A      0.946655  
     123A      0.949983   124A      0.959739   125A      0.972213  
     126A      0.975105   127A      0.981685   128A      0.988868  
     129A      0.996718   130A      1.002008   131A      1.012660  
     132A      1.022221   133A      1.029170   134A      1.033245  
     135A      1.036421   136A      1.041309   137A      1.052422  
     138A      1.056113   139A      1.066266   140A      1.073809  
     141A      1.086222   142A      1.101487   143A      1.106742  
     144A      1.128796   145A      1.143679   146A      1.151454  
     147A      1.163976   148A      1.172408   149A      1.190722  
     150A      1.194225   151A      1.202224   152A      1.214969  
     153A      1.233126   154A      1.243171   155A      1.264517  
     156A      1.267275   157A      1.285011   158A      1.286354  
     159A      1.296761   160A      1.306779   161A      1.318179  
     162A      1.344542   163A      1.364406   164A      1.395669  
     165A      1.398023   166A      1.408103   167A      1.436955  
     168A      1.474944   169A      1.481193   170A      1.501714  
     171A      1.528156   172A      1.530331   173A      1.544521  
     174A      1.556830   175A      1.567866   176A      1.574079  
     177A      1.581420   178A      1.583306   179A      1.603483  
     180A      1.617044   181A      1.619200   182A      1.642809  
     183A      1.654735   184A      1.671538   185A      1.681256  
     186A      1.685018   187A      1.708504   188A      1.728243  
     189A      1.733204   190A      1.752089   191A      1.771282  
     192A      1.794541   193A      1.811746   194A      1.825634  
     195A      1.852415   196A      1.860469   197A      1.869376  
     198A      1.900900   199A      1.935289   200A      1.953247  
     201A      1.981970   202A      2.003724   203A      2.012635  
     204A      2.023265   205A      2.039100   206A      2.057699  
     207A      2.140605   208A      2.156264   209A      2.228184  
     210A      2.243541   211A      2.286312   212A      2.294881  
     213A      2.307073   214A      2.322652   215A      2.362495  
     216A      2.368646   217A      2.391176   218A      2.396245  
     219A      2.403404   220A      2.423601   221A      2.434401  
     222A      2.440614   223A      2.445236   224A      2.459588  
     225A      2.465581   226A      2.473947   227A      2.487967  
     228A      2.498234   229A      2.508180   230A      2.519415  
     231A      2.528154   232A      2.539116   233A      2.547608  
     234A      2.563403   235A      2.578747   236A      2.598122  
     237A      2.635872   238A      2.657516   239A      2.676829  
     240A      2.698824   241A      2.726576   242A      2.748368  
     243A      2.753935   244A      2.758128   245A      2.760949  
     246A      2.775040   247A      2.783712   248A      2.796590  
     249A      2.818386   250A      2.844116   251A      2.855633  
     252A      2.876362   253A      2.893496   254A      2.920819  
     255A      2.939835   256A      2.944503   257A      2.975253  
     258A      3.005343   259A      3.013264   260A      3.057649  
     261A      3.084831   262A      3.649133   263A      3.672790  
     264A      3.688860   265A      3.729475   266A      3.808332  
     267A      3.850558   268A      3.882396   269A      3.915955  
     270A      3.986858   271A      4.003634   272A      4.039213  
     273A      4.041391   274A      4.060827   275A      4.082786  
     276A      4.097191   277A      4.128843   278A      4.149525  
     279A      4.162464   280A      4.177390   281A      4.196036  
     282A      4.204748   283A      4.214874   284A      4.228434  
     285A      4.231529   286A      4.236762   287A      4.243843  
     288A      4.256083   289A      4.259234   290A      4.276487  
     291A      4.311037   292A      4.314650   293A      4.334698  
     294A      4.349293   295A      4.352547   296A      4.368678  
     297A      4.376744   298A      4.386301   299A      4.389099  
     300A      4.391860   301A      4.395875   302A      4.404760  
     303A      4.412933   304A      4.424187   305A      4.429332  
     306A      4.445706   307A      4.454351   308A      4.473999  
     309A      4.498804   310A      4.536550   311A      4.538931  
     312A      4.568668   313A      4.580914   314A      4.621231  
     315A      4.647629   316A      4.681926   317A      4.731675  
     318A      4.740730   319A      4.754031   320A      4.770094  
     321A      4.785440   322A      4.805571   323A      4.832998  
     324A      4.869816   325A      4.896844   326A      4.915582  
     327A      5.001086   328A      5.068461   329A      5.087518  
     330A      5.088640   331A      5.114788   332A      5.132094  
     333A      5.149969   334A      5.153981   335A      5.166066  
     336A      5.171486   337A      5.228512   338A      5.292797  
     339A      5.297984   340A      5.315978   341A      5.329287  
     342A      5.348864   343A      5.370753   344A      5.374382  
     345A      5.431664   346A      5.468841   347A      5.470051  
     348A      5.479203   349A      5.494519   350A      5.632187  
     351A      5.740626   352A      5.784382   353A      5.823240  
     354A      6.129518   355A      6.147062   356A      6.173340  
     357A      6.244111   358A      6.546471   359A      6.561828  
     360A      6.581588   361A      6.628655   362A      6.738915  
     363A      6.750555   364A      6.764624   365A      6.790731  
     366A      6.861664   367A      6.867567   368A      6.889924  
     369A      6.947472   370A      7.105496   371A      7.121860  
     372A      7.129772   373A      7.146364   374A      7.224989  
     375A      7.240118   376A      7.263371   377A      7.272417  
     378A      7.276546   379A      7.282510   380A      7.291872  
     381A      7.297217   382A      7.324304   383A      7.328455  
     384A      7.335047   385A      7.341257   386A      7.361276  
     387A      7.402512   388A      7.418802   389A      7.429743  
     390A      7.458235   391A      7.472345   392A      7.482790  
     393A      7.491125   394A      7.594160   395A      7.632567  
     396A      7.709828   397A      7.728606   398A      7.860667  
     399A      7.884441   400A      7.892038   401A      7.912505  
     402A      7.945815   403A      7.946795   404A      8.019456  
     405A      8.049273   406A      8.661996   407A      8.711886  
     408A      8.726644   409A      8.744903   410A     15.305811  
     411A     15.710283   412A     15.761098   413A     16.122064  
     414A     16.349380   415A     28.130268   416A     28.248134  
     417A     28.283484   418A    160.881403  

    Final Occupation by Irrep:
              A 
    DOCC [    20 ]
    NA   [    20 ]
    NB   [    20 ]

  @DF-RHF Final Energy:  -304.22727428617105

   => Energetics <=

    Nuclear Repulsion Energy =            106.1577187155342159
    One-Electron Energy =                -630.7777568122774028
    Two-Electron Energy =                 220.3927638105721485
    Total Energy =                       -304.2272742861710526

Computation Completed


Properties will be evaluated at   0.000000,   0.000000,   0.000000 [a0]

Properties computed using the SCF density matrix


 Multipole Moments:

 ------------------------------------------------------------------------------------
     Multipole            Electronic (a.u.)      Nuclear  (a.u.)        Total (a.u.)
 ------------------------------------------------------------------------------------

 L = 1.  Multiply by 2.5417464519 to convert [e a0] to [Debye]
 Dipole X            :        -40.8273022           39.9585953           -0.8687069
 Dipole Y            :         -4.5146798            3.7303269           -0.7843529
 Dipole Z            :         86.3629025          -86.4228808           -0.0599783
 Magnitude           :                                                    1.1719464

 ------------------------------------------------------------------------------------

*** tstop() called on moses-razer at Sat Jan  6 23:46:07 2024
Module time:
	user time   =      27.67 seconds =       0.46 minutes
	system time =       1.16 seconds =       0.02 minutes
	total time  =          5 seconds =       0.08 minutes
Total time:
	user time   =      27.67 seconds =       0.46 minutes
	system time =       1.16 seconds =       0.02 minutes
	total time  =          5 seconds =       0.08 minutes

*** tstart() called on moses-razer
*** at Sat Jan  6 23:46:07 2024


  //>>>>>>>>>>>>>>>>>>>>>>>>>>>>>>>>>>>//
  //               DFMP2               //
  //<<<<<<<<<<<<<<<<<<<<<<<<<<<<<<<<<<<//

   => Loading Basis Set <=

    Name: (AUG-CC-PVTZ AUX)
    Role: RIFIT
    Keyword: DF_BASIS_MP2
    atoms 1                     entry CL         line   742 file /home/kchung25/anaconda3/envs/p415env/share/psi4/basis/aug-cc-pvtz-ri.gbs 
    atoms 2, 5, 8, 11           entry O          line   264 file /home/kchung25/anaconda3/envs/p415env/share/psi4/basis/aug-cc-pvtz-ri.gbs 
    atoms 3-4, 6-7, 9-10, 12-13 entry H          line    30 file /home/kchung25/anaconda3/envs/p415env/share/psi4/basis/aug-cc-pvtz-ri.gbs 

	 --------------------------------------------------------
	                          DF-MP2                         
	      2nd-Order Density-Fitted Moller-Plesset Theory     
	              RMP2 Wavefunction,   6 Threads             
	                                                         
	        Rob Parrish, Justin Turney, Andy Simmonett,      
	           Ed Hohenstein, and C. David Sherrill          
	 --------------------------------------------------------

   => Auxiliary Basis Set <=

  Basis Set: (AUG-CC-PVTZ AUX)
    Blend: AUG-CC-PVTZ-RI
    Number of shells: 261
    Number of basis functions: 939
    Number of Cartesian functions: 1175
    Spherical Harmonics?: true
    Max angular momentum: 4

	 --------------------------------------------------------
	                 NBF =   418, NAUX =   939
	 --------------------------------------------------------
	   CLASS    FOCC     OCC    AOCC    AVIR     VIR    FVIR
	   PAIRS       0      20      20     398     398       0
	 --------------------------------------------------------

	-----------------------------------------------------------
	 ==================> DF-MP2 Energies <==================== 
	-----------------------------------------------------------
	 Reference Energy          =    -304.2272742861710526 [Eh]
	 Singles Energy            =      -0.0000000000000000 [Eh]
	 Same-Spin Energy          =      -0.2753724181196670 [Eh]
	 Opposite-Spin Energy      =      -0.8672108376722283 [Eh]
	 Correlation Energy        =      -1.1425832557918953 [Eh]
	 Total Energy              =    -305.3698575419629719 [Eh]
	-----------------------------------------------------------
	 ================> DF-SCS-MP2 Energies <================== 
	-----------------------------------------------------------
	 SCS Same-Spin Scale       =       0.3333333333333333 [-]
	 SCS Opposite-Spin Scale   =       1.2000000000000000 [-]
	 SCS Same-Spin Energy      =      -0.0917908060398890 [Eh]
	 SCS Opposite-Spin Energy  =      -1.0406530052066738 [Eh]
	 SCS Correlation Energy    =      -1.1324438112465627 [Eh]
	 SCS Total Energy          =    -305.3597180974176126 [Eh]
	-----------------------------------------------------------


*** tstop() called on moses-razer at Sat Jan  6 23:46:09 2024
Module time:
	user time   =      10.06 seconds =       0.17 minutes
	system time =       0.60 seconds =       0.01 minutes
	total time  =          2 seconds =       0.03 minutes
Total time:
	user time   =      37.73 seconds =       0.63 minutes
	system time =       1.76 seconds =       0.03 minutes
	total time  =          7 seconds =       0.12 minutes

    Psi4 stopped on: Saturday, 06 January 2024 11:46PM
    Psi4 wall time for execution: 0:00:07.71


    -----------------------------------------------------------------------
          Psi4: An Open-Source Ab Initio Electronic Structure Package
                               Psi4 1.9 release

                         Git: Rev {} zzzzzzz 


    D. G. A. Smith, L. A. Burns, A. C. Simmonett, R. M. Parrish,
    M. C. Schieber, R. Galvelis, P. Kraus, H. Kruse, R. Di Remigio,
    A. Alenaizan, A. M. James, S. Lehtola, J. P. Misiewicz, M. Scheurer,
    R. A. Shaw, J. B. Schriber, Y. Xie, Z. L. Glick, D. A. Sirianni,
    J. S. O'Brien, J. M. Waldrop, A. Kumar, E. G. Hohenstein,
    B. P. Pritchard, B. R. Brooks, H. F. Schaefer III, A. Yu. Sokolov,
    K. Patkowski, A. E. DePrince III, U. Bozkaya, R. A. King,
    F. A. Evangelista, J. M. Turney, T. D. Crawford, C. D. Sherrill,
    J. Chem. Phys. 152(18) 184108 (2020). https://doi.org/10.1063/5.0006002

                            Additional Code Authors
    E. T. Seidl, C. L. Janssen, E. F. Valeev, M. L. Leininger,
    J. F. Gonthier, R. M. Richard, H. R. McAlexander, M. Saitow, X. Wang,
    P. Verma, M. H. Lechner, A. Jiang, S. Behnle, A. G. Heide,
    M. F. Herbst, and D. L. Poole

             Previous Authors, Complete List of Code Contributors,
                       and Citations for Specific Modules
    https://github.com/psi4/psi4/blob/master/codemeta.json
    https://github.com/psi4/psi4/graphs/contributors
    http://psicode.org/psi4manual/master/introduction.html#citing-psifour

    -----------------------------------------------------------------------


    Psi4 started on: Saturday, 06 January 2024 11:46PM

    Process ID: 560902
    Host:       moses-razer
    PSIDATADIR: /home/kchung25/anaconda3/envs/psi4_19/share/psi4
    Memory:     55.9 GiB
    Threads:    6
    
  ==> Input QCSchema <==

--------------------------------------------------------------------------
{'driver': 'energy',
 'extras': {'psiapi': True, 'wfn_qcvars_only': True},
 'id': None,
 'keywords': {'SCF_TYPE': 'DF', 'function_kwargs': {}},
 'model': {'basis': 'aug-cc-pvtz', 'method': 'mp2'},
 'molecule': {'atom_labels': ['', '', '', '', '', '', '', '', '', '', '', '', ''],
              'atomic_numbers': [17, 8, 1, 1, 8, 1, 1, 8, 1, 1, 8, 1, 1],
              'extras': {},
              'fix_com': True,
              'fix_orientation': True,
              'fix_symmetry': 'c1',
              'fragment_charges': [-1.0, 0.0],
              'fragment_multiplicities': [1, 1],
              'fragments': [[0], [1, 2, 3, 4, 5, 6, 7, 8, 9, 10, 11, 12]],
              'geometry': [0.0, 0.0, 0.0, -3.8569707063080623, -4.150715404427603, -2.520412771198751,
                           -2.45814440563879, -3.8357301846579155, -1.3774100344894582, -5.0992218591264,
                           -5.118049200514336, -1.5881617406311426, 0.792216655492807, 0.16029601859196027,
                           -5.8311486923126, -0.5305954117799235, 0.5247353710648788, -7.16336781623786,
                           0.1459511075736099, 0.3005458224450639, -4.173541406297009, 5.840693698972287,
                           -1.3560731368069139, -1.18538173479881, 5.821514868525016, -2.4374613531956544,
                           -2.6660331767004055, 4.002466389885437, -0.8586802130512844, -1.0877017913738949,
                           1.4695852057109147, 5.939093628051002, 0.8911457078866498, 3.0869999067641443,
                           6.259275594665699, 0.09706767216026681, 1.0254258669094323, 4.154882250534237,
                           0.7026474165983569],
              'mass_numbers': [35, 16, 1, 1, 16, 1, 1, 16, 1, 1, 16, 1, 1],
              'masses': [34.968852682, 15.99491461957, 1.00782503223, 1.00782503223, 15.99491461957, 1.00782503223,
                         1.00782503223, 15.99491461957, 1.00782503223, 1.00782503223, 15.99491461957, 1.00782503223,
                         1.00782503223],
              'molecular_charge': -1.0,
              'molecular_multiplicity': 1,
              'name': 'dimer',
              'provenance': {'creator': 'QCElemental',
                             'routine': 'qcelemental.molparse.from_string',
                             'version': '0.27.1'},
              'real': [True, False, False, False, False, False, False, False, False, False, False, False, False],
              'schema_name': 'qcschema_molecule',
              'schema_version': 2,
              'symbols': ['Cl', 'O', 'H', 'H', 'O', 'H', 'H', 'O', 'H', 'H', 'O', 'H', 'H'],
              'validated': True},
 'protocols': {'stdout': True},
 'provenance': {'creator': 'QCElemental', 'routine': 'qcelemental.models.results', 'version': '0.27.1'},
 'schema_name': 'qcschema_input',
 'schema_version': 1}
--------------------------------------------------------------------------

Scratch directory: /scratch/
   => Libint2 <=

    Primary   basis highest AM E, G, H:  5, 4, 3
    Auxiliary basis highest AM E, G, H:  6, 5, 4
    Onebody   basis highest AM E, G, H:  6, 5, 4
    Solid Harmonics ordering:            gaussian

*** tstart() called on moses-razer
*** at Sat Jan  6 23:46:09 2024

   => Loading Basis Set <=

    Name: AUG-CC-PVTZ
    Role: ORBITAL
    Keyword: BASIS
    atoms 1                     entry CL         line   988 file /home/kchung25/anaconda3/envs/p415env/share/psi4/basis/aug-cc-pvtz.gbs 
    atoms 2, 5, 8, 11           entry O          line   331 file /home/kchung25/anaconda3/envs/p415env/share/psi4/basis/aug-cc-pvtz.gbs 
    atoms 3-4, 6-7, 9-10, 12-13 entry H          line    40 file /home/kchung25/anaconda3/envs/p415env/share/psi4/basis/aug-cc-pvtz.gbs 


         ---------------------------------------------------------
                                   SCF
               by Justin Turney, Rob Parrish, Andy Simmonett
                          and Daniel G. A. Smith
                              RHF Reference
                        6 Threads,  57220 MiB Core
         ---------------------------------------------------------

  ==> Geometry <==

    Molecular point group: c1
    Full point group: C1

    Geometry (in Bohr), charge = -1, multiplicity = 1:

       Center              X                  Y                   Z               Mass       
    ------------   -----------------  -----------------  -----------------  -----------------
         CL           0.000000000000     0.000000000000     0.000000000000    34.968852682000
      Gh(O)          -3.856970706308    -4.150715404428    -2.520412771199    15.994914619570
      Gh(H)          -2.458144405639    -3.835730184658    -1.377410034489     1.007825032230
      Gh(H)          -5.099221859126    -5.118049200514    -1.588161740631     1.007825032230
      Gh(O)           0.792216655493     0.160296018592    -5.831148692313    15.994914619570
      Gh(H)          -0.530595411780     0.524735371065    -7.163367816238     1.007825032230
      Gh(H)           0.145951107574     0.300545822445    -4.173541406297     1.007825032230
      Gh(O)           5.840693698972    -1.356073136807    -1.185381734799    15.994914619570
      Gh(H)           5.821514868525    -2.437461353196    -2.666033176700     1.007825032230
      Gh(H)           4.002466389885    -0.858680213051    -1.087701791374     1.007825032230
      Gh(O)           1.469585205711     5.939093628051     0.891145707887    15.994914619570
      Gh(H)           3.086999906764     6.259275594666     0.097067672160     1.007825032230
      Gh(H)           1.025425866909     4.154882250534     0.702647416598     1.007825032230

  Running in c1 symmetry.

  Rotational constants: A =      0.04557  B =      0.03329  C =      0.02749 [cm^-1]
  Rotational constants: A =   1366.11832  B =    997.88558  C =    824.12703 [MHz]
  Nuclear repulsion =    0.000000000000000

  Charge       = -1
  Multiplicity = 1
  Electrons    = 18
  Nalpha       = 9
  Nbeta        = 9

  ==> Algorithm <==

  SCF Algorithm Type is DF.
  DIIS enabled.
  MOM disabled.
  Fractional occupation disabled.
  Guess Type is SAD.
  Energy threshold   = 1.00e-08
  Density threshold  = 1.00e-08
  Integral threshold = 1.00e-12

  ==> Primary Basis <==

  Basis Set: AUG-CC-PVTZ
    Blend: AUG-CC-PVTZ
    Number of shells: 144
    Number of basis functions: 418
    Number of Cartesian functions: 479
    Spherical Harmonics?: true
    Max angular momentum: 3

   => Loading Basis Set <=

    Name: (AUG-CC-PVTZ AUX)
    Role: JKFIT
    Keyword: DF_BASIS_SCF
    atoms 1                     entry CL         line   816 file /home/kchung25/anaconda3/envs/p415env/share/psi4/basis/aug-cc-pvtz-jkfit.gbs 
    atoms 2, 5, 8, 11           entry O          line   286 file /home/kchung25/anaconda3/envs/p415env/share/psi4/basis/aug-cc-pvtz-jkfit.gbs 
    atoms 3-4, 6-7, 9-10, 12-13 entry H          line    70 file /home/kchung25/anaconda3/envs/p415env/share/psi4/basis/aug-cc-pvtz-jkfit.gbs 

  ==> Integral Setup <==

  DFHelper Memory: AOs need 1.116 GiB; user supplied 41.910 GiB. 
  Using in-core AOs.

  ==> MemDFJK: Density-Fitted J/K Matrices <==

    J tasked:                   Yes
    K tasked:                   Yes
    wK tasked:                   No
    OpenMP threads:               6
    Memory [MiB]:             42915
    Algorithm:                 Core
    Schwarz Cutoff:           1E-12
    Mask sparsity (%):      11.8610
    Fitting Condition:        1E-10

   => Auxiliary Basis Set <=

  Basis Set: (AUG-CC-PVTZ AUX)
    Blend: AUG-CC-PVTZ-JKFIT
    Number of shells: 274
    Number of basis functions: 930
    Number of Cartesian functions: 1144
    Spherical Harmonics?: true
    Max angular momentum: 4

  Minimum eigenvalue in the overlap matrix is 1.7898989517E-04.
  Reciprocal condition number of the overlap matrix is 1.6528489044E-05.
    Using symmetric orthogonalization.

  ==> Pre-Iterations <==

  SCF Guess: Superposition of Atomic Densities via on-the-fly atomic UHF (no occupation information).

   -------------------------
    Irrep   Nso     Nmo    
   -------------------------
     A        418     418 
   -------------------------
    Total     418     418
   -------------------------

  ==> Iterations <==

                           Total Energy        Delta E     RMS |[F,P]|

   @DF-RHF iter SAD:  -459.11248998601121   -4.59112e+02   0.00000e+00 
   @DF-RHF iter   1:  -459.51389024497632   -4.01400e-01   7.14649e-04 ADIIS/DIIS
   @DF-RHF iter   2:  -459.56480529241730   -5.09150e-02   3.66275e-04 ADIIS/DIIS
   @DF-RHF iter   3:  -459.57350483914576   -8.69955e-03   2.54900e-05 DIIS
   @DF-RHF iter   4:  -459.57356237735684   -5.75382e-05   5.01190e-06 DIIS
   @DF-RHF iter   5:  -459.57356599969637   -3.62234e-06   5.12676e-07 DIIS
   @DF-RHF iter   6:  -459.57356608165566   -8.19593e-08   4.59524e-08 DIIS
   @DF-RHF iter   7:  -459.57356608262927   -9.73614e-10   5.28863e-09 DIIS
  Energy and wave function converged.


  ==> Post-Iterations <==

    Orbital Energies [Eh]
    ---------------------

    Doubly Occupied:                                                      

       1A   -104.507121     2A    -10.230026     3A     -7.696091  
       4A     -7.696076     5A     -7.696071     6A     -0.733472  
       7A     -0.150315     8A     -0.150308     9A     -0.150306  

    Virtual:                                                              

      10A      0.118570    11A      0.127242    12A      0.133196  
      13A      0.134793    14A      0.164969    15A      0.172930  
      16A      0.176416    17A      0.196786    18A      0.232334  
      19A      0.237514    20A      0.249144    21A      0.256618  
      22A      0.259902    23A      0.263392    24A      0.265945  
      25A      0.273036    26A      0.281866    27A      0.293004  
      28A      0.294980    29A      0.306342    30A      0.312726  
      31A      0.322652    32A      0.327679    33A      0.338039  
      34A      0.342298    35A      0.356601    36A      0.368301  
      37A      0.394260    38A      0.401753    39A      0.415850  
      40A      0.418431    41A      0.429572    42A      0.435577  
      43A      0.443355    44A      0.456881    45A      0.460762  
      46A      0.471073    47A      0.477828    48A      0.489369  
      49A      0.490642    50A      0.497351    51A      0.502666  
      52A      0.507412    53A      0.516479    54A      0.524896  
      55A      0.542423    56A      0.544402    57A      0.554190  
      58A      0.564637    59A      0.569444    60A      0.576962  
      61A      0.582123    62A      0.598195    63A      0.619531  
      64A      0.628447    65A      0.645747    66A      0.659744  
      67A      0.699190    68A      0.705810    69A      0.722476  
      70A      0.730543    71A      0.746850    72A      0.769857  
      73A      0.794174    74A      0.797995    75A      0.825102  
      76A      0.834945    77A      0.844390    78A      0.852554  
      79A      0.861108    80A      0.863819    81A      0.871771  
      82A      0.907087    83A      0.909329    84A      0.922385  
      85A      0.927591    86A      0.941388    87A      0.947804  
      88A      0.949353    89A      0.954160    90A      0.965766  
      91A      0.972606    92A      0.975074    93A      0.982364  
      94A      0.988416    95A      0.996436    96A      1.002224  
      97A      1.010333    98A      1.014763    99A      1.021349  
     100A      1.031255   101A      1.037919   102A      1.041006  
     103A      1.045283   104A      1.056345   105A      1.062750  
     106A      1.072854   107A      1.078171   108A      1.088260  
     109A      1.095186   110A      1.100886   111A      1.110697  
     112A      1.119174   113A      1.124419   114A      1.135208  
     115A      1.139481   116A      1.148278   117A      1.156003  
     118A      1.159791   119A      1.162676   120A      1.175265  
     121A      1.186988   122A      1.189999   123A      1.202758  
     124A      1.216280   125A      1.223149   126A      1.228640  
     127A      1.236164   128A      1.248758   129A      1.262212  
     130A      1.267707   131A      1.282283   132A      1.303798  
     133A      1.314734   134A      1.324820   135A      1.332479  
     136A      1.346415   137A      1.349452   138A      1.377396  
     139A      1.383631   140A      1.392573   141A      1.396479  
     142A      1.411277   143A      1.424631   144A      1.434585  
     145A      1.449670   146A      1.457684   147A      1.484169  
     148A      1.489543   149A      1.510705   150A      1.545900  
     151A      1.553788   152A      1.577056   153A      1.594597  
     154A      1.598201   155A      1.608589   156A      1.619963  
     157A      1.633640   158A      1.670513   159A      1.677030  
     160A      1.708642   161A      1.738061   162A      1.753097  
     163A      1.780870   164A      1.817687   165A      1.842551  
     166A      1.847499   167A      1.860619   168A      1.862628  
     169A      1.873414   170A      1.889268   171A      1.895472  
     172A      1.907451   173A      1.915373   174A      1.926953  
     175A      1.933188   176A      1.947680   177A      1.955351  
     178A      1.974217   179A      1.976893   180A      1.997030  
     181A      2.012415   182A      2.016433   183A      2.026267  
     184A      2.041218   185A      2.059774   186A      2.062720  
     187A      2.068025   188A      2.098520   189A      2.115452  
     190A      2.144754   191A      2.146540   192A      2.204089  
     193A      2.223238   194A      2.323355   195A      2.347595  
     196A      2.368028   197A      2.370742   198A      2.419229  
     199A      2.580032   200A      2.602198   201A      2.616219  
     202A      2.623444   203A      2.633561   204A      2.643673  
     205A      2.649375   206A      2.655975   207A      2.679440  
     208A      2.686567   209A      2.695983   210A      2.698408  
     211A      2.712618   212A      2.741261   213A      2.753582  
     214A      2.762842   215A      2.773391   216A      2.779291  
     217A      2.796443   218A      2.806605   219A      2.808148  
     220A      2.816002   221A      2.840564   222A      2.845818  
     223A      2.851362   224A      2.871715   225A      2.876779  
     226A      2.889632   227A      2.923073   228A      2.942467  
     229A      2.950567   230A      2.989011   231A      3.036894  
     232A      3.043421   233A      3.071531   234A      3.102570  
     235A      3.118309   236A      3.131261   237A      3.180284  
     238A      3.213399   239A      3.271204   240A      3.305732  
     241A      3.326758   242A      3.338274   243A      3.347741  
     244A      3.351446   245A      3.371627   246A      3.372781  
     247A      3.392307   248A      3.401400   249A      3.414562  
     250A      3.450901   251A      3.485743   252A      3.490624  
     253A      3.523694   254A      3.529159   255A      3.543216  
     256A      3.566005   257A      3.590005   258A      3.604157  
     259A      3.610577   260A      3.641999   261A      3.652728  
     262A      3.676182   263A      3.688483   264A      3.715708  
     265A      3.724378   266A      3.726470   267A      3.743050  
     268A      3.779868   269A      3.804361   270A      3.843632  
     271A      3.877689   272A      3.910796   273A      3.924603  
     274A      3.963202   275A      3.991994   276A      4.080891  
     277A      4.098972   278A      4.524233   279A      4.527915  
     280A      4.570634   281A      4.594708   282A      4.603300  
     283A      4.610587   284A      4.619583   285A      4.623981  
     286A      4.689076   287A      4.725111   288A      4.735366  
     289A      4.750063   290A      4.797459   291A      4.799294  
     292A      4.812275   293A      4.822451   294A      4.837564  
     295A      4.853374   296A      4.859615   297A      4.871958  
     298A      4.951685   299A      5.003257   300A      5.024172  
     301A      5.031589   302A      5.037666   303A      5.052910  
     304A      5.072972   305A      5.095569   306A      5.132985  
     307A      5.148000   308A      5.153263   309A      5.169714  
     310A      5.179972   311A      5.201131   312A      5.271736  
     313A      5.350790   314A      5.378495   315A      5.380008  
     316A      5.417012   317A      5.486456   318A      5.616716  
     319A      5.643421   320A      5.674978   321A      5.681196  
     322A      5.690883   323A      5.716772   324A      5.720881  
     325A      5.755546   326A      5.758916   327A      5.815750  
     328A      5.822942   329A      5.922920   330A      5.940050  
     331A      5.962929   332A      5.995015   333A      6.044639  
     334A      6.295154   335A      6.325401   336A      6.330061  
     337A      6.341341   338A      6.497608   339A      6.517857  
     340A      6.530406   341A      6.539712   342A      6.707447  
     343A      6.853694   344A      6.902158   345A      6.928703  
     346A      7.138766   347A      7.209365   348A      7.232307  
     349A      7.251263   350A      7.379090   351A      7.837286  
     352A      7.856350   353A      7.879788   354A      7.903148  
     355A      7.941893   356A      7.949644   357A      7.965996  
     358A      8.021947   359A      8.177584   360A      8.217888  
     361A      8.234193   362A      8.239295   363A      8.276006  
     364A      8.368802   365A      8.404055   366A      8.405167  
     367A      8.421252   368A      8.427786   369A      8.437823  
     370A      8.441538   371A      8.853289   372A      8.891383  
     373A      8.902328   374A      8.913932   375A      8.973096  
     376A      8.983563   377A      9.132358   378A      9.171983  
     379A      9.822498   380A      9.839914   381A      9.871723  
     382A      9.899132   383A      9.997261   384A     10.012369  
     385A     10.030931   386A     10.042109   387A     10.206051  
     388A     10.226270   389A     10.236766   390A     10.257667  
     391A     10.405776   392A     10.417873   393A     10.444701  
     394A     10.502845   395A     11.144615   396A     11.241421  
     397A     11.275079   398A     11.319879   399A     11.829369  
     400A     11.837113   401A     11.852685   402A     11.898962  
     403A     12.049614   404A     12.199879   405A     12.226916  
     406A     12.352631   407A     13.642585   408A     13.654982  
     409A     13.673391   410A     13.690341   411A     14.041785  
     412A     14.117835   413A     14.132691   414A     14.202183  
     415A     64.647801   416A     64.792798   417A     65.625406  
     418A     65.978473  

    Final Occupation by Irrep:
              A 
    DOCC [     9 ]
    NA   [     9 ]
    NB   [     9 ]

  @DF-RHF Final Energy:  -459.57356608262927

   => Energetics <=

    Nuclear Repulsion Energy =              0.0000000000000000
    One-Electron Energy =                -641.1275731606806403
    Two-Electron Energy =                 181.5540070780513986
    Total Energy =                       -459.5735660826292133

Computation Completed


Properties will be evaluated at   0.000000,   0.000000,   0.000000 [a0]

Properties computed using the SCF density matrix


 Multipole Moments:

 ------------------------------------------------------------------------------------
     Multipole            Electronic (a.u.)      Nuclear  (a.u.)        Total (a.u.)
 ------------------------------------------------------------------------------------

 L = 1.  Multiply by 2.5417464519 to convert [e a0] to [Debye]
 Dipole X            :          0.0004245            0.0000000            0.0004245
 Dipole Y            :          0.0002252            0.0000000            0.0002252
 Dipole Z            :         -0.0005090            0.0000000           -0.0005090
 Magnitude           :                                                    0.0007000

 ------------------------------------------------------------------------------------

*** tstop() called on moses-razer at Sat Jan  6 23:46:14 2024
Module time:
	user time   =      21.87 seconds =       0.36 minutes
	system time =       0.93 seconds =       0.02 minutes
	total time  =          5 seconds =       0.08 minutes
Total time:
	user time   =      59.96 seconds =       1.00 minutes
	system time =       2.70 seconds =       0.05 minutes
	total time  =         12 seconds =       0.20 minutes

*** tstart() called on moses-razer
*** at Sat Jan  6 23:46:14 2024


  //>>>>>>>>>>>>>>>>>>>>>>>>>>>>>>>>>>>//
  //               DFMP2               //
  //<<<<<<<<<<<<<<<<<<<<<<<<<<<<<<<<<<<//

   => Loading Basis Set <=

    Name: (AUG-CC-PVTZ AUX)
    Role: RIFIT
    Keyword: DF_BASIS_MP2
    atoms 1                     entry CL         line   742 file /home/kchung25/anaconda3/envs/p415env/share/psi4/basis/aug-cc-pvtz-ri.gbs 
    atoms 2, 5, 8, 11           entry O          line   264 file /home/kchung25/anaconda3/envs/p415env/share/psi4/basis/aug-cc-pvtz-ri.gbs 
    atoms 3-4, 6-7, 9-10, 12-13 entry H          line    30 file /home/kchung25/anaconda3/envs/p415env/share/psi4/basis/aug-cc-pvtz-ri.gbs 

	 --------------------------------------------------------
	                          DF-MP2                         
	      2nd-Order Density-Fitted Moller-Plesset Theory     
	              RMP2 Wavefunction,   6 Threads             
	                                                         
	        Rob Parrish, Justin Turney, Andy Simmonett,      
	           Ed Hohenstein, and C. David Sherrill          
	 --------------------------------------------------------

   => Auxiliary Basis Set <=

  Basis Set: (AUG-CC-PVTZ AUX)
    Blend: AUG-CC-PVTZ-RI
    Number of shells: 261
    Number of basis functions: 939
    Number of Cartesian functions: 1175
    Spherical Harmonics?: true
    Max angular momentum: 4

	 --------------------------------------------------------
	                 NBF =   418, NAUX =   939
	 --------------------------------------------------------
	   CLASS    FOCC     OCC    AOCC    AVIR     VIR    FVIR
	   PAIRS       0       9       9     409     409       0
	 --------------------------------------------------------

	-----------------------------------------------------------
	 ==================> DF-MP2 Energies <==================== 
	-----------------------------------------------------------
	 Reference Energy          =    -459.5735660826292701 [Eh]
	 Singles Energy            =      -0.0000000000000000 [Eh]
	 Same-Spin Energy          =      -0.0633866182892917 [Eh]
	 Opposite-Spin Energy      =      -0.1832217136284441 [Eh]
	 Correlation Energy        =      -0.2466083319177359 [Eh]
	 Total Energy              =    -459.8201744145470116 [Eh]
	-----------------------------------------------------------
	 ================> DF-SCS-MP2 Energies <================== 
	-----------------------------------------------------------
	 SCS Same-Spin Scale       =       0.3333333333333333 [-]
	 SCS Opposite-Spin Scale   =       1.2000000000000000 [-]
	 SCS Same-Spin Energy      =      -0.0211288727630972 [Eh]
	 SCS Opposite-Spin Energy  =      -0.2198660563541329 [Eh]
	 SCS Correlation Energy    =      -0.2409949291172302 [Eh]
	 SCS Total Energy          =    -459.8145610117464912 [Eh]
	-----------------------------------------------------------


*** tstop() called on moses-razer at Sat Jan  6 23:46:16 2024
Module time:
	user time   =       7.83 seconds =       0.13 minutes
	system time =       0.49 seconds =       0.01 minutes
	total time  =          2 seconds =       0.03 minutes
Total time:
	user time   =      67.80 seconds =       1.13 minutes
	system time =       3.19 seconds =       0.05 minutes
	total time  =         14 seconds =       0.23 minutes

    Psi4 stopped on: Saturday, 06 January 2024 11:46PM
    Psi4 wall time for execution: 0:00:06.29


    -----------------------------------------------------------------------
          Psi4: An Open-Source Ab Initio Electronic Structure Package
                               Psi4 1.9 release

                         Git: Rev {} zzzzzzz 


    D. G. A. Smith, L. A. Burns, A. C. Simmonett, R. M. Parrish,
    M. C. Schieber, R. Galvelis, P. Kraus, H. Kruse, R. Di Remigio,
    A. Alenaizan, A. M. James, S. Lehtola, J. P. Misiewicz, M. Scheurer,
    R. A. Shaw, J. B. Schriber, Y. Xie, Z. L. Glick, D. A. Sirianni,
    J. S. O'Brien, J. M. Waldrop, A. Kumar, E. G. Hohenstein,
    B. P. Pritchard, B. R. Brooks, H. F. Schaefer III, A. Yu. Sokolov,
    K. Patkowski, A. E. DePrince III, U. Bozkaya, R. A. King,
    F. A. Evangelista, J. M. Turney, T. D. Crawford, C. D. Sherrill,
    J. Chem. Phys. 152(18) 184108 (2020). https://doi.org/10.1063/5.0006002

                            Additional Code Authors
    E. T. Seidl, C. L. Janssen, E. F. Valeev, M. L. Leininger,
    J. F. Gonthier, R. M. Richard, H. R. McAlexander, M. Saitow, X. Wang,
    P. Verma, M. H. Lechner, A. Jiang, S. Behnle, A. G. Heide,
    M. F. Herbst, and D. L. Poole

             Previous Authors, Complete List of Code Contributors,
                       and Citations for Specific Modules
    https://github.com/psi4/psi4/blob/master/codemeta.json
    https://github.com/psi4/psi4/graphs/contributors
    http://psicode.org/psi4manual/master/introduction.html#citing-psifour

    -----------------------------------------------------------------------


    Psi4 started on: Saturday, 06 January 2024 11:46PM

    Process ID: 560902
    Host:       moses-razer
    PSIDATADIR: /home/kchung25/anaconda3/envs/psi4_19/share/psi4
    Memory:     55.9 GiB
    Threads:    6
    
  ==> Input QCSchema <==

--------------------------------------------------------------------------
{'driver': 'energy',
 'extras': {'psiapi': True, 'wfn_qcvars_only': True},
 'id': None,
 'keywords': {'SCF_TYPE': 'DF', 'function_kwargs': {}},
 'model': {'basis': 'aug-cc-pvtz', 'method': 'mp2'},
 'molecule': {'atom_labels': ['', '', '', '', '', '', '', '', '', '', '', '', ''],
              'atomic_numbers': [17, 8, 1, 1, 8, 1, 1, 8, 1, 1, 8, 1, 1],
              'extras': {},
              'fix_com': True,
              'fix_orientation': True,
              'fix_symmetry': 'c1',
              'fragment_charges': [-1.0, 0.0],
              'fragment_multiplicities': [1, 1],
              'fragments': [[0], [1, 2, 3, 4, 5, 6, 7, 8, 9, 10, 11, 12]],
              'geometry': [0.0, 0.0, 0.0, -3.8569707063080623, -4.150715404427603, -2.520412771198751,
                           -2.45814440563879, -3.8357301846579155, -1.3774100344894582, -5.0992218591264,
                           -5.118049200514336, -1.5881617406311426, 0.792216655492807, 0.16029601859196027,
                           -5.8311486923126, -0.5305954117799235, 0.5247353710648788, -7.16336781623786,
                           0.1459511075736099, 0.3005458224450639, -4.173541406297009, 5.840693698972287,
                           -1.3560731368069139, -1.18538173479881, 5.821514868525016, -2.4374613531956544,
                           -2.6660331767004055, 4.002466389885437, -0.8586802130512844, -1.0877017913738949,
                           1.4695852057109147, 5.939093628051002, 0.8911457078866498, 3.0869999067641443,
                           6.259275594665699, 0.09706767216026681, 1.0254258669094323, 4.154882250534237,
                           0.7026474165983569],
              'mass_numbers': [35, 16, 1, 1, 16, 1, 1, 16, 1, 1, 16, 1, 1],
              'masses': [34.968852682, 15.99491461957, 1.00782503223, 1.00782503223, 15.99491461957, 1.00782503223,
                         1.00782503223, 15.99491461957, 1.00782503223, 1.00782503223, 15.99491461957, 1.00782503223,
                         1.00782503223],
              'molecular_charge': -1.0,
              'molecular_multiplicity': 1,
              'name': 'dimer',
              'provenance': {'creator': 'QCElemental',
                             'routine': 'qcelemental.molparse.from_string',
                             'version': '0.27.1'},
              'real': [True, True, True, True, True, True, True, True, True, True, True, True, True],
              'schema_name': 'qcschema_molecule',
              'schema_version': 2,
              'symbols': ['Cl', 'O', 'H', 'H', 'O', 'H', 'H', 'O', 'H', 'H', 'O', 'H', 'H'],
              'validated': True},
 'protocols': {'stdout': True},
 'provenance': {'creator': 'QCElemental', 'routine': 'qcelemental.models.results', 'version': '0.27.1'},
 'schema_name': 'qcschema_input',
 'schema_version': 1}
--------------------------------------------------------------------------

Scratch directory: /scratch/
   => Libint2 <=

    Primary   basis highest AM E, G, H:  5, 4, 3
    Auxiliary basis highest AM E, G, H:  6, 5, 4
    Onebody   basis highest AM E, G, H:  6, 5, 4
    Solid Harmonics ordering:            gaussian

*** tstart() called on moses-razer
*** at Sat Jan  6 23:46:16 2024

   => Loading Basis Set <=

    Name: AUG-CC-PVTZ
    Role: ORBITAL
    Keyword: BASIS
    atoms 1                     entry CL         line   988 file /home/kchung25/anaconda3/envs/p415env/share/psi4/basis/aug-cc-pvtz.gbs 
    atoms 2, 5, 8, 11           entry O          line   331 file /home/kchung25/anaconda3/envs/p415env/share/psi4/basis/aug-cc-pvtz.gbs 
    atoms 3-4, 6-7, 9-10, 12-13 entry H          line    40 file /home/kchung25/anaconda3/envs/p415env/share/psi4/basis/aug-cc-pvtz.gbs 


         ---------------------------------------------------------
                                   SCF
               by Justin Turney, Rob Parrish, Andy Simmonett
                          and Daniel G. A. Smith
                              RHF Reference
                        6 Threads,  57220 MiB Core
         ---------------------------------------------------------

  ==> Geometry <==

    Molecular point group: c1
    Full point group: C1

    Geometry (in Bohr), charge = -1, multiplicity = 1:

       Center              X                  Y                   Z               Mass       
    ------------   -----------------  -----------------  -----------------  -----------------
         CL           0.000000000000     0.000000000000     0.000000000000    34.968852682000
         O           -3.856970706308    -4.150715404428    -2.520412771199    15.994914619570
         H           -2.458144405639    -3.835730184658    -1.377410034489     1.007825032230
         H           -5.099221859126    -5.118049200514    -1.588161740631     1.007825032230
         O            0.792216655493     0.160296018592    -5.831148692313    15.994914619570
         H           -0.530595411780     0.524735371065    -7.163367816238     1.007825032230
         H            0.145951107574     0.300545822445    -4.173541406297     1.007825032230
         O            5.840693698972    -1.356073136807    -1.185381734799    15.994914619570
         H            5.821514868525    -2.437461353196    -2.666033176700     1.007825032230
         H            4.002466389885    -0.858680213051    -1.087701791374     1.007825032230
         O            1.469585205711     5.939093628051     0.891145707887    15.994914619570
         H            3.086999906764     6.259275594666     0.097067672160     1.007825032230
         H            1.025425866909     4.154882250534     0.702647416598     1.007825032230

  Running in c1 symmetry.

  Rotational constants: A =      0.04557  B =      0.03329  C =      0.02749 [cm^-1]
  Rotational constants: A =   1366.11832  B =    997.88558  C =    824.12703 [MHz]
  Nuclear repulsion =  220.579128862205295

  Charge       = -1
  Multiplicity = 1
  Electrons    = 58
  Nalpha       = 29
  Nbeta        = 29

  ==> Algorithm <==

  SCF Algorithm Type is DF.
  DIIS enabled.
  MOM disabled.
  Fractional occupation disabled.
  Guess Type is SAD.
  Energy threshold   = 1.00e-08
  Density threshold  = 1.00e-08
  Integral threshold = 1.00e-12

  ==> Primary Basis <==

  Basis Set: AUG-CC-PVTZ
    Blend: AUG-CC-PVTZ
    Number of shells: 144
    Number of basis functions: 418
    Number of Cartesian functions: 479
    Spherical Harmonics?: true
    Max angular momentum: 3

   => Loading Basis Set <=

    Name: (AUG-CC-PVTZ AUX)
    Role: JKFIT
    Keyword: DF_BASIS_SCF
    atoms 1                     entry CL         line   816 file /home/kchung25/anaconda3/envs/p415env/share/psi4/basis/aug-cc-pvtz-jkfit.gbs 
    atoms 2, 5, 8, 11           entry O          line   286 file /home/kchung25/anaconda3/envs/p415env/share/psi4/basis/aug-cc-pvtz-jkfit.gbs 
    atoms 3-4, 6-7, 9-10, 12-13 entry H          line    70 file /home/kchung25/anaconda3/envs/p415env/share/psi4/basis/aug-cc-pvtz-jkfit.gbs 

  ==> Integral Setup <==

  DFHelper Memory: AOs need 1.116 GiB; user supplied 41.910 GiB. 
  Using in-core AOs.

  ==> MemDFJK: Density-Fitted J/K Matrices <==

    J tasked:                   Yes
    K tasked:                   Yes
    wK tasked:                   No
    OpenMP threads:               6
    Memory [MiB]:             42915
    Algorithm:                 Core
    Schwarz Cutoff:           1E-12
    Mask sparsity (%):      11.8610
    Fitting Condition:        1E-10

   => Auxiliary Basis Set <=

  Basis Set: (AUG-CC-PVTZ AUX)
    Blend: AUG-CC-PVTZ-JKFIT
    Number of shells: 274
    Number of basis functions: 930
    Number of Cartesian functions: 1144
    Spherical Harmonics?: true
    Max angular momentum: 4

  Minimum eigenvalue in the overlap matrix is 1.7898989517E-04.
  Reciprocal condition number of the overlap matrix is 1.6528489044E-05.
    Using symmetric orthogonalization.

  ==> Pre-Iterations <==

  SCF Guess: Superposition of Atomic Densities via on-the-fly atomic UHF (no occupation information).

   -------------------------
    Irrep   Nso     Nmo    
   -------------------------
     A        418     418 
   -------------------------
    Total     418     418
   -------------------------

  ==> Iterations <==

                           Total Energy        Delta E     RMS |[F,P]|

   @DF-RHF iter SAD:  -761.20369696993362   -7.61204e+02   0.00000e+00 
   @DF-RHF iter   1:  -763.49431816721972   -2.29062e+00   2.29829e-03 ADIIS/DIIS
   @DF-RHF iter   2:  -763.72093431735129   -2.26616e-01   1.56476e-03 ADIIS/DIIS
   @DF-RHF iter   3:  -763.85270735295637   -1.31773e-01   1.14713e-04 ADIIS/DIIS
   @DF-RHF iter   4:  -763.85449330055019   -1.78595e-03   4.08828e-05 DIIS
   @DF-RHF iter   5:  -763.85468622496808   -1.92924e-04   9.40564e-06 DIIS
   @DF-RHF iter   6:  -763.85470418826208   -1.79633e-05   2.73015e-06 DIIS
   @DF-RHF iter   7:  -763.85470581271989   -1.62446e-06   1.14777e-06 DIIS
   @DF-RHF iter   8:  -763.85470599779580   -1.85076e-07   3.55178e-07 DIIS
   @DF-RHF iter   9:  -763.85470602038561   -2.25898e-08   6.22510e-08 DIIS
   @DF-RHF iter  10:  -763.85470602129703   -9.11427e-10   1.25731e-08 DIIS
   @DF-RHF iter  11:  -763.85470602132989   -3.28555e-11   5.37479e-09 DIIS
  Energy and wave function converged.


  ==> Post-Iterations <==

    Orbital Energies [Eh]
    ---------------------

    Doubly Occupied:                                                      

       1A   -104.574618     2A    -20.427245     3A    -20.406374  
       4A    -20.404833     5A    -20.403286     6A    -10.299898  
       7A     -7.765998     8A     -7.765987     9A     -7.765929  
      10A     -1.206430    11A     -1.182618    12A     -1.181293  
      13A     -1.174095    14A     -0.818821    15A     -0.576623  
      16A     -0.565165    17A     -0.559878    18A     -0.528933  
      19A     -0.440935    20A     -0.425959    21A     -0.417694  
      22A     -0.411497    23A     -0.370206    24A     -0.350252  
      25A     -0.348889    26A     -0.343385    27A     -0.231441  
      28A     -0.229933    29A     -0.226803  

    Virtual:                                                              

      30A      0.115904    31A      0.124723    32A      0.136389  
      33A      0.139086    34A      0.167193    35A      0.171098  
      36A      0.182577    37A      0.202366    38A      0.245131  
      39A      0.253059    40A      0.256037    41A      0.262851  
      42A      0.268660    43A      0.274331    44A      0.280833  
      45A      0.289409    46A      0.295922    47A      0.303001  
      48A      0.309586    49A      0.315189    50A      0.322430  
      51A      0.334383    52A      0.335325    53A      0.349062  
      54A      0.357616    55A      0.365833    56A      0.377896  
      57A      0.382737    58A      0.390345    59A      0.396993  
      60A      0.401328    61A      0.413679    62A      0.427818  
      63A      0.429767    64A      0.444587    65A      0.450914  
      66A      0.460799    67A      0.472066    68A      0.475053  
      69A      0.483205    70A      0.499459    71A      0.506830  
      72A      0.517188    73A      0.520757    74A      0.525388  
      75A      0.539034    76A      0.548381    77A      0.556593  
      78A      0.565536    79A      0.570847    80A      0.582628  
      81A      0.595406    82A      0.598489    83A      0.608208  
      84A      0.637503    85A      0.644065    86A      0.660064  
      87A      0.685881    88A      0.709445    89A      0.715855  
      90A      0.724351    91A      0.729378    92A      0.743238  
      93A      0.767284    94A      0.777183    95A      0.809037  
      96A      0.817484    97A      0.822648    98A      0.839749  
      99A      0.849105   100A      0.857215   101A      0.863435  
     102A      0.867839   103A      0.871491   104A      0.872710  
     105A      0.880875   106A      0.888432   107A      0.891517  
     108A      0.898375   109A      0.907417   110A      0.911388  
     111A      0.920233   112A      0.933859   113A      0.950442  
     114A      0.965459   115A      0.977200   116A      0.984949  
     117A      0.990505   118A      0.992751   119A      1.005152  
     120A      1.018361   121A      1.027303   122A      1.044089  
     123A      1.051474   124A      1.063960   125A      1.071259  
     126A      1.073391   127A      1.073432   128A      1.084647  
     129A      1.090546   130A      1.093654   131A      1.105408  
     132A      1.116122   133A      1.123231   134A      1.126259  
     135A      1.134268   136A      1.136379   137A      1.148526  
     138A      1.153905   139A      1.159937   140A      1.165470  
     141A      1.169732   142A      1.176599   143A      1.183443  
     144A      1.184305   145A      1.194260   146A      1.207094  
     147A      1.214159   148A      1.223242   149A      1.240178  
     150A      1.260746   151A      1.270539   152A      1.271133  
     153A      1.285969   154A      1.291723   155A      1.299985  
     156A      1.319867   157A      1.325041   158A      1.343161  
     159A      1.353090   160A      1.363432   161A      1.367058  
     162A      1.380985   163A      1.398091   164A      1.409633  
     165A      1.428396   166A      1.430637   167A      1.437654  
     168A      1.452556   169A      1.468547   170A      1.484769  
     171A      1.496227   172A      1.510476   173A      1.534171  
     174A      1.557460   175A      1.566654   176A      1.573266  
     177A      1.580764   178A      1.611398   179A      1.621367  
     180A      1.673327   181A      1.682275   182A      1.685357  
     183A      1.699852   184A      1.714908   185A      1.717934  
     186A      1.732808   187A      1.739193   188A      1.765006  
     189A      1.774340   190A      1.783445   191A      1.795427  
     192A      1.817683   193A      1.818943   194A      1.847002  
     195A      1.852916   196A      1.861692   197A      1.883259  
     198A      1.915054   199A      1.947805   200A      1.963108  
     201A      1.978229   202A      1.996453   203A      2.013143  
     204A      2.041932   205A      2.081714   206A      2.101548  
     207A      2.128354   208A      2.137514   209A      2.143686  
     210A      2.167570   211A      2.183079   212A      2.230431  
     213A      2.268637   214A      2.322479   215A      2.376497  
     216A      2.442501   217A      2.448561   218A      2.454541  
     219A      2.465569   220A      2.501588   221A      2.513705  
     222A      2.518804   223A      2.535389   224A      2.546676  
     225A      2.567454   226A      2.577089   227A      2.579839  
     228A      2.592960   229A      2.595221   230A      2.605152  
     231A      2.616098   232A      2.629499   233A      2.638287  
     234A      2.650568   235A      2.653298   236A      2.666938  
     237A      2.672836   238A      2.677033   239A      2.692787  
     240A      2.708311   241A      2.724723   242A      2.739394  
     243A      2.754242   244A      2.803459   245A      2.823362  
     246A      2.836182   247A      2.868774   248A      2.881113  
     249A      2.892504   250A      2.903172   251A      2.919033  
     252A      2.934727   253A      2.946878   254A      2.952326  
     255A      2.973255   256A      2.987244   257A      2.993425  
     258A      2.998134   259A      3.019197   260A      3.022819  
     261A      3.046449   262A      3.072334   263A      3.103041  
     264A      3.129770   265A      3.134900   266A      3.148042  
     267A      3.166561   268A      3.203558   269A      3.218685  
     270A      3.230034   271A      3.284463   272A      3.405732  
     273A      3.447178   274A      3.503238   275A      3.547892  
     276A      3.576149   277A      3.613823   278A      3.651793  
     279A      3.731249   280A      3.778317   281A      3.783293  
     282A      3.845209   283A      3.858174   284A      3.903219  
     285A      3.911166   286A      4.072335   287A      4.125158  
     288A      4.160302   289A      4.166517   290A      4.192950  
     291A      4.201125   292A      4.231777   293A      4.259144  
     294A      4.329318   295A      4.353870   296A      4.368074  
     297A      4.372777   298A      4.390069   299A      4.394634  
     300A      4.405184   301A      4.413329   302A      4.434403  
     303A      4.441382   304A      4.452276   305A      4.472850  
     306A      4.506104   307A      4.511929   308A      4.532999  
     309A      4.541580   310A      4.546173   311A      4.550731  
     312A      4.559737   313A      4.572841   314A      4.581404  
     315A      4.587292   316A      4.612450   317A      4.613648  
     318A      4.627673   319A      4.633365   320A      4.685752  
     321A      4.697257   322A      4.711471   323A      4.732584  
     324A      4.811124   325A      4.826746   326A      4.849027  
     327A      4.894465   328A      4.905324   329A      4.955249  
     330A      5.009136   331A      5.025915   332A      5.059996  
     333A      5.099842   334A      5.241754   335A      5.252351  
     336A      5.271809   337A      5.283450   338A      5.287761  
     339A      5.304425   340A      5.316002   341A      5.331025  
     342A      5.445617   343A      5.454766   344A      5.473111  
     345A      5.485208   346A      5.509000   347A      5.520309  
     348A      5.532673   349A      5.586574   350A      5.632075  
     351A      5.634575   352A      5.638475   353A      5.657635  
     354A      5.790688   355A      5.890477   356A      5.935430  
     357A      5.979922   358A      6.292127   359A      6.311773  
     360A      6.323248   361A      6.409608   362A      6.706929  
     363A      6.715512   364A      6.741622   365A      6.786970  
     366A      6.893950   367A      6.904174   368A      6.916658  
     369A      6.945761   370A      7.009486   371A      7.029702  
     372A      7.046540   373A      7.114667   374A      7.221775  
     375A      7.276137   376A      7.285870   377A      7.291042  
     378A      7.312601   379A      7.391387   380A      7.408911  
     381A      7.415131   382A      7.432451   383A      7.440903  
     384A      7.448554   385A      7.454366   386A      7.461107  
     387A      7.485254   388A      7.491867   389A      7.494339  
     390A      7.509453   391A      7.522422   392A      7.569530  
     393A      7.585139   394A      7.589614   395A      7.623816  
     396A      7.640838   397A      7.653302   398A      7.661284  
     399A      7.758093   400A      7.808541   401A      7.896978  
     402A      7.898295   403A      8.033759   404A      8.048469  
     405A      8.055649   406A      8.080479   407A      8.103839  
     408A      8.114742   409A      8.183190   410A      8.219697  
     411A      8.836017   412A      8.885149   413A      8.893003  
     414A      8.900889   415A     15.766135   416A     15.866493  
     417A     16.282967   418A     16.421355  

    Final Occupation by Irrep:
              A 
    DOCC [    29 ]
    NA   [    29 ]
    NB   [    29 ]

  @DF-RHF Final Energy:  -763.85470602132989

   => Energetics <=

    Nuclear Repulsion Energy =            220.5791288622052946
    One-Electron Energy =               -1506.0576294696770674
    Two-Electron Energy =                 521.6237945861417984
    Total Energy =                       -763.8547060213298892

Computation Completed


Properties will be evaluated at   0.000000,   0.000000,   0.000000 [a0]

Properties computed using the SCF density matrix


 Multipole Moments:

 ------------------------------------------------------------------------------------
     Multipole            Electronic (a.u.)      Nuclear  (a.u.)        Total (a.u.)
 ------------------------------------------------------------------------------------

 L = 1.  Multiply by 2.5417464519 to convert [e a0] to [Debye]
 Dipole X            :        -41.2087910           39.9585953           -1.2501957
 Dipole Y            :         -4.5753376            3.7303269           -0.8450106
 Dipole Z            :         86.9497331          -86.4228808            0.5268523
 Magnitude           :                                                    1.5983134

 ------------------------------------------------------------------------------------

*** tstop() called on moses-razer at Sat Jan  6 23:46:21 2024
Module time:
	user time   =      30.73 seconds =       0.51 minutes
	system time =       1.29 seconds =       0.02 minutes
	total time  =          5 seconds =       0.08 minutes
Total time:
	user time   =      98.87 seconds =       1.65 minutes
	system time =       4.48 seconds =       0.07 minutes
	total time  =         19 seconds =       0.32 minutes

*** tstart() called on moses-razer
*** at Sat Jan  6 23:46:21 2024


  //>>>>>>>>>>>>>>>>>>>>>>>>>>>>>>>>>>>//
  //               DFMP2               //
  //<<<<<<<<<<<<<<<<<<<<<<<<<<<<<<<<<<<//

   => Loading Basis Set <=

    Name: (AUG-CC-PVTZ AUX)
    Role: RIFIT
    Keyword: DF_BASIS_MP2
    atoms 1                     entry CL         line   742 file /home/kchung25/anaconda3/envs/p415env/share/psi4/basis/aug-cc-pvtz-ri.gbs 
    atoms 2, 5, 8, 11           entry O          line   264 file /home/kchung25/anaconda3/envs/p415env/share/psi4/basis/aug-cc-pvtz-ri.gbs 
    atoms 3-4, 6-7, 9-10, 12-13 entry H          line    30 file /home/kchung25/anaconda3/envs/p415env/share/psi4/basis/aug-cc-pvtz-ri.gbs 

	 --------------------------------------------------------
	                          DF-MP2                         
	      2nd-Order Density-Fitted Moller-Plesset Theory     
	              RMP2 Wavefunction,   6 Threads             
	                                                         
	        Rob Parrish, Justin Turney, Andy Simmonett,      
	           Ed Hohenstein, and C. David Sherrill          
	 --------------------------------------------------------

   => Auxiliary Basis Set <=

  Basis Set: (AUG-CC-PVTZ AUX)
    Blend: AUG-CC-PVTZ-RI
    Number of shells: 261
    Number of basis functions: 939
    Number of Cartesian functions: 1175
    Spherical Harmonics?: true
    Max angular momentum: 4

	 --------------------------------------------------------
	                 NBF =   418, NAUX =   939
	 --------------------------------------------------------
	   CLASS    FOCC     OCC    AOCC    AVIR     VIR    FVIR
	   PAIRS       0      29      29     389     389       0
	 --------------------------------------------------------

	-----------------------------------------------------------
	 ==================> DF-MP2 Energies <==================== 
	-----------------------------------------------------------
	 Reference Energy          =    -763.8547060213298892 [Eh]
	 Singles Energy            =      -0.0000000000000000 [Eh]
	 Same-Spin Energy          =      -0.3468218716194175 [Eh]
	 Opposite-Spin Energy      =      -1.0564415269785354 [Eh]
	 Correlation Energy        =      -1.4032633985979530 [Eh]
	 Total Energy              =    -765.2579694199278038 [Eh]
	-----------------------------------------------------------
	 ================> DF-SCS-MP2 Energies <================== 
	-----------------------------------------------------------
	 SCS Same-Spin Scale       =       0.3333333333333333 [-]
	 SCS Opposite-Spin Scale   =       1.2000000000000000 [-]
	 SCS Same-Spin Energy      =      -0.1156072905398058 [Eh]
	 SCS Opposite-Spin Energy  =      -1.2677298323742425 [Eh]
	 SCS Correlation Energy    =      -1.3833371229140483 [Eh]
	 SCS Total Energy          =    -765.2380431442439885 [Eh]
	-----------------------------------------------------------


*** tstop() called on moses-razer at Sat Jan  6 23:46:24 2024
Module time:
	user time   =      12.83 seconds =       0.21 minutes
	system time =       0.71 seconds =       0.01 minutes
	total time  =          3 seconds =       0.05 minutes
Total time:
	user time   =     111.71 seconds =       1.86 minutes
	system time =       5.19 seconds =       0.09 minutes
	total time  =         22 seconds =       0.37 minutes

    Psi4 stopped on: Saturday, 06 January 2024 11:46PM
    Psi4 wall time for execution: 0:00:08.66


  //>>>>>>>>>>>>>>>>>>>>>>>>>>>>>>>>>>>//
  //          ManyBody Results         //
  //<<<<<<<<<<<<<<<<<<<<<<<<<<<<<<<<<<<//


   ==> N-Body: Counterpoise Corrected (CP) energies <==

        n-Body     Total Energy            Interaction Energy                          N-body Contribution to Interaction Energy
                   [Eh]                    [Eh]                  [kcal/mol]            [Eh]                  [kcal/mol]
             1  N/A                         0.000000000000        0.000000000000        0.000000000000        0.000000000000
  FULL/RTN   2  N/A                        -0.067937463418      -42.631401919097       -0.067937463418      -42.631401919097


    Psi4 stopped on: Saturday, 06 January 2024 11:46PM
    Psi4 wall time for execution: 0:00:24.31

*** Psi4 exiting successfully. Buy a developer a beer!
