
    -----------------------------------------------------------------------
          Psi4: An Open-Source Ab Initio Electronic Structure Package
                               Psi4 1.8.2 release

                         Git: Rev {} zzzzzzz 


    D. G. A. Smith, L. A. Burns, A. C. Simmonett, R. M. Parrish,
    M. C. Schieber, R. Galvelis, P. Kraus, H. Kruse, R. Di Remigio,
    A. Alenaizan, A. M. James, S. Lehtola, J. P. Misiewicz, M. Scheurer,
    R. A. Shaw, J. B. Schriber, Y. Xie, Z. L. Glick, D. A. Sirianni,
    J. S. O'Brien, J. M. Waldrop, A. Kumar, E. G. Hohenstein,
    B. P. Pritchard, B. R. Brooks, H. F. Schaefer III, A. Yu. Sokolov,
    K. Patkowski, A. E. DePrince III, U. Bozkaya, R. A. King,
    F. A. Evangelista, J. M. Turney, T. D. Crawford, C. D. Sherrill,
    J. Chem. Phys. 152(18) 184108 (2020). https://doi.org/10.1063/5.0006002

                            Additional Code Authors
    E. T. Seidl, C. L. Janssen, E. F. Valeev, M. L. Leininger,
    J. F. Gonthier, R. M. Richard, H. R. McAlexander, M. Saitow, X. Wang,
    P. Verma, M. H. Lechner, A. Jiang, S. Behnle, A. G. Heide,
    M. F. Herbst, and D. L. Poole

             Previous Authors, Complete List of Code Contributors,
                       and Citations for Specific Modules
    https://github.com/psi4/psi4/blob/master/codemeta.json
    https://github.com/psi4/psi4/graphs/contributors
    http://psicode.org/psi4manual/master/introduction.html#citing-psifour

    -----------------------------------------------------------------------


    Psi4 started on: Monday, 22 January 2024 08:26PM

    Process ID: 103539
    Host:       ddmfs1
    PSIDATADIR: /ddmfs1b/softs/psi4conda/share/psi4
    Memory:     500.0 MiB
    Threads:    20
    
  ==> Input File <==

--------------------------------------------------------------------------
MEMORY 60 GB

molecule dimer {
0 1
Gh(Cl)     0.000000     0.000000     0.000000
Gh(O)      1.407818     2.519133    -1.259393
Gh(H)      1.027117     2.592937    -2.117333
Gh(H)      0.994561     1.714342    -0.954582
Gh(O)      3.058161    -0.076353     0.562502
Gh(H)      2.147380     0.078030     0.450617
Gh(H)      3.076044    -0.918720     1.134947
Gh(O)      1.402074    -2.853236    -0.379833
Gh(H)      2.341986    -2.667971    -0.026692
Gh(H)      0.924122    -2.036659    -0.373298
Gh(O)      1.041342     1.379260     2.538507
Gh(H)      0.658961     0.767611     1.918648
Gh(H)      0.313750     1.643816     3.141624
Gh(O)     -1.649480     2.733617     0.773527
Gh(H)     -0.887604     2.167739     0.492910
Gh(H)     -1.074723     3.432313     1.189528
O         -1.197686    -2.589481     1.589581
H         -1.610851    -2.489368     2.457896
H         -0.710748    -1.803117     1.436687

units ang
no_reorient
no_com
symmetry c1
}

set {
basis        aug-cc-pVTZ
scf_type     df
}

energy("mp2")
--------------------------------------------------------------------------

  Memory set to  55.879 GiB by Python driver.

Scratch directory: /ddmfs1a/scratch/
   => Libint2 <=

    Primary   basis highest AM E, G, H:  5, 4, 3
    Auxiliary basis highest AM E, G, H:  6, 5, 4
    Onebody   basis highest AM E, G, H:  6, 5, 4
    Solid Harmonics ordering:            gaussian

*** tstart() called on ddmfs1
*** at Mon Jan 22 20:26:59 2024

   => Loading Basis Set <=

    Name: AUG-CC-PVTZ
    Role: ORBITAL
    Keyword: BASIS
    atoms 1                                   entry CL         line   988 file /ddmfs1b/softs/psi4conda/share/psi4/basis/aug-cc-pvtz.gbs 
    atoms 2, 5, 8, 11, 14, 17                 entry O          line   331 file /ddmfs1b/softs/psi4conda/share/psi4/basis/aug-cc-pvtz.gbs 
    atoms 3-4, 6-7, 9-10, 12-13, 15-16, 18-19 entry H          line    40 file /ddmfs1b/softs/psi4conda/share/psi4/basis/aug-cc-pvtz.gbs 


         ---------------------------------------------------------
                                   SCF
               by Justin Turney, Rob Parrish, Andy Simmonett
                          and Daniel G. A. Smith
                              RHF Reference
                       20 Threads,  57220 MiB Core
         ---------------------------------------------------------

  ==> Geometry <==

    Molecular point group: c1
    Full point group: C1

    Geometry (in Angstrom), charge = 0, multiplicity = 1:

       Center              X                  Y                   Z               Mass       
    ------------   -----------------  -----------------  -----------------  -----------------
      Gh(CL)          0.000000000000     0.000000000000     0.000000000000    34.968852682000
      Gh(O)           1.407818000000     2.519133000000    -1.259393000000    15.994914619570
      Gh(H)           1.027117000000     2.592937000000    -2.117333000000     1.007825032230
      Gh(H)           0.994561000000     1.714342000000    -0.954582000000     1.007825032230
      Gh(O)           3.058161000000    -0.076353000000     0.562502000000    15.994914619570
      Gh(H)           2.147380000000     0.078030000000     0.450617000000     1.007825032230
      Gh(H)           3.076044000000    -0.918720000000     1.134947000000     1.007825032230
      Gh(O)           1.402074000000    -2.853236000000    -0.379833000000    15.994914619570
      Gh(H)           2.341986000000    -2.667971000000    -0.026692000000     1.007825032230
      Gh(H)           0.924122000000    -2.036659000000    -0.373298000000     1.007825032230
      Gh(O)           1.041342000000     1.379260000000     2.538507000000    15.994914619570
      Gh(H)           0.658961000000     0.767611000000     1.918648000000     1.007825032230
      Gh(H)           0.313750000000     1.643816000000     3.141624000000     1.007825032230
      Gh(O)          -1.649480000000     2.733617000000     0.773527000000    15.994914619570
      Gh(H)          -0.887604000000     2.167739000000     0.492910000000     1.007825032230
      Gh(H)          -1.074723000000     3.432313000000     1.189528000000     1.007825032230
         O           -1.197686000000    -2.589481000000     1.589581000000    15.994914619570
         H           -1.610851000000    -2.489368000000     2.457896000000     1.007825032230
         H           -0.710748000000    -1.803117000000     1.436687000000     1.007825032230

  Running in c1 symmetry.

  Rotational constants: A =      0.03125  B =      0.02237  C =      0.01937 [cm^-1]
  Rotational constants: A =    936.85978  B =    670.70135  C =    580.75564 [MHz]
  Nuclear repulsion =    9.241705712589527

  Charge       = 0
  Multiplicity = 1
  Electrons    = 10
  Nalpha       = 5
  Nbeta        = 5

  ==> Algorithm <==

  SCF Algorithm Type is DF.
  DIIS enabled.
  MOM disabled.
  Fractional occupation disabled.
  Guess Type is SAD.
  Energy threshold   = 1.00e-08
  Density threshold  = 1.00e-08
  Integral threshold = 1.00e-12

  ==> Primary Basis <==

  Basis Set: AUG-CC-PVTZ
    Blend: AUG-CC-PVTZ
    Number of shells: 208
    Number of basis functions: 602
    Number of Cartesian functions: 689
    Spherical Harmonics?: true
    Max angular momentum: 3

   => Loading Basis Set <=

    Name: (AUG-CC-PVTZ AUX)
    Role: JKFIT
    Keyword: DF_BASIS_SCF
    atoms 1                                   entry CL         line   816 file /ddmfs1b/softs/psi4conda/share/psi4/basis/aug-cc-pvtz-jkfit.gbs 
    atoms 2, 5, 8, 11, 14, 17                 entry O          line   286 file /ddmfs1b/softs/psi4conda/share/psi4/basis/aug-cc-pvtz-jkfit.gbs 
    atoms 3-4, 6-7, 9-10, 12-13, 15-16, 18-19 entry H          line    70 file /ddmfs1b/softs/psi4conda/share/psi4/basis/aug-cc-pvtz-jkfit.gbs 

  ==> Integral Setup <==

  DFHelper Memory: AOs need 3.253 GiB; user supplied 41.910 GiB. 
  Using in-core AOs.

  ==> MemDFJK: Density-Fitted J/K Matrices <==

    J tasked:                   Yes
    K tasked:                   Yes
    wK tasked:                   No
    OpenMP threads:              20
    Memory [MiB]:             42915
    Algorithm:                 Core
    Schwarz Cutoff:           1E-12
    Mask sparsity (%):      12.7885
    Fitting Condition:        1E-10

   => Auxiliary Basis Set <=

  Basis Set: (AUG-CC-PVTZ AUX)
    Blend: AUG-CC-PVTZ-JKFIT
    Number of shells: 390
    Number of basis functions: 1322
    Number of Cartesian functions: 1626
    Spherical Harmonics?: true
    Max angular momentum: 4

  Minimum eigenvalue in the overlap matrix is 7.2186045784E-05.
  Reciprocal condition number of the overlap matrix is 4.8670043578E-06.
    Using symmetric orthogonalization.

  ==> Pre-Iterations <==

  SCF Guess: Superposition of Atomic Densities via on-the-fly atomic UHF (no occupation information).

   -------------------------
    Irrep   Nso     Nmo    
   -------------------------
     A        602     602 
   -------------------------
    Total     602     602
   -------------------------

  ==> Iterations <==

                           Total Energy        Delta E     RMS |[F,P]|

   @DF-RHF iter SAD:   -75.48175785764505   -7.54818e+01   0.00000e+00 
   @DF-RHF iter   1:   -75.97656261093593   -4.94805e-01   7.79950e-04 DIIS/ADIIS
   @DF-RHF iter   2:   -76.02931793595107   -5.27553e-02   5.26467e-04 DIIS/ADIIS
   @DF-RHF iter   3:   -76.06014296202997   -3.08250e-02   3.57658e-05 DIIS
   @DF-RHF iter   4:   -76.06052614442461   -3.83182e-04   8.43048e-06 DIIS
   @DF-RHF iter   5:   -76.06054915781823   -2.30134e-05   1.89996e-06 DIIS
   @DF-RHF iter   6:   -76.06055102863559   -1.87082e-06   4.20345e-07 DIIS
   @DF-RHF iter   7:   -76.06055113046077   -1.01825e-07   7.82877e-08 DIIS
   @DF-RHF iter   8:   -76.06055113359295   -3.13219e-09   1.29529e-08 DIIS
   @DF-RHF iter   9:   -76.06055113366047   -6.75158e-11   3.19744e-09 DIIS
  Energy and wave function converged.


  ==> Post-Iterations <==

    Orbital Energies [Eh]
    ---------------------

    Doubly Occupied:                                                      

       1A    -20.565379     2A     -1.355098     3A     -0.724255  
       4A     -0.582194     5A     -0.510256  

    Virtual:                                                              

       6A      0.014726     7A      0.030917     8A      0.034134  
       9A      0.039651    10A      0.051058    11A      0.054705  
      12A      0.058166    13A      0.064686    14A      0.072405  
      15A      0.074627    16A      0.088634    17A      0.094768  
      18A      0.102209    19A      0.118676    20A      0.121163  
      21A      0.123962    22A      0.135703    23A      0.142584  
      24A      0.146879    25A      0.152463    26A      0.157936  
      27A      0.160014    28A      0.164548    29A      0.167524  
      30A      0.171409    31A      0.179225    32A      0.189975  
      33A      0.192161    34A      0.195809    35A      0.203644  
      36A      0.211228    37A      0.219226    38A      0.221736  
      39A      0.223541    40A      0.228791    41A      0.230958  
      42A      0.242446    43A      0.248676    44A      0.252637  
      45A      0.260421    46A      0.276572    47A      0.277760  
      48A      0.285247    49A      0.292444    50A      0.303213  
      51A      0.311098    52A      0.315913    53A      0.319257  
      54A      0.329314    55A      0.334684    56A      0.340137  
      57A      0.341385    58A      0.346291    59A      0.350445  
      60A      0.354181    61A      0.367406    62A      0.374945  
      63A      0.380361    64A      0.387520    65A      0.391073  
      66A      0.394526    67A      0.400751    68A      0.404449  
      69A      0.410398    70A      0.412000    71A      0.415096  
      72A      0.424920    73A      0.432924    74A      0.440686  
      75A      0.445515    76A      0.451693    77A      0.459450  
      78A      0.460758    79A      0.470752    80A      0.474027  
      81A      0.478143    82A      0.487283    83A      0.496472  
      84A      0.509868    85A      0.514404    86A      0.523012  
      87A      0.542274    88A      0.556735    89A      0.565873  
      90A      0.577897    91A      0.587929    92A      0.596147  
      93A      0.615337    94A      0.624184    95A      0.628766  
      96A      0.647100    97A      0.664614    98A      0.675172  
      99A      0.681231   100A      0.687228   101A      0.698151  
     102A      0.703809   103A      0.718732   104A      0.723473  
     105A      0.725896   106A      0.733306   107A      0.735660  
     108A      0.751312   109A      0.765872   110A      0.768375  
     111A      0.772404   112A      0.776889   113A      0.785441  
     114A      0.786424   115A      0.796037   116A      0.807298  
     117A      0.812220   118A      0.813191   119A      0.818236  
     120A      0.821858   121A      0.835768   122A      0.843000  
     123A      0.849414   124A      0.851471   125A      0.859794  
     126A      0.863272   127A      0.871298   128A      0.875920  
     129A      0.879359   130A      0.885531   131A      0.893476  
     132A      0.897602   133A      0.902630   134A      0.906786  
     135A      0.910567   136A      0.918731   137A      0.919521  
     138A      0.923848   139A      0.930813   140A      0.936532  
     141A      0.942396   142A      0.945063   143A      0.954086  
     144A      0.964825   145A      0.970408   146A      0.977252  
     147A      0.984099   148A      0.995069   149A      1.003729  
     150A      1.005184   151A      1.009283   152A      1.014771  
     153A      1.017870   154A      1.022605   155A      1.025913  
     156A      1.033529   157A      1.035851   158A      1.042565  
     159A      1.050402   160A      1.062736   161A      1.070795  
     162A      1.075894   163A      1.086987   164A      1.088577  
     165A      1.104669   166A      1.112114   167A      1.112986  
     168A      1.125217   169A      1.134964   170A      1.142994  
     171A      1.150559   172A      1.159081   173A      1.165322  
     174A      1.177134   175A      1.183045   176A      1.193365  
     177A      1.196444   178A      1.207268   179A      1.208648  
     180A      1.217987   181A      1.225135   182A      1.227233  
     183A      1.246441   184A      1.251663   185A      1.258147  
     186A      1.269473   187A      1.279723   188A      1.297343  
     189A      1.301119   190A      1.312422   191A      1.319931  
     192A      1.323121   193A      1.324836   194A      1.349582  
     195A      1.356085   196A      1.367960   197A      1.375489  
     198A      1.387439   199A      1.401039   200A      1.409423  
     201A      1.413784   202A      1.422603   203A      1.430326  
     204A      1.442157   205A      1.447167   206A      1.451635  
     207A      1.467370   208A      1.480405   209A      1.488637  
     210A      1.500789   211A      1.503710   212A      1.523109  
     213A      1.537286   214A      1.552226   215A      1.557449  
     216A      1.565171   217A      1.577260   218A      1.591154  
     219A      1.606753   220A      1.612434   221A      1.618195  
     222A      1.627807   223A      1.644520   224A      1.655789  
     225A      1.669423   226A      1.678366   227A      1.692156  
     228A      1.705917   229A      1.713365   230A      1.726355  
     231A      1.731700   232A      1.740504   233A      1.760595  
     234A      1.764442   235A      1.772050   236A      1.785280  
     237A      1.794117   238A      1.804639   239A      1.811261  
     240A      1.816657   241A      1.825585   242A      1.833460  
     243A      1.846301   244A      1.853764   245A      1.862121  
     246A      1.871570   247A      1.874951   248A      1.894519  
     249A      1.903715   250A      1.907523   251A      1.913798  
     252A      1.930510   253A      1.936653   254A      1.964072  
     255A      1.973203   256A      1.980785   257A      1.993667  
     258A      2.003053   259A      2.006535   260A      2.015876  
     261A      2.042594   262A      2.057643   263A      2.069047  
     264A      2.080971   265A      2.088304   266A      2.103739  
     267A      2.133480   268A      2.145747   269A      2.161024  
     270A      2.199945   271A      2.203348   272A      2.242368  
     273A      2.258361   274A      2.279074   275A      2.294520  
     276A      2.329871   277A      2.332213   278A      2.380330  
     279A      2.390567   280A      2.425790   281A      2.446279  
     282A      2.454536   283A      2.487771   284A      2.488781  
     285A      2.506248   286A      2.512181   287A      2.524449  
     288A      2.525168   289A      2.537997   290A      2.549630  
     291A      2.561778   292A      2.565728   293A      2.585757  
     294A      2.596319   295A      2.604770   296A      2.614795  
     297A      2.620448   298A      2.625414   299A      2.640223  
     300A      2.649643   301A      2.657834   302A      2.672907  
     303A      2.674601   304A      2.686657   305A      2.704487  
     306A      2.711940   307A      2.724140   308A      2.737335  
     309A      2.748661   310A      2.756454   311A      2.758728  
     312A      2.764916   313A      2.776534   314A      2.790658  
     315A      2.791780   316A      2.812907   317A      2.823908  
     318A      2.834125   319A      2.854445   320A      2.869888  
     321A      2.876747   322A      2.901208   323A      2.913217  
     324A      2.919579   325A      2.944817   326A      2.955437  
     327A      2.963666   328A      2.983204   329A      2.997886  
     330A      3.012684   331A      3.016354   332A      3.025339  
     333A      3.031824   334A      3.040232   335A      3.089087  
     336A      3.114000   337A      3.119759   338A      3.145718  
     339A      3.201185   340A      3.210371   341A      3.211720  
     342A      3.236743   343A      3.249511   344A      3.252236  
     345A      3.263562   346A      3.284341   347A      3.308480  
     348A      3.346576   349A      3.374499   350A      3.386661  
     351A      3.421728   352A      3.446206   353A      3.470705  
     354A      3.487715   355A      3.523036   356A      3.544641  
     357A      3.549682   358A      3.585136   359A      3.595683  
     360A      3.600714   361A      3.623921   362A      3.643035  
     363A      3.664918   364A      3.682818   365A      3.706873  
     366A      3.739374   367A      3.758851   368A      3.774107  
     369A      3.845236   370A      3.868750   371A      3.909748  
     372A      3.948684   373A      3.989264   374A      4.022628  
     375A      4.091328   376A      4.191644   377A      4.222333  
     378A      4.266585   379A      4.292312   380A      4.313825  
     381A      4.345269   382A      4.354939   383A      4.377306  
     384A      4.388308   385A      4.408480   386A      4.414961  
     387A      4.423410   388A      4.435524   389A      4.446404  
     390A      4.462848   391A      4.475193   392A      4.482982  
     393A      4.488005   394A      4.491703   395A      4.506504  
     396A      4.508796   397A      4.514015   398A      4.524251  
     399A      4.542614   400A      4.543112   401A      4.561820  
     402A      4.582061   403A      4.606867   404A      4.619919  
     405A      4.631224   406A      4.641228   407A      4.655160  
     408A      4.663540   409A      4.677137   410A      4.692553  
     411A      4.711017   412A      4.723359   413A      4.736888  
     414A      4.745706   415A      4.761331   416A      4.788611  
     417A      4.792169   418A      4.807649   419A      4.826231  
     420A      4.831177   421A      4.854414   422A      4.868444  
     423A      4.885324   424A      4.902533   425A      4.914050  
     426A      4.935343   427A      4.938746   428A      4.950108  
     429A      4.955191   430A      4.964622   431A      4.980438  
     432A      5.000444   433A      5.012137   434A      5.024723  
     435A      5.031104   436A      5.060659   437A      5.077740  
     438A      5.098392   439A      5.114640   440A      5.147237  
     441A      5.179779   442A      5.196022   443A      5.208562  
     444A      5.219186   445A      5.226597   446A      5.261961  
     447A      5.291855   448A      5.345598   449A      5.357742  
     450A      5.380584   451A      5.392110   452A      5.423951  
     453A      5.442692   454A      5.470329   455A      5.485471  
     456A      5.514526   457A      5.522250   458A      5.525774  
     459A      5.565431   460A      5.573762   461A      5.582564  
     462A      5.614664   463A      5.624769   464A      5.640879  
     465A      5.674653   466A      5.698781   467A      5.735930  
     468A      5.748774   469A      5.759825   470A      5.762902  
     471A      5.815323   472A      5.833065   473A      5.876194  
     474A      5.922734   475A      5.943662   476A      5.961614  
     477A      6.043302   478A      6.164648   479A      6.193329  
     480A      6.201966   481A      6.211686   482A      6.248331  
     483A      6.261931   484A      6.283786   485A      6.421042  
     486A      6.465616   487A      6.511041   488A      6.532356  
     489A      6.586775   490A      6.606269   491A      6.626535  
     492A      6.662116   493A      6.785217   494A      6.806593  
     495A      6.829821   496A      6.977205   497A      6.991189  
     498A      7.148331   499A      7.155736   500A      7.172003  
     501A      7.188640   502A      7.221503   503A      7.306042  
     504A      7.366241   505A      7.385563   506A      7.445175  
     507A      7.503523   508A      7.720520   509A      7.747754  
     510A      7.763079   511A      7.784190   512A      7.811135  
     513A      7.821598   514A      7.837179   515A      7.891709  
     516A      7.936649   517A      7.945505   518A      7.952416  
     519A      8.006546   520A      8.017525   521A      8.037444  
     522A      8.056200   523A      8.064773   524A      8.087864  
     525A      8.106508   526A      8.126194   527A      8.219285  
     528A      8.222648   529A      8.257796   530A      8.263370  
     531A      8.304003   532A      8.335907   533A      8.349708  
     534A      8.403244   535A      8.407862   536A      8.623334  
     537A      8.735017   538A      8.784894   539A      8.818910  
     540A      8.845690   541A      8.870452   542A      8.928623  
     543A      9.036175   544A      9.075365   545A      9.100848  
     546A      9.188820   547A      9.668537   548A      9.790246  
     549A      9.800008   550A      9.810615   551A      9.885984  
     552A      9.904898   553A      9.914548   554A      9.928781  
     555A      9.940188   556A      9.963215   557A     10.083990  
     558A     10.108658   559A     10.120183   560A     10.123976  
     561A     10.165231   562A     10.328030   563A     10.353272  
     564A     10.367977   565A     10.375126   566A     10.435906  
     567A     10.972687   568A     11.032221   569A     11.106981  
     570A     11.189267   571A     11.383172   572A     11.771952  
     573A     11.791956   574A     11.815455   575A     11.838165  
     576A     11.873252   577A     11.893318   578A     12.194089  
     579A     12.227934   580A     12.388829   581A     12.434066  
     582A     13.548456   583A     13.560957   584A     13.672797  
     585A     13.728199   586A     13.791335   587A     13.926063  
     588A     14.043333   589A     14.059493   590A     14.075427  
     591A     14.148753   592A     16.641578   593A     16.889291  
     594A     28.403553   595A     28.457724   596A     28.620692  
     597A     64.459108   598A     66.333194   599A     66.650640  
     600A     67.569858   601A     67.984134   602A    161.010074  

    Final Occupation by Irrep:
              A 
    DOCC [     5 ]
    NA   [     5 ]
    NB   [     5 ]

  @DF-RHF Final Energy:   -76.06055113366047

   => Energetics <=

    Nuclear Repulsion Energy =              9.2417057125895266
    One-Electron Energy =                -123.1301491930140770
    Two-Electron Energy =                  37.8278923467640880
    Total Energy =                        -76.0605511336604678

Computation Completed


Properties will be evaluated at   0.000000,   0.000000,   0.000000 [a0]

Properties computed using the SCF density matrix


 Multipole Moments:

 ------------------------------------------------------------------------------------
     Multipole            Electronic (a.u.)      Nuclear  (a.u.)        Total (a.u.)
 ------------------------------------------------------------------------------------

 L = 1.  Multiply by 2.5417464519 to convert [e a0] to [Debye]
 Dipole X            :         22.5462229          -22.4935745            0.0526484
 Dipole Y            :         47.8566229          -47.2589002            0.5977227
 Dipole Z            :        -30.9134966           31.3906772            0.4771805
 Magnitude           :                                                    0.7666456

 ------------------------------------------------------------------------------------

*** tstop() called on ddmfs1 at Mon Jan 22 20:27:07 2024
Module time:
	user time   =     131.51 seconds =       2.19 minutes
	system time =       6.59 seconds =       0.11 minutes
	total time  =          8 seconds =       0.13 minutes
Total time:
	user time   =     131.51 seconds =       2.19 minutes
	system time =       6.59 seconds =       0.11 minutes
	total time  =          8 seconds =       0.13 minutes

*** tstart() called on ddmfs1
*** at Mon Jan 22 20:27:07 2024


  //>>>>>>>>>>>>>>>>>>>>>>>>>>>>>>>>>>>//
  //               DFMP2               //
  //<<<<<<<<<<<<<<<<<<<<<<<<<<<<<<<<<<<//

   => Loading Basis Set <=

    Name: (AUG-CC-PVTZ AUX)
    Role: RIFIT
    Keyword: DF_BASIS_MP2
    atoms 1                                   entry CL         line   742 file /ddmfs1b/softs/psi4conda/share/psi4/basis/aug-cc-pvtz-ri.gbs 
    atoms 2, 5, 8, 11, 14, 17                 entry O          line   264 file /ddmfs1b/softs/psi4conda/share/psi4/basis/aug-cc-pvtz-ri.gbs 
    atoms 3-4, 6-7, 9-10, 12-13, 15-16, 18-19 entry H          line    30 file /ddmfs1b/softs/psi4conda/share/psi4/basis/aug-cc-pvtz-ri.gbs 

	 --------------------------------------------------------
	                          DF-MP2                         
	      2nd-Order Density-Fitted Moller-Plesset Theory     
	              RMP2 Wavefunction,  20 Threads             
	                                                         
	        Rob Parrish, Justin Turney, Andy Simmonett,      
	           Ed Hohenstein, and C. David Sherrill          
	 --------------------------------------------------------

   => Auxiliary Basis Set <=

  Basis Set: (AUG-CC-PVTZ AUX)
    Blend: AUG-CC-PVTZ-RI
    Number of shells: 373
    Number of basis functions: 1335
    Number of Cartesian functions: 1667
    Spherical Harmonics?: true
    Max angular momentum: 4

	 --------------------------------------------------------
	                 NBF =   602, NAUX =  1335
	 --------------------------------------------------------
	   CLASS    FOCC     OCC    AOCC    AVIR     VIR    FVIR
	   PAIRS       0       5       5     597     597       0
	 --------------------------------------------------------

	-----------------------------------------------------------
	 ==================> DF-MP2 Energies <==================== 
	-----------------------------------------------------------
	 Reference Energy          =     -76.0605511336604678 [Eh]
	 Singles Energy            =      -0.0000000000000000 [Eh]
	 Same-Spin Energy          =      -0.0682720988060372 [Eh]
	 Opposite-Spin Energy      =      -0.2154516942811203 [Eh]
	 Correlation Energy        =      -0.2837237930871575 [Eh]
	 Total Energy              =     -76.3442749267476302 [Eh]
	-----------------------------------------------------------
	 ================> DF-SCS-MP2 Energies <================== 
	-----------------------------------------------------------
	 SCS Same-Spin Scale       =       0.3333333333333333 [-]
	 SCS Opposite-Spin Scale   =       1.2000000000000000 [-]
	 SCS Same-Spin Energy      =      -0.0227573662686791 [Eh]
	 SCS Opposite-Spin Energy  =      -0.2585420331373444 [Eh]
	 SCS Correlation Energy    =      -0.2812993994060234 [Eh]
	 SCS Total Energy          =     -76.3418505330664914 [Eh]
	-----------------------------------------------------------


*** tstop() called on ddmfs1 at Mon Jan 22 20:27:14 2024
Module time:
	user time   =      35.54 seconds =       0.59 minutes
	system time =       2.11 seconds =       0.04 minutes
	total time  =          7 seconds =       0.12 minutes
Total time:
	user time   =     167.07 seconds =       2.78 minutes
	system time =       8.71 seconds =       0.15 minutes
	total time  =         15 seconds =       0.25 minutes

    Psi4 stopped on: Monday, 22 January 2024 08:27PM
    Psi4 wall time for execution: 0:00:15.52

*** Psi4 exiting successfully. Buy a developer a beer!
