
    -----------------------------------------------------------------------
          Psi4: An Open-Source Ab Initio Electronic Structure Package
                               Psi4 1.8.2 release

                         Git: Rev {} zzzzzzz 


    D. G. A. Smith, L. A. Burns, A. C. Simmonett, R. M. Parrish,
    M. C. Schieber, R. Galvelis, P. Kraus, H. Kruse, R. Di Remigio,
    A. Alenaizan, A. M. James, S. Lehtola, J. P. Misiewicz, M. Scheurer,
    R. A. Shaw, J. B. Schriber, Y. Xie, Z. L. Glick, D. A. Sirianni,
    J. S. O'Brien, J. M. Waldrop, A. Kumar, E. G. Hohenstein,
    B. P. Pritchard, B. R. Brooks, H. F. Schaefer III, A. Yu. Sokolov,
    K. Patkowski, A. E. DePrince III, U. Bozkaya, R. A. King,
    F. A. Evangelista, J. M. Turney, T. D. Crawford, C. D. Sherrill,
    J. Chem. Phys. 152(18) 184108 (2020). https://doi.org/10.1063/5.0006002

                            Additional Code Authors
    E. T. Seidl, C. L. Janssen, E. F. Valeev, M. L. Leininger,
    J. F. Gonthier, R. M. Richard, H. R. McAlexander, M. Saitow, X. Wang,
    P. Verma, M. H. Lechner, A. Jiang, S. Behnle, A. G. Heide,
    M. F. Herbst, and D. L. Poole

             Previous Authors, Complete List of Code Contributors,
                       and Citations for Specific Modules
    https://github.com/psi4/psi4/blob/master/codemeta.json
    https://github.com/psi4/psi4/graphs/contributors
    http://psicode.org/psi4manual/master/introduction.html#citing-psifour

    -----------------------------------------------------------------------


    Psi4 started on: Monday, 22 January 2024 09:36PM

    Process ID: 110113
    Host:       ddmfs1
    PSIDATADIR: /ddmfs1b/softs/psi4conda/share/psi4
    Memory:     500.0 MiB
    Threads:    20
    
  ==> Input File <==

--------------------------------------------------------------------------
MEMORY 60 GB

molecule dimer {
0 1
Gh(Cl)     0.000000     0.000000     0.000000
O          2.151842     1.930427    -1.340171
H          1.350694     1.443964    -1.092752
H          2.600730     2.059208    -0.557280
Gh(O)     -0.845603    -1.954378    -2.400622
Gh(H)     -0.576408    -1.381923    -1.685351
Gh(H)     -0.891883    -2.856008    -2.074388
Gh(O)     -2.695475     1.706640    -1.327933
Gh(H)     -1.902725     1.294081    -0.924358
Gh(H)     -2.569155     2.694294    -1.426749
Gh(O)     -2.474764    -2.030755     0.960515
Gh(H)     -3.239782    -1.595363     0.512300
Gh(H)     -1.802427    -1.355761     0.798361
Gh(O)     -1.355417     2.160929     1.846580
Gh(H)     -0.713707     2.483561     2.470183
Gh(H)     -1.000521     1.322098     1.546916

units ang
no_reorient
no_com
symmetry c1
}

set {
basis        aug-cc-pVTZ
scf_type     df
}

energy("mp2")
--------------------------------------------------------------------------

  Memory set to  55.879 GiB by Python driver.

Scratch directory: /ddmfs1a/scratch/
   => Libint2 <=

    Primary   basis highest AM E, G, H:  5, 4, 3
    Auxiliary basis highest AM E, G, H:  6, 5, 4
    Onebody   basis highest AM E, G, H:  6, 5, 4
    Solid Harmonics ordering:            gaussian

*** tstart() called on ddmfs1
*** at Mon Jan 22 21:36:34 2024

   => Loading Basis Set <=

    Name: AUG-CC-PVTZ
    Role: ORBITAL
    Keyword: BASIS
    atoms 1                            entry CL         line   988 file /ddmfs1b/softs/psi4conda/share/psi4/basis/aug-cc-pvtz.gbs 
    atoms 2, 5, 8, 11, 14              entry O          line   331 file /ddmfs1b/softs/psi4conda/share/psi4/basis/aug-cc-pvtz.gbs 
    atoms 3-4, 6-7, 9-10, 12-13, 15-16 entry H          line    40 file /ddmfs1b/softs/psi4conda/share/psi4/basis/aug-cc-pvtz.gbs 


         ---------------------------------------------------------
                                   SCF
               by Justin Turney, Rob Parrish, Andy Simmonett
                          and Daniel G. A. Smith
                              RHF Reference
                       20 Threads,  57220 MiB Core
         ---------------------------------------------------------

  ==> Geometry <==

    Molecular point group: c1
    Full point group: C1

    Geometry (in Angstrom), charge = 0, multiplicity = 1:

       Center              X                  Y                   Z               Mass       
    ------------   -----------------  -----------------  -----------------  -----------------
      Gh(CL)          0.000000000000     0.000000000000     0.000000000000    34.968852682000
         O            2.151842000000     1.930427000000    -1.340171000000    15.994914619570
         H            1.350694000000     1.443964000000    -1.092752000000     1.007825032230
         H            2.600730000000     2.059208000000    -0.557280000000     1.007825032230
      Gh(O)          -0.845603000000    -1.954378000000    -2.400622000000    15.994914619570
      Gh(H)          -0.576408000000    -1.381923000000    -1.685351000000     1.007825032230
      Gh(H)          -0.891883000000    -2.856008000000    -2.074388000000     1.007825032230
      Gh(O)          -2.695475000000     1.706640000000    -1.327933000000    15.994914619570
      Gh(H)          -1.902725000000     1.294081000000    -0.924358000000     1.007825032230
      Gh(H)          -2.569155000000     2.694294000000    -1.426749000000     1.007825032230
      Gh(O)          -2.474764000000    -2.030755000000     0.960515000000    15.994914619570
      Gh(H)          -3.239782000000    -1.595363000000     0.512300000000     1.007825032230
      Gh(H)          -1.802427000000    -1.355761000000     0.798361000000     1.007825032230
      Gh(O)          -1.355417000000     2.160929000000     1.846580000000    15.994914619570
      Gh(H)          -0.713707000000     2.483561000000     2.470183000000     1.007825032230
      Gh(H)          -1.000521000000     1.322098000000     1.546916000000     1.007825032230

  Running in c1 symmetry.

  Rotational constants: A =      0.03150  B =      0.02702  C =      0.02276 [cm^-1]
  Rotational constants: A =    944.21599  B =    810.01558  C =    682.36296 [MHz]
  Nuclear repulsion =    9.365640869254545

  Charge       = 0
  Multiplicity = 1
  Electrons    = 10
  Nalpha       = 5
  Nbeta        = 5

  ==> Algorithm <==

  SCF Algorithm Type is DF.
  DIIS enabled.
  MOM disabled.
  Fractional occupation disabled.
  Guess Type is SAD.
  Energy threshold   = 1.00e-08
  Density threshold  = 1.00e-08
  Integral threshold = 1.00e-12

  ==> Primary Basis <==

  Basis Set: AUG-CC-PVTZ
    Blend: AUG-CC-PVTZ
    Number of shells: 176
    Number of basis functions: 510
    Number of Cartesian functions: 584
    Spherical Harmonics?: true
    Max angular momentum: 3

   => Loading Basis Set <=

    Name: (AUG-CC-PVTZ AUX)
    Role: JKFIT
    Keyword: DF_BASIS_SCF
    atoms 1                            entry CL         line   816 file /ddmfs1b/softs/psi4conda/share/psi4/basis/aug-cc-pvtz-jkfit.gbs 
    atoms 2, 5, 8, 11, 14              entry O          line   286 file /ddmfs1b/softs/psi4conda/share/psi4/basis/aug-cc-pvtz-jkfit.gbs 
    atoms 3-4, 6-7, 9-10, 12-13, 15-16 entry H          line    70 file /ddmfs1b/softs/psi4conda/share/psi4/basis/aug-cc-pvtz-jkfit.gbs 

  ==> Integral Setup <==

  DFHelper Memory: AOs need 1.997 GiB; user supplied 41.910 GiB. 
  Using in-core AOs.

  ==> MemDFJK: Density-Fitted J/K Matrices <==

    J tasked:                   Yes
    K tasked:                   Yes
    wK tasked:                   No
    OpenMP threads:              20
    Memory [MiB]:             42915
    Algorithm:                 Core
    Schwarz Cutoff:           1E-12
    Mask sparsity (%):      13.1011
    Fitting Condition:        1E-10

   => Auxiliary Basis Set <=

  Basis Set: (AUG-CC-PVTZ AUX)
    Blend: AUG-CC-PVTZ-JKFIT
    Number of shells: 332
    Number of basis functions: 1126
    Number of Cartesian functions: 1385
    Spherical Harmonics?: true
    Max angular momentum: 4

  Minimum eigenvalue in the overlap matrix is 1.6143590579E-04.
  Reciprocal condition number of the overlap matrix is 1.3108823514E-05.
    Using symmetric orthogonalization.

  ==> Pre-Iterations <==

  SCF Guess: Superposition of Atomic Densities via on-the-fly atomic UHF (no occupation information).

   -------------------------
    Irrep   Nso     Nmo    
   -------------------------
     A        510     510 
   -------------------------
    Total     510     510
   -------------------------

  ==> Iterations <==

                           Total Energy        Delta E     RMS |[F,P]|

   @DF-RHF iter SAD:   -75.49528383071073   -7.54953e+01   0.00000e+00 
   @DF-RHF iter   1:   -75.97522366692662   -4.79940e-01   9.25029e-04 ADIIS/DIIS
   @DF-RHF iter   2:   -76.02864810693927   -5.34244e-02   6.17514e-04 ADIIS/DIIS
   @DF-RHF iter   3:   -76.05891970493214   -3.02716e-02   4.19371e-05 DIIS
   @DF-RHF iter   4:   -76.05929228720628   -3.72582e-04   9.66754e-06 DIIS
   @DF-RHF iter   5:   -76.05931364855476   -2.13613e-05   2.18095e-06 DIIS
   @DF-RHF iter   6:   -76.05931538287781   -1.73432e-06   4.81941e-07 DIIS
   @DF-RHF iter   7:   -76.05931547708673   -9.42089e-08   8.88914e-08 DIIS
   @DF-RHF iter   8:   -76.05931547993923   -2.85250e-09   1.46437e-08 DIIS
   @DF-RHF iter   9:   -76.05931547999921   -5.99840e-11   3.58331e-09 DIIS
  Energy and wave function converged.


  ==> Post-Iterations <==

    Orbital Energies [Eh]
    ---------------------

    Doubly Occupied:                                                      

       1A    -20.563753     2A     -1.362919     3A     -0.728308  
       4A     -0.586902     5A     -0.511711  

    Virtual:                                                              

       6A      0.014552     7A      0.030457     8A      0.036836  
       9A      0.039672    10A      0.051178    11A      0.052887  
      12A      0.061156    13A      0.075776    14A      0.079764  
      15A      0.084854    16A      0.093312    17A      0.106851  
      18A      0.116702    19A      0.124747    20A      0.131794  
      21A      0.139244    22A      0.148045    23A      0.152367  
      24A      0.152558    25A      0.153269    26A      0.164450  
      27A      0.171313    28A      0.175223    29A      0.184216  
      30A      0.186154    31A      0.197352    32A      0.200133  
      33A      0.202679    34A      0.206614    35A      0.221206  
      36A      0.226003    37A      0.227163    38A      0.243690  
      39A      0.252666    40A      0.262327    41A      0.262951  
      42A      0.272213    43A      0.277737    44A      0.292210  
      45A      0.301504    46A      0.306337    47A      0.314238  
      48A      0.319352    49A      0.321400    50A      0.328221  
      51A      0.336623    52A      0.338824    53A      0.341374  
      54A      0.352323    55A      0.355277    56A      0.358999  
      57A      0.367853    58A      0.378375    59A      0.382992  
      60A      0.387811    61A      0.390778    62A      0.401747  
      63A      0.408009    64A      0.415919    65A      0.427308  
      66A      0.429962    67A      0.436525    68A      0.446726  
      69A      0.452552    70A      0.465070    71A      0.468558  
      72A      0.473504    73A      0.485426    74A      0.504793  
      75A      0.508374    76A      0.529643    77A      0.547848  
      78A      0.556824    79A      0.568370    80A      0.594465  
      81A      0.606304    82A      0.619027    83A      0.631052  
      84A      0.638384    85A      0.648408    86A      0.652102  
      87A      0.660399    88A      0.686391    89A      0.692895  
      90A      0.705264    91A      0.726773    92A      0.731875  
      93A      0.737602    94A      0.741688    95A      0.744868  
      96A      0.748142    97A      0.759817    98A      0.764559  
      99A      0.770656   100A      0.777483   101A      0.790738  
     102A      0.797132   103A      0.800217   104A      0.802929  
     105A      0.817097   106A      0.820237   107A      0.824844  
     108A      0.828096   109A      0.842193   110A      0.843497  
     111A      0.849088   112A      0.854478   113A      0.860481  
     114A      0.867336   115A      0.879098   116A      0.880989  
     117A      0.889389   118A      0.894044   119A      0.898560  
     120A      0.905207   121A      0.912039   122A      0.919311  
     123A      0.925552   124A      0.933719   125A      0.946400  
     126A      0.949782   127A      0.952839   128A      0.955168  
     129A      0.967893   130A      0.968665   131A      0.976971  
     132A      0.979067   133A      0.991465   134A      0.996838  
     135A      1.009407   136A      1.010476   137A      1.014517  
     138A      1.024750   139A      1.030695   140A      1.033550  
     141A      1.038700   142A      1.044879   143A      1.050920  
     144A      1.058596   145A      1.075915   146A      1.080453  
     147A      1.088493   148A      1.097596   149A      1.099123  
     150A      1.106040   151A      1.128336   152A      1.141662  
     153A      1.144580   154A      1.156660   155A      1.160482  
     156A      1.170916   157A      1.184722   158A      1.187908  
     159A      1.196429   160A      1.198461   161A      1.201486  
     162A      1.219277   163A      1.223951   164A      1.246934  
     165A      1.262346   166A      1.277957   167A      1.287998  
     168A      1.292514   169A      1.303205   170A      1.318533  
     171A      1.340253   172A      1.341937   173A      1.358255  
     174A      1.366462   175A      1.373062   176A      1.394487  
     177A      1.401501   178A      1.412257   179A      1.426224  
     180A      1.443660   181A      1.458857   182A      1.472440  
     183A      1.481022   184A      1.490786   185A      1.495945  
     186A      1.506502   187A      1.508966   188A      1.521648  
     189A      1.541914   190A      1.564052   191A      1.589271  
     192A      1.600282   193A      1.617786   194A      1.633674  
     195A      1.635213   196A      1.654919   197A      1.672572  
     198A      1.708110   199A      1.716050   200A      1.728000  
     201A      1.737282   202A      1.742640   203A      1.746044  
     204A      1.767606   205A      1.770736   206A      1.783917  
     207A      1.795540   208A      1.802107   209A      1.811610  
     210A      1.818162   211A      1.836567   212A      1.855229  
     213A      1.858052   214A      1.870918   215A      1.875860  
     216A      1.887188   217A      1.913173   218A      1.917781  
     219A      1.934079   220A      1.946670   221A      1.949995  
     222A      1.967380   223A      1.970746   224A      1.985574  
     225A      1.996740   226A      2.025782   227A      2.032528  
     228A      2.059633   229A      2.063203   230A      2.081618  
     231A      2.125237   232A      2.156430   233A      2.169976  
     234A      2.192436   235A      2.220006   236A      2.231295  
     237A      2.275765   238A      2.310019   239A      2.328923  
     240A      2.407818   241A      2.437229   242A      2.457377  
     243A      2.472053   244A      2.480208   245A      2.483726  
     246A      2.495840   247A      2.503948   248A      2.511300  
     249A      2.517474   250A      2.521348   251A      2.529056  
     252A      2.540945   253A      2.558612   254A      2.568961  
     255A      2.570228   256A      2.580297   257A      2.600088  
     258A      2.607796   259A      2.623858   260A      2.632015  
     261A      2.649639   262A      2.662921   263A      2.665921  
     264A      2.689880   265A      2.700885   266A      2.705157  
     267A      2.720016   268A      2.723876   269A      2.735470  
     270A      2.744652   271A      2.759451   272A      2.762638  
     273A      2.772800   274A      2.780129   275A      2.806486  
     276A      2.813392   277A      2.855939   278A      2.867306  
     279A      2.876505   280A      2.900371   281A      2.920846  
     282A      2.956404   283A      2.987575   284A      3.003986  
     285A      3.013132   286A      3.027632   287A      3.038174  
     288A      3.168198   289A      3.177353   290A      3.202344  
     291A      3.213961   292A      3.223520   293A      3.237008  
     294A      3.240061   295A      3.278445   296A      3.287649  
     297A      3.315469   298A      3.342873   299A      3.369962  
     300A      3.398001   301A      3.424084   302A      3.448149  
     303A      3.462722   304A      3.473970   305A      3.503004  
     306A      3.551289   307A      3.588872   308A      3.603118  
     309A      3.624402   310A      3.635154   311A      3.668188  
     312A      3.789944   313A      3.800161   314A      3.827460  
     315A      3.847536   316A      3.856723   317A      3.969256  
     318A      4.086404   319A      4.149611   320A      4.193144  
     321A      4.211246   322A      4.241717   323A      4.251229  
     324A      4.302968   325A      4.317791   326A      4.324217  
     327A      4.347071   328A      4.357746   329A      4.366430  
     330A      4.373648   331A      4.403506   332A      4.410744  
     333A      4.426149   334A      4.435233   335A      4.450625  
     336A      4.452956   337A      4.459522   338A      4.473088  
     339A      4.484298   340A      4.504829   341A      4.506776  
     342A      4.516379   343A      4.542058   344A      4.549037  
     345A      4.563905   346A      4.575998   347A      4.583114  
     348A      4.600712   349A      4.632647   350A      4.634770  
     351A      4.642991   352A      4.668044   353A      4.674628  
     354A      4.713011   355A      4.721402   356A      4.735158  
     357A      4.765347   358A      4.778081   359A      4.811570  
     360A      4.820149   361A      4.846906   362A      4.860438  
     363A      4.878654   364A      4.890800   365A      4.905597  
     366A      4.908986   367A      4.927804   368A      4.932631  
     369A      4.956696   370A      4.968827   371A      4.982519  
     372A      5.000231   373A      5.004392   374A      5.020968  
     375A      5.050704   376A      5.094483   377A      5.118495  
     378A      5.159472   379A      5.199952   380A      5.212898  
     381A      5.242320   382A      5.253473   383A      5.276423  
     384A      5.316444   385A      5.351539   386A      5.375718  
     387A      5.416595   388A      5.484875   389A      5.491925  
     390A      5.522572   391A      5.539988   392A      5.553692  
     393A      5.569900   394A      5.579808   395A      5.613108  
     396A      5.617823   397A      5.624409   398A      5.654868  
     399A      5.694438   400A      5.706883   401A      5.721511  
     402A      5.759229   403A      5.794269   404A      5.873857  
     405A      5.894970   406A      5.927613   407A      6.135705  
     408A      6.164215   409A      6.176267   410A      6.189630  
     411A      6.259652   412A      6.301724   413A      6.363160  
     414A      6.465835   415A      6.477504   416A      6.569205  
     417A      6.594549   418A      6.728770   419A      6.739584  
     420A      6.788371   421A      6.811520   422A      6.978930  
     423A      6.996217   424A      7.065808   425A      7.123584  
     426A      7.138312   427A      7.160667   428A      7.307276  
     429A      7.381126   430A      7.419854   431A      7.440745  
     432A      7.487731   433A      7.685842   434A      7.710664  
     435A      7.738026   436A      7.744209   437A      7.757281  
     438A      7.801939   439A      7.806999   440A      7.861456  
     441A      7.921351   442A      7.983961   443A      8.019010  
     444A      8.061336   445A      8.093406   446A      8.102046  
     447A      8.104952   448A      8.134211   449A      8.215395  
     450A      8.217363   451A      8.240692   452A      8.280856  
     453A      8.292952   454A      8.296847   455A      8.326097  
     456A      8.649117   457A      8.718689   458A      8.821502  
     459A      8.848826   460A      8.911016   461A      8.925658  
     462A      8.942645   463A      8.969850   464A      9.087033  
     465A      9.686720   466A      9.707087   467A      9.729174  
     468A      9.759063   469A      9.854225   470A      9.872418  
     471A      9.906053   472A      9.930849   473A     10.046569  
     474A     10.077835   475A     10.110850   476A     10.115417  
     477A     10.235678   478A     10.294263   479A     10.305096  
     480A     10.338897   481A     10.979740   482A     11.161916  
     483A     11.217721   484A     11.278604   485A     11.686577  
     486A     11.767128   487A     11.780023   488A     11.808817  
     489A     11.913938   490A     12.027458   491A     12.230175  
     492A     12.250549   493A     13.410069   494A     13.577655  
     495A     13.663248   496A     13.676055   497A     13.940683  
     498A     13.963231   499A     13.999943   500A     14.024016  
     501A     15.904393   502A     17.295117   503A     28.232836  
     504A     28.387458   505A     28.447044   506A     64.799273  
     507A     65.836550   508A     66.151096   509A     67.093304  
     510A    160.949895  

    Final Occupation by Irrep:
              A 
    DOCC [     5 ]
    NA   [     5 ]
    NB   [     5 ]

  @DF-RHF Final Energy:   -76.05931547999921

   => Energetics <=

    Nuclear Repulsion Energy =              9.3656408692545448
    One-Electron Energy =                -123.3427257832657915
    Two-Electron Energy =                  37.9177694340120297
    Total Energy =                        -76.0593154799992135

Computation Completed


Properties will be evaluated at   0.000000,   0.000000,   0.000000 [a0]

Properties computed using the SCF density matrix


 Multipole Moments:

 ------------------------------------------------------------------------------------
     Multipole            Electronic (a.u.)      Nuclear  (a.u.)        Total (a.u.)
 ------------------------------------------------------------------------------------

 L = 1.  Multiply by 2.5417464519 to convert [e a0] to [Debye]
 Dipole X            :        -40.2275495           39.9982455           -0.2293040
 Dipole Y            :        -36.0409533           35.8038623           -0.2370909
 Dipole Z            :         24.0764594          -23.3785578            0.6979016
 Magnitude           :                                                    0.7719191

 ------------------------------------------------------------------------------------

*** tstop() called on ddmfs1 at Mon Jan 22 21:36:40 2024
Module time:
	user time   =      91.26 seconds =       1.52 minutes
	system time =       5.26 seconds =       0.09 minutes
	total time  =          6 seconds =       0.10 minutes
Total time:
	user time   =      91.26 seconds =       1.52 minutes
	system time =       5.26 seconds =       0.09 minutes
	total time  =          6 seconds =       0.10 minutes

*** tstart() called on ddmfs1
*** at Mon Jan 22 21:36:40 2024


  //>>>>>>>>>>>>>>>>>>>>>>>>>>>>>>>>>>>//
  //               DFMP2               //
  //<<<<<<<<<<<<<<<<<<<<<<<<<<<<<<<<<<<//

   => Loading Basis Set <=

    Name: (AUG-CC-PVTZ AUX)
    Role: RIFIT
    Keyword: DF_BASIS_MP2
    atoms 1                            entry CL         line   742 file /ddmfs1b/softs/psi4conda/share/psi4/basis/aug-cc-pvtz-ri.gbs 
    atoms 2, 5, 8, 11, 14              entry O          line   264 file /ddmfs1b/softs/psi4conda/share/psi4/basis/aug-cc-pvtz-ri.gbs 
    atoms 3-4, 6-7, 9-10, 12-13, 15-16 entry H          line    30 file /ddmfs1b/softs/psi4conda/share/psi4/basis/aug-cc-pvtz-ri.gbs 

	 --------------------------------------------------------
	                          DF-MP2                         
	      2nd-Order Density-Fitted Moller-Plesset Theory     
	              RMP2 Wavefunction,  20 Threads             
	                                                         
	        Rob Parrish, Justin Turney, Andy Simmonett,      
	           Ed Hohenstein, and C. David Sherrill          
	 --------------------------------------------------------

   => Auxiliary Basis Set <=

  Basis Set: (AUG-CC-PVTZ AUX)
    Blend: AUG-CC-PVTZ-RI
    Number of shells: 317
    Number of basis functions: 1137
    Number of Cartesian functions: 1421
    Spherical Harmonics?: true
    Max angular momentum: 4

	 --------------------------------------------------------
	                 NBF =   510, NAUX =  1137
	 --------------------------------------------------------
	   CLASS    FOCC     OCC    AOCC    AVIR     VIR    FVIR
	   PAIRS       0       5       5     505     505       0
	 --------------------------------------------------------

	-----------------------------------------------------------
	 ==================> DF-MP2 Energies <==================== 
	-----------------------------------------------------------
	 Reference Energy          =     -76.0593154799992135 [Eh]
	 Singles Energy            =      -0.0000000000000000 [Eh]
	 Same-Spin Energy          =      -0.0680729822415602 [Eh]
	 Opposite-Spin Energy      =      -0.2148795312262969 [Eh]
	 Correlation Energy        =      -0.2829525134678572 [Eh]
	 Total Energy              =     -76.3422679934670754 [Eh]
	-----------------------------------------------------------
	 ================> DF-SCS-MP2 Energies <================== 
	-----------------------------------------------------------
	 SCS Same-Spin Scale       =       0.3333333333333333 [-]
	 SCS Opposite-Spin Scale   =       1.2000000000000000 [-]
	 SCS Same-Spin Energy      =      -0.0226909940805201 [Eh]
	 SCS Opposite-Spin Energy  =      -0.2578554374715563 [Eh]
	 SCS Correlation Energy    =      -0.2805464315520763 [Eh]
	 SCS Total Energy          =     -76.3398619115512957 [Eh]
	-----------------------------------------------------------


*** tstop() called on ddmfs1 at Mon Jan 22 21:36:45 2024
Module time:
	user time   =      26.02 seconds =       0.43 minutes
	system time =       1.59 seconds =       0.03 minutes
	total time  =          5 seconds =       0.08 minutes
Total time:
	user time   =     117.30 seconds =       1.95 minutes
	system time =       6.85 seconds =       0.11 minutes
	total time  =         11 seconds =       0.18 minutes

    Psi4 stopped on: Monday, 22 January 2024 09:36PM
    Psi4 wall time for execution: 0:00:10.95

*** Psi4 exiting successfully. Buy a developer a beer!
