
    -----------------------------------------------------------------------
          Psi4: An Open-Source Ab Initio Electronic Structure Package
                               Psi4 1.8.2 release

                         Git: Rev {} zzzzzzz 


    D. G. A. Smith, L. A. Burns, A. C. Simmonett, R. M. Parrish,
    M. C. Schieber, R. Galvelis, P. Kraus, H. Kruse, R. Di Remigio,
    A. Alenaizan, A. M. James, S. Lehtola, J. P. Misiewicz, M. Scheurer,
    R. A. Shaw, J. B. Schriber, Y. Xie, Z. L. Glick, D. A. Sirianni,
    J. S. O'Brien, J. M. Waldrop, A. Kumar, E. G. Hohenstein,
    B. P. Pritchard, B. R. Brooks, H. F. Schaefer III, A. Yu. Sokolov,
    K. Patkowski, A. E. DePrince III, U. Bozkaya, R. A. King,
    F. A. Evangelista, J. M. Turney, T. D. Crawford, C. D. Sherrill,
    J. Chem. Phys. 152(18) 184108 (2020). https://doi.org/10.1063/5.0006002

                            Additional Code Authors
    E. T. Seidl, C. L. Janssen, E. F. Valeev, M. L. Leininger,
    J. F. Gonthier, R. M. Richard, H. R. McAlexander, M. Saitow, X. Wang,
    P. Verma, M. H. Lechner, A. Jiang, S. Behnle, A. G. Heide,
    M. F. Herbst, and D. L. Poole

             Previous Authors, Complete List of Code Contributors,
                       and Citations for Specific Modules
    https://github.com/psi4/psi4/blob/master/codemeta.json
    https://github.com/psi4/psi4/graphs/contributors
    http://psicode.org/psi4manual/master/introduction.html#citing-psifour

    -----------------------------------------------------------------------


    Psi4 started on: Monday, 22 January 2024 09:16PM

    Process ID: 108372
    Host:       ddmfs1
    PSIDATADIR: /ddmfs1b/softs/psi4conda/share/psi4
    Memory:     500.0 MiB
    Threads:    20
    
  ==> Input File <==

--------------------------------------------------------------------------
MEMORY 60 GB

molecule dimer {
0 1
Gh(Cl)     0.000000     0.000000     0.000000
Gh(O)     -3.072186    -0.943385    -1.151340
Gh(H)     -2.109297    -0.833410    -1.232254
Gh(H)     -3.480580    -0.069519    -1.336406
Gh(O)     -2.170564     2.085398    -0.537936
Gh(H)     -1.492369     1.468992    -0.217548
Gh(H)     -1.948541     2.234535    -1.504709
O          1.715914     2.702458    -1.046000
H          2.231407     2.871279    -1.844869
H          1.155635     1.946575    -1.231334
Gh(O)     -0.734965     0.285092    -3.206055
Gh(H)     -0.613228     0.151032    -2.243593
Gh(H)     -0.192858     1.041459    -3.457951
Gh(O)     -1.691451    -2.961899     0.571525
Gh(H)     -1.220428    -3.805275     0.457431
Gh(H)     -1.045938    -2.256831     0.320946

units ang
no_reorient
no_com
symmetry c1
}

set {
basis        aug-cc-pVTZ
scf_type     df
}

energy("mp2")
--------------------------------------------------------------------------

  Memory set to  55.879 GiB by Python driver.

Scratch directory: /ddmfs1a/scratch/
   => Libint2 <=

    Primary   basis highest AM E, G, H:  5, 4, 3
    Auxiliary basis highest AM E, G, H:  6, 5, 4
    Onebody   basis highest AM E, G, H:  6, 5, 4
    Solid Harmonics ordering:            gaussian

*** tstart() called on ddmfs1
*** at Mon Jan 22 21:16:22 2024

   => Loading Basis Set <=

    Name: AUG-CC-PVTZ
    Role: ORBITAL
    Keyword: BASIS
    atoms 1                            entry CL         line   988 file /ddmfs1b/softs/psi4conda/share/psi4/basis/aug-cc-pvtz.gbs 
    atoms 2, 5, 8, 11, 14              entry O          line   331 file /ddmfs1b/softs/psi4conda/share/psi4/basis/aug-cc-pvtz.gbs 
    atoms 3-4, 6-7, 9-10, 12-13, 15-16 entry H          line    40 file /ddmfs1b/softs/psi4conda/share/psi4/basis/aug-cc-pvtz.gbs 


         ---------------------------------------------------------
                                   SCF
               by Justin Turney, Rob Parrish, Andy Simmonett
                          and Daniel G. A. Smith
                              RHF Reference
                       20 Threads,  57220 MiB Core
         ---------------------------------------------------------

  ==> Geometry <==

    Molecular point group: c1
    Full point group: C1

    Geometry (in Angstrom), charge = 0, multiplicity = 1:

       Center              X                  Y                   Z               Mass       
    ------------   -----------------  -----------------  -----------------  -----------------
      Gh(CL)          0.000000000000     0.000000000000     0.000000000000    34.968852682000
      Gh(O)          -3.072186000000    -0.943385000000    -1.151340000000    15.994914619570
      Gh(H)          -2.109297000000    -0.833410000000    -1.232254000000     1.007825032230
      Gh(H)          -3.480580000000    -0.069519000000    -1.336406000000     1.007825032230
      Gh(O)          -2.170564000000     2.085398000000    -0.537936000000    15.994914619570
      Gh(H)          -1.492369000000     1.468992000000    -0.217548000000     1.007825032230
      Gh(H)          -1.948541000000     2.234535000000    -1.504709000000     1.007825032230
         O            1.715914000000     2.702458000000    -1.046000000000    15.994914619570
         H            2.231407000000     2.871279000000    -1.844869000000     1.007825032230
         H            1.155635000000     1.946575000000    -1.231334000000     1.007825032230
      Gh(O)          -0.734965000000     0.285092000000    -3.206055000000    15.994914619570
      Gh(H)          -0.613228000000     0.151032000000    -2.243593000000     1.007825032230
      Gh(H)          -0.192858000000     1.041459000000    -3.457951000000     1.007825032230
      Gh(O)          -1.691451000000    -2.961899000000     0.571525000000    15.994914619570
      Gh(H)          -1.220428000000    -3.805275000000     0.457431000000     1.007825032230
      Gh(H)          -1.045938000000    -2.256831000000     0.320946000000     1.007825032230

  Running in c1 symmetry.

  Rotational constants: A =      0.03564  B =      0.02708  C =      0.01932 [cm^-1]
  Rotational constants: A =   1068.34220  B =    811.74823  C =    579.18166 [MHz]
  Nuclear repulsion =    9.141073992373840

  Charge       = 0
  Multiplicity = 1
  Electrons    = 10
  Nalpha       = 5
  Nbeta        = 5

  ==> Algorithm <==

  SCF Algorithm Type is DF.
  DIIS enabled.
  MOM disabled.
  Fractional occupation disabled.
  Guess Type is SAD.
  Energy threshold   = 1.00e-08
  Density threshold  = 1.00e-08
  Integral threshold = 1.00e-12

  ==> Primary Basis <==

  Basis Set: AUG-CC-PVTZ
    Blend: AUG-CC-PVTZ
    Number of shells: 176
    Number of basis functions: 510
    Number of Cartesian functions: 584
    Spherical Harmonics?: true
    Max angular momentum: 3

   => Loading Basis Set <=

    Name: (AUG-CC-PVTZ AUX)
    Role: JKFIT
    Keyword: DF_BASIS_SCF
    atoms 1                            entry CL         line   816 file /ddmfs1b/softs/psi4conda/share/psi4/basis/aug-cc-pvtz-jkfit.gbs 
    atoms 2, 5, 8, 11, 14              entry O          line   286 file /ddmfs1b/softs/psi4conda/share/psi4/basis/aug-cc-pvtz-jkfit.gbs 
    atoms 3-4, 6-7, 9-10, 12-13, 15-16 entry H          line    70 file /ddmfs1b/softs/psi4conda/share/psi4/basis/aug-cc-pvtz-jkfit.gbs 

  ==> Integral Setup <==

  DFHelper Memory: AOs need 2.045 GiB; user supplied 41.910 GiB. 
  Using in-core AOs.

  ==> MemDFJK: Density-Fitted J/K Matrices <==

    J tasked:                   Yes
    K tasked:                   Yes
    wK tasked:                   No
    OpenMP threads:              20
    Memory [MiB]:             42915
    Algorithm:                 Core
    Schwarz Cutoff:           1E-12
    Mask sparsity (%):      10.8843
    Fitting Condition:        1E-10

   => Auxiliary Basis Set <=

  Basis Set: (AUG-CC-PVTZ AUX)
    Blend: AUG-CC-PVTZ-JKFIT
    Number of shells: 332
    Number of basis functions: 1126
    Number of Cartesian functions: 1385
    Spherical Harmonics?: true
    Max angular momentum: 4

  Minimum eigenvalue in the overlap matrix is 1.0110174542E-04.
  Reciprocal condition number of the overlap matrix is 7.1008569704E-06.
    Using symmetric orthogonalization.

  ==> Pre-Iterations <==

  SCF Guess: Superposition of Atomic Densities via on-the-fly atomic UHF (no occupation information).

   -------------------------
    Irrep   Nso     Nmo    
   -------------------------
     A        510     510 
   -------------------------
    Total     510     510
   -------------------------

  ==> Iterations <==

                           Total Energy        Delta E     RMS |[F,P]|

   @DF-RHF iter SAD:   -75.46989692403355   -7.54699e+01   0.00000e+00 
   @DF-RHF iter   1:   -75.97602956032375   -5.06133e-01   9.18092e-04 DIIS/ADIIS
   @DF-RHF iter   2:   -76.02835284027948   -5.23233e-02   6.26384e-04 DIIS/ADIIS
   @DF-RHF iter   3:   -76.05982693938935   -3.14741e-02   4.26140e-05 DIIS
   @DF-RHF iter   4:   -76.06022271392088   -3.95775e-04   1.02599e-05 DIIS
   @DF-RHF iter   5:   -76.06024765270290   -2.49388e-05   2.32824e-06 DIIS
   @DF-RHF iter   6:   -76.06024970583748   -2.05313e-06   5.16189e-07 DIIS
   @DF-RHF iter   7:   -76.06024981754172   -1.11704e-07   9.57459e-08 DIIS
   @DF-RHF iter   8:   -76.06024982092877   -3.38706e-09   1.60025e-08 DIIS
   @DF-RHF iter   9:   -76.06024982100368   -7.49054e-11   4.01167e-09 DIIS
  Energy and wave function converged.


  ==> Post-Iterations <==

    Orbital Energies [Eh]
    ---------------------

    Doubly Occupied:                                                      

       1A    -20.566990     2A     -1.349317     3A     -0.719457  
       4A     -0.579374     5A     -0.509234  

    Virtual:                                                              

       6A      0.016457     7A      0.030593     8A      0.038219  
       9A      0.044056    10A      0.051530    11A      0.057844  
      12A      0.063790    13A      0.069265    14A      0.078687  
      15A      0.086687    16A      0.098288    17A      0.111265  
      18A      0.120623    19A      0.134375    20A      0.136304  
      21A      0.139659    22A      0.149285    23A      0.152280  
      24A      0.159412    25A      0.166263    26A      0.169611  
      27A      0.172660    28A      0.175312    29A      0.181283  
      30A      0.189099    31A      0.195040    32A      0.197368  
      33A      0.208821    34A      0.221222    35A      0.223338  
      36A      0.237335    37A      0.241212    38A      0.248486  
      39A      0.261330    40A      0.265832    41A      0.269408  
      42A      0.273908    43A      0.290355    44A      0.301337  
      45A      0.311283    46A      0.319461    47A      0.320637  
      48A      0.334557    49A      0.338040    50A      0.342374  
      51A      0.352885    52A      0.360012    53A      0.369009  
      54A      0.370010    55A      0.376128    56A      0.377160  
      57A      0.385651    58A      0.390035    59A      0.397028  
      60A      0.399718    61A      0.408050    62A      0.421816  
      63A      0.423584    64A      0.427909    65A      0.436775  
      66A      0.442911    67A      0.458120    68A      0.468760  
      69A      0.472038    70A      0.480975    71A      0.485207  
      72A      0.491681    73A      0.496436    74A      0.515880  
      75A      0.517425    76A      0.537488    77A      0.540480  
      78A      0.567817    79A      0.574895    80A      0.583886  
      81A      0.604215    82A      0.621620    83A      0.638366  
      84A      0.649329    85A      0.666912    86A      0.669312  
      87A      0.678216    88A      0.686835    89A      0.697802  
      90A      0.705688    91A      0.714075    92A      0.719575  
      93A      0.730959    94A      0.742721    95A      0.751895  
      96A      0.757069    97A      0.762685    98A      0.776085  
      99A      0.782758   100A      0.799281   101A      0.803333  
     102A      0.812909   103A      0.816063   104A      0.821596  
     105A      0.826740   106A      0.830359   107A      0.841245  
     108A      0.847555   109A      0.852698   110A      0.860389  
     111A      0.864577   112A      0.866290   113A      0.878800  
     114A      0.881485   115A      0.889043   116A      0.898546  
     117A      0.906298   118A      0.911273   119A      0.923553  
     120A      0.929465   121A      0.930672   122A      0.936223  
     123A      0.947839   124A      0.953155   125A      0.959183  
     126A      0.966741   127A      0.971903   128A      0.979752  
     129A      0.983525   130A      0.999069   131A      1.002997  
     132A      1.008189   133A      1.013937   134A      1.019566  
     135A      1.032571   136A      1.039700   137A      1.044152  
     138A      1.049343   139A      1.053974   140A      1.060206  
     141A      1.062438   142A      1.068199   143A      1.084165  
     144A      1.084736   145A      1.100685   146A      1.117091  
     147A      1.120867   148A      1.133943   149A      1.147623  
     150A      1.154922   151A      1.164445   152A      1.180265  
     153A      1.185914   154A      1.190383   155A      1.206079  
     156A      1.228677   157A      1.238212   158A      1.244971  
     159A      1.249850   160A      1.263772   161A      1.274277  
     162A      1.282533   163A      1.293174   164A      1.298642  
     165A      1.306359   166A      1.321029   167A      1.329522  
     168A      1.355473   169A      1.367679   170A      1.370968  
     171A      1.375988   172A      1.397004   173A      1.412570  
     174A      1.416814   175A      1.436916   176A      1.443165  
     177A      1.467603   178A      1.475141   179A      1.482070  
     180A      1.496512   181A      1.506428   182A      1.516257  
     183A      1.520045   184A      1.531049   185A      1.547659  
     186A      1.555759   187A      1.561894   188A      1.573304  
     189A      1.589623   190A      1.603866   191A      1.609026  
     192A      1.619653   193A      1.638720   194A      1.665299  
     195A      1.672564   196A      1.681280   197A      1.707245  
     198A      1.721943   199A      1.723052   200A      1.735848  
     201A      1.756858   202A      1.761833   203A      1.773828  
     204A      1.779849   205A      1.796572   206A      1.805300  
     207A      1.819175   208A      1.825667   209A      1.839560  
     210A      1.846418   211A      1.859333   212A      1.861415  
     213A      1.881501   214A      1.886456   215A      1.914027  
     216A      1.923643   217A      1.926927   218A      1.938574  
     219A      1.943545   220A      1.965603   221A      1.989909  
     222A      1.999549   223A      2.015039   224A      2.022947  
     225A      2.049184   226A      2.055863   227A      2.067624  
     228A      2.082059   229A      2.087000   230A      2.124810  
     231A      2.137679   232A      2.150200   233A      2.182811  
     234A      2.199103   235A      2.238958   236A      2.280892  
     237A      2.301019   238A      2.325806   239A      2.333370  
     240A      2.384660   241A      2.436935   242A      2.454064  
     243A      2.465248   244A      2.475370   245A      2.491213  
     246A      2.508036   247A      2.518527   248A      2.540157  
     249A      2.546827   250A      2.562010   251A      2.568702  
     252A      2.585810   253A      2.611800   254A      2.614611  
     255A      2.625964   256A      2.633995   257A      2.638525  
     258A      2.652266   259A      2.661909   260A      2.681680  
     261A      2.697370   262A      2.698999   263A      2.709889  
     264A      2.717208   265A      2.736475   266A      2.757597  
     267A      2.768282   268A      2.775865   269A      2.791556  
     270A      2.815617   271A      2.824012   272A      2.836455  
     273A      2.839539   274A      2.851942   275A      2.872115  
     276A      2.932964   277A      2.940526   278A      2.954837  
     279A      2.956977   280A      2.959847   281A      2.984486  
     282A      3.007041   283A      3.026267   284A      3.039552  
     285A      3.066365   286A      3.078121   287A      3.129409  
     288A      3.184598   289A      3.207401   290A      3.230482  
     291A      3.245561   292A      3.257332   293A      3.289741  
     294A      3.318196   295A      3.322602   296A      3.339396  
     297A      3.352538   298A      3.395243   299A      3.409008  
     300A      3.428411   301A      3.447995   302A      3.468494  
     303A      3.480771   304A      3.507669   305A      3.530251  
     306A      3.537401   307A      3.586122   308A      3.604090  
     309A      3.662950   310A      3.673403   311A      3.721492  
     312A      3.755402   313A      3.804714   314A      3.818937  
     315A      3.851285   316A      3.890822   317A      3.902342  
     318A      4.088490   319A      4.111222   320A      4.123563  
     321A      4.163267   322A      4.209668   323A      4.226064  
     324A      4.256202   325A      4.270665   326A      4.293717  
     327A      4.324591   328A      4.359734   329A      4.364016  
     330A      4.383785   331A      4.407481   332A      4.416429  
     333A      4.437865   334A      4.450495   335A      4.462430  
     336A      4.469795   337A      4.486874   338A      4.495727  
     339A      4.497873   340A      4.511294   341A      4.519182  
     342A      4.532093   343A      4.563199   344A      4.572820  
     345A      4.595706   346A      4.607421   347A      4.620981  
     348A      4.630362   349A      4.660767   350A      4.666832  
     351A      4.697875   352A      4.707061   353A      4.712377  
     354A      4.738771   355A      4.749616   356A      4.754820  
     357A      4.770986   358A      4.798401   359A      4.810268  
     360A      4.857934   361A      4.869930   362A      4.902675  
     363A      4.920024   364A      4.941100   365A      4.951456  
     366A      4.968695   367A      4.980209   368A      4.996099  
     369A      5.007587   370A      5.028922   371A      5.054613  
     372A      5.065672   373A      5.087676   374A      5.101144  
     375A      5.137624   376A      5.159631   377A      5.165388  
     378A      5.176267   379A      5.222336   380A      5.267115  
     381A      5.276323   382A      5.286865   383A      5.320232  
     384A      5.336411   385A      5.375749   386A      5.378286  
     387A      5.408865   388A      5.462024   389A      5.467415  
     390A      5.493999   391A      5.511775   392A      5.523162  
     393A      5.525122   394A      5.563272   395A      5.594289  
     396A      5.601931   397A      5.647551   398A      5.650047  
     399A      5.670335   400A      5.687973   401A      5.734975  
     402A      5.765074   403A      5.838570   404A      5.860625  
     405A      5.872506   406A      5.915724   407A      6.184985  
     408A      6.197208   409A      6.216659   410A      6.222470  
     411A      6.248488   412A      6.387057   413A      6.424284  
     414A      6.439159   415A      6.506134   416A      6.573656  
     417A      6.599693   418A      6.654533   419A      6.733527  
     420A      6.761287   421A      6.833411   422A      6.938415  
     423A      7.008968   424A      7.057291   425A      7.068871  
     426A      7.096233   427A      7.156560   428A      7.284570  
     429A      7.339269   430A      7.360012   431A      7.403089  
     432A      7.467803   433A      7.710143   434A      7.715963  
     435A      7.757050   436A      7.774015   437A      7.799169  
     438A      7.824540   439A      7.863453   440A      7.876815  
     441A      7.891804   442A      7.950908   443A      8.009606  
     444A      8.057524   445A      8.087617   446A      8.145512  
     447A      8.164929   448A      8.188681   449A      8.241079  
     450A      8.267458   451A      8.272848   452A      8.287183  
     453A      8.296178   454A      8.319593   455A      8.349558  
     456A      8.705501   457A      8.721877   458A      8.754317  
     459A      8.798911   460A      8.809718   461A      8.824132  
     462A      8.897901   463A      8.916387   464A      9.045059  
     465A      9.672910   466A      9.774489   467A      9.802652  
     468A      9.822597   469A      9.879394   470A      9.909703  
     471A      9.930425   472A      9.965765   473A     10.066222  
     474A     10.101061   475A     10.102680   476A     10.141294  
     477A     10.276752   478A     10.344395   479A     10.359073  
     480A     10.382014   481A     11.055620   482A     11.100175  
     483A     11.112042   484A     11.151645   485A     11.672090  
     486A     11.764373   487A     11.800214   488A     11.835829  
     489A     11.937491   490A     12.033260   491A     12.077319  
     492A     12.125152   493A     13.495973   494A     13.545335  
     495A     13.566959   496A     13.661913   497A     13.977339  
     498A     13.994284   499A     14.021365   500A     14.028926  
     501A     16.258890   502A     16.352120   503A     28.229843  
     504A     28.320301   505A     28.472712   506A     64.459043  
     507A     65.346863   508A     65.895827   509A     66.576550  
     510A    161.007721  

    Final Occupation by Irrep:
              A 
    DOCC [     5 ]
    NA   [     5 ]
    NB   [     5 ]

  @DF-RHF Final Energy:   -76.06024982100368

   => Energetics <=

    Nuclear Repulsion Energy =              9.1410739923738404
    One-Electron Energy =                -122.9539018972069897
    Two-Electron Energy =                  37.7525780838294551
    Total Energy =                        -76.0602498210036799

Computation Completed


Properties will be evaluated at   0.000000,   0.000000,   0.000000 [a0]

Properties computed using the SCF density matrix


 Multipole Moments:

 ------------------------------------------------------------------------------------
     Multipole            Electronic (a.u.)      Nuclear  (a.u.)        Total (a.u.)
 ------------------------------------------------------------------------------------

 L = 1.  Multiply by 2.5417464519 to convert [e a0] to [Debye]
 Dipole X            :        -32.3721887           32.3414419           -0.0307469
 Dipole Y            :        -50.3528453           49.9596685           -0.3931769
 Dipole Z            :         20.9692302          -21.6264094           -0.6571792
 Magnitude           :                                                    0.7664319

 ------------------------------------------------------------------------------------

*** tstop() called on ddmfs1 at Mon Jan 22 21:16:28 2024
Module time:
	user time   =      91.60 seconds =       1.53 minutes
	system time =       4.97 seconds =       0.08 minutes
	total time  =          6 seconds =       0.10 minutes
Total time:
	user time   =      91.60 seconds =       1.53 minutes
	system time =       4.97 seconds =       0.08 minutes
	total time  =          6 seconds =       0.10 minutes

*** tstart() called on ddmfs1
*** at Mon Jan 22 21:16:28 2024


  //>>>>>>>>>>>>>>>>>>>>>>>>>>>>>>>>>>>//
  //               DFMP2               //
  //<<<<<<<<<<<<<<<<<<<<<<<<<<<<<<<<<<<//

   => Loading Basis Set <=

    Name: (AUG-CC-PVTZ AUX)
    Role: RIFIT
    Keyword: DF_BASIS_MP2
    atoms 1                            entry CL         line   742 file /ddmfs1b/softs/psi4conda/share/psi4/basis/aug-cc-pvtz-ri.gbs 
    atoms 2, 5, 8, 11, 14              entry O          line   264 file /ddmfs1b/softs/psi4conda/share/psi4/basis/aug-cc-pvtz-ri.gbs 
    atoms 3-4, 6-7, 9-10, 12-13, 15-16 entry H          line    30 file /ddmfs1b/softs/psi4conda/share/psi4/basis/aug-cc-pvtz-ri.gbs 

	 --------------------------------------------------------
	                          DF-MP2                         
	      2nd-Order Density-Fitted Moller-Plesset Theory     
	              RMP2 Wavefunction,  20 Threads             
	                                                         
	        Rob Parrish, Justin Turney, Andy Simmonett,      
	           Ed Hohenstein, and C. David Sherrill          
	 --------------------------------------------------------

   => Auxiliary Basis Set <=

  Basis Set: (AUG-CC-PVTZ AUX)
    Blend: AUG-CC-PVTZ-RI
    Number of shells: 317
    Number of basis functions: 1137
    Number of Cartesian functions: 1421
    Spherical Harmonics?: true
    Max angular momentum: 4

	 --------------------------------------------------------
	                 NBF =   510, NAUX =  1137
	 --------------------------------------------------------
	   CLASS    FOCC     OCC    AOCC    AVIR     VIR    FVIR
	   PAIRS       0       5       5     505     505       0
	 --------------------------------------------------------

	-----------------------------------------------------------
	 ==================> DF-MP2 Energies <==================== 
	-----------------------------------------------------------
	 Reference Energy          =     -76.0602498210036799 [Eh]
	 Singles Energy            =      -0.0000000000000000 [Eh]
	 Same-Spin Energy          =      -0.0684307620170477 [Eh]
	 Opposite-Spin Energy      =      -0.2158161399597887 [Eh]
	 Correlation Energy        =      -0.2842469019768364 [Eh]
	 Total Energy              =     -76.3444967229805229 [Eh]
	-----------------------------------------------------------
	 ================> DF-SCS-MP2 Energies <================== 
	-----------------------------------------------------------
	 SCS Same-Spin Scale       =       0.3333333333333333 [-]
	 SCS Opposite-Spin Scale   =       1.2000000000000000 [-]
	 SCS Same-Spin Energy      =      -0.0228102540056826 [Eh]
	 SCS Opposite-Spin Energy  =      -0.2589793679517464 [Eh]
	 SCS Correlation Energy    =      -0.2817896219574290 [Eh]
	 SCS Total Energy          =     -76.3420394429611093 [Eh]
	-----------------------------------------------------------


*** tstop() called on ddmfs1 at Mon Jan 22 21:16:33 2024
Module time:
	user time   =      26.19 seconds =       0.44 minutes
	system time =       1.46 seconds =       0.02 minutes
	total time  =          5 seconds =       0.08 minutes
Total time:
	user time   =     117.81 seconds =       1.96 minutes
	system time =       6.43 seconds =       0.11 minutes
	total time  =         11 seconds =       0.18 minutes

    Psi4 stopped on: Monday, 22 January 2024 09:16PM
    Psi4 wall time for execution: 0:00:10.96

*** Psi4 exiting successfully. Buy a developer a beer!
