
    -----------------------------------------------------------------------
          Psi4: An Open-Source Ab Initio Electronic Structure Package
                               Psi4 1.9 release

                         Git: Rev {} zzzzzzz 


    D. G. A. Smith, L. A. Burns, A. C. Simmonett, R. M. Parrish,
    M. C. Schieber, R. Galvelis, P. Kraus, H. Kruse, R. Di Remigio,
    A. Alenaizan, A. M. James, S. Lehtola, J. P. Misiewicz, M. Scheurer,
    R. A. Shaw, J. B. Schriber, Y. Xie, Z. L. Glick, D. A. Sirianni,
    J. S. O'Brien, J. M. Waldrop, A. Kumar, E. G. Hohenstein,
    B. P. Pritchard, B. R. Brooks, H. F. Schaefer III, A. Yu. Sokolov,
    K. Patkowski, A. E. DePrince III, U. Bozkaya, R. A. King,
    F. A. Evangelista, J. M. Turney, T. D. Crawford, C. D. Sherrill,
    J. Chem. Phys. 152(18) 184108 (2020). https://doi.org/10.1063/5.0006002

                            Additional Code Authors
    E. T. Seidl, C. L. Janssen, E. F. Valeev, M. L. Leininger,
    J. F. Gonthier, R. M. Richard, H. R. McAlexander, M. Saitow, X. Wang,
    P. Verma, M. H. Lechner, A. Jiang, S. Behnle, A. G. Heide,
    M. F. Herbst, and D. L. Poole

             Previous Authors, Complete List of Code Contributors,
                       and Citations for Specific Modules
    https://github.com/psi4/psi4/blob/master/codemeta.json
    https://github.com/psi4/psi4/graphs/contributors
    http://psicode.org/psi4manual/master/introduction.html#citing-psifour

    -----------------------------------------------------------------------


    Psi4 started on: Saturday, 06 January 2024 10:59PM

    Process ID: 559188
    Host:       moses-razer
    PSIDATADIR: /home/kchung25/anaconda3/envs/psi4_19/share/psi4
    Memory:     500.0 MiB
    Threads:    6
    
  ==> Input File <==

--------------------------------------------------------------------------
MEMORY 60 GB

molecule dimer {
-1 1
Cl     0.000000     0.000000     0.000000
--
0 1
O      3.121084    -0.404087    -0.885356
H      3.116609    -0.372361    -1.845845
H      2.192719    -0.330448    -0.616616
O     -2.819140     1.570254    -0.734010
H     -2.611282     1.796412    -1.725910
H     -2.014272     1.104724    -0.433930
O      0.369494     3.158235     0.273032
H      0.266849     2.267125    -0.149408
H      0.062383     2.931659     1.171278
O      1.432734     1.306996     2.864927
H      1.572932     0.422647     3.152455
H      1.365478     1.291318     1.910667
O     -1.816873    -2.925684    -0.245655
H     -1.793579    -2.165113     0.358356
H     -2.001121    -3.664882     0.343775
O      0.586581     0.286046    -3.368714
H      0.417037     1.203796    -3.600248
H      0.414413     0.201701    -2.417327

units ang
no_reorient
no_com
symmetry c1
}

set {
basis        aug-cc-pVTZ
scf_type     df
}

energy("mp2", bsse_type="cp")
--------------------------------------------------------------------------

  Memory set to  55.879 GiB by Python driver.

Scratch directory: /scratch/

  //>>>>>>>>>>>>>>>>>>>>>>>>>>>>>>>>>>>>>//
  // ManyBody Setup: N-Body Levels [1, 2]//
  //<<<<<<<<<<<<<<<<<<<<<<<<<<<<<<<<<<<<<//

        Number of 1-body computations:     2
        Number of 2-body computations:     1

    -----------------------------------------------------------------------
          Psi4: An Open-Source Ab Initio Electronic Structure Package
                               Psi4 1.9 release

                         Git: Rev {} zzzzzzz 


    D. G. A. Smith, L. A. Burns, A. C. Simmonett, R. M. Parrish,
    M. C. Schieber, R. Galvelis, P. Kraus, H. Kruse, R. Di Remigio,
    A. Alenaizan, A. M. James, S. Lehtola, J. P. Misiewicz, M. Scheurer,
    R. A. Shaw, J. B. Schriber, Y. Xie, Z. L. Glick, D. A. Sirianni,
    J. S. O'Brien, J. M. Waldrop, A. Kumar, E. G. Hohenstein,
    B. P. Pritchard, B. R. Brooks, H. F. Schaefer III, A. Yu. Sokolov,
    K. Patkowski, A. E. DePrince III, U. Bozkaya, R. A. King,
    F. A. Evangelista, J. M. Turney, T. D. Crawford, C. D. Sherrill,
    J. Chem. Phys. 152(18) 184108 (2020). https://doi.org/10.1063/5.0006002

                            Additional Code Authors
    E. T. Seidl, C. L. Janssen, E. F. Valeev, M. L. Leininger,
    J. F. Gonthier, R. M. Richard, H. R. McAlexander, M. Saitow, X. Wang,
    P. Verma, M. H. Lechner, A. Jiang, S. Behnle, A. G. Heide,
    M. F. Herbst, and D. L. Poole

             Previous Authors, Complete List of Code Contributors,
                       and Citations for Specific Modules
    https://github.com/psi4/psi4/blob/master/codemeta.json
    https://github.com/psi4/psi4/graphs/contributors
    http://psicode.org/psi4manual/master/introduction.html#citing-psifour

    -----------------------------------------------------------------------


    Psi4 started on: Saturday, 06 January 2024 10:59PM

    Process ID: 559188
    Host:       moses-razer
    PSIDATADIR: /home/kchung25/anaconda3/envs/psi4_19/share/psi4
    Memory:     55.9 GiB
    Threads:    6
    
  ==> Input QCSchema <==

--------------------------------------------------------------------------
{'driver': 'energy',
 'extras': {'psiapi': True, 'wfn_qcvars_only': True},
 'id': None,
 'keywords': {'SCF_TYPE': 'DF', 'function_kwargs': {}},
 'model': {'basis': 'aug-cc-pvtz', 'method': 'mp2'},
 'molecule': {'atom_labels': ['', '', '', '', '', '', '', '', '', '', '', '', '', '', '', '', '', '', ''],
              'atomic_numbers': [17, 8, 1, 1, 8, 1, 1, 8, 1, 1, 8, 1, 1, 8, 1, 1, 8, 1, 1],
              'extras': {},
              'fix_com': True,
              'fix_orientation': True,
              'fix_symmetry': 'c1',
              'fragment_charges': [0.0, 0.0],
              'fragment_multiplicities': [1, 1],
              'fragments': [[0], [1, 2, 3, 4, 5, 6, 7, 8, 9, 10, 11, 12, 13, 14, 15, 16, 17, 18]],
              'geometry': [0.0, 0.0, 0.0, 5.89799397454842, -0.7636137608578774, -1.6730803635308409, 5.889537450136996,
                           -0.7036603098016023, -3.488141520045705, 4.143638380087763, -0.6244562187052884,
                           -1.1652353645753042, -5.327402509323181, 2.9673500074046566, -1.3870778733473006,
                           -4.934607816337769, 3.3947266884859477, -3.2614972171889205, -3.8064224221781906,
                           2.087625804220274, -0.8200088576199154, 0.6982424649999147, 5.968199189835303,
                           0.5159557034860017, 0.504271526852296, 4.284245342178579, -0.2823402009524032,
                           0.1178867848844357, 5.540032603233571, 2.213394636773994, 2.707474870631696,
                           2.4698644870688797, 5.413927399429519, 2.972410693968632, 0.7986870777463747,
                           5.957276572830157, 2.580379450337904, 2.440237360873952, 3.610637346950132,
                           -3.43339237473894, -5.52874148963396, -0.4642206713493428, -3.389373094372526,
                           -4.091470600668375, 0.6771946954145655, -3.7815706339022945, -6.925623262120136,
                           0.6496405987792648, 1.1084774403971782, 0.5405485992827099, -6.365946854995542,
                           0.7880857141825562, 2.274844750921632, -6.803482703727295, 0.7831270728293549,
                           0.3811596492309694, -4.568085985674595],
              'mass_numbers': [35, 16, 1, 1, 16, 1, 1, 16, 1, 1, 16, 1, 1, 16, 1, 1, 16, 1, 1],
              'masses': [34.968852682, 15.99491461957, 1.00782503223, 1.00782503223, 15.99491461957, 1.00782503223,
                         1.00782503223, 15.99491461957, 1.00782503223, 1.00782503223, 15.99491461957, 1.00782503223,
                         1.00782503223, 15.99491461957, 1.00782503223, 1.00782503223, 15.99491461957, 1.00782503223,
                         1.00782503223],
              'molecular_charge': 0.0,
              'molecular_multiplicity': 1,
              'name': 'dimer',
              'provenance': {'creator': 'QCElemental',
                             'routine': 'qcelemental.molparse.from_string',
                             'version': '0.27.1'},
              'real': [False, True, True, True, True, True, True, True, True, True, True, True, True, True, True, True,
                       True, True, True],
              'schema_name': 'qcschema_molecule',
              'schema_version': 2,
              'symbols': ['Cl', 'O', 'H', 'H', 'O', 'H', 'H', 'O', 'H', 'H', 'O', 'H', 'H', 'O', 'H', 'H', 'O', 'H',
                          'H'],
              'validated': True},
 'protocols': {'stdout': True},
 'provenance': {'creator': 'QCElemental', 'routine': 'qcelemental.models.results', 'version': '0.27.1'},
 'schema_name': 'qcschema_input',
 'schema_version': 1}
--------------------------------------------------------------------------

Scratch directory: /scratch/
   => Libint2 <=

    Primary   basis highest AM E, G, H:  5, 4, 3
    Auxiliary basis highest AM E, G, H:  6, 5, 4
    Onebody   basis highest AM E, G, H:  6, 5, 4
    Solid Harmonics ordering:            gaussian

*** tstart() called on moses-razer
*** at Sat Jan  6 22:59:17 2024

   => Loading Basis Set <=

    Name: AUG-CC-PVTZ
    Role: ORBITAL
    Keyword: BASIS
    atoms 1                                   entry CL         line   988 file /home/kchung25/anaconda3/envs/p415env/share/psi4/basis/aug-cc-pvtz.gbs 
    atoms 2, 5, 8, 11, 14, 17                 entry O          line   331 file /home/kchung25/anaconda3/envs/p415env/share/psi4/basis/aug-cc-pvtz.gbs 
    atoms 3-4, 6-7, 9-10, 12-13, 15-16, 18-19 entry H          line    40 file /home/kchung25/anaconda3/envs/p415env/share/psi4/basis/aug-cc-pvtz.gbs 


         ---------------------------------------------------------
                                   SCF
               by Justin Turney, Rob Parrish, Andy Simmonett
                          and Daniel G. A. Smith
                              RHF Reference
                        6 Threads,  57220 MiB Core
         ---------------------------------------------------------

  ==> Geometry <==

    Molecular point group: c1
    Full point group: C1

    Geometry (in Bohr), charge = 0, multiplicity = 1:

       Center              X                  Y                   Z               Mass       
    ------------   -----------------  -----------------  -----------------  -----------------
      Gh(CL)          0.000000000000     0.000000000000     0.000000000000    34.968852682000
         O            5.897993974548    -0.763613760858    -1.673080363531    15.994914619570
         H            5.889537450137    -0.703660309802    -3.488141520046     1.007825032230
         H            4.143638380088    -0.624456218705    -1.165235364575     1.007825032230
         O           -5.327402509323     2.967350007405    -1.387077873347    15.994914619570
         H           -4.934607816338     3.394726688486    -3.261497217189     1.007825032230
         H           -3.806422422178     2.087625804220    -0.820008857620     1.007825032230
         O            0.698242465000     5.968199189835     0.515955703486    15.994914619570
         H            0.504271526852     4.284245342179    -0.282340200952     1.007825032230
         H            0.117886784884     5.540032603234     2.213394636774     1.007825032230
         O            2.707474870632     2.469864487069     5.413927399430    15.994914619570
         H            2.972410693969     0.798687077746     5.957276572830     1.007825032230
         H            2.580379450338     2.440237360874     3.610637346950     1.007825032230
         O           -3.433392374739    -5.528741489634    -0.464220671349    15.994914619570
         H           -3.389373094373    -4.091470600668     0.677194695415     1.007825032230
         H           -3.781570633902    -6.925623262120     0.649640598779     1.007825032230
         O            1.108477440397     0.540548599283    -6.365946854996    15.994914619570
         H            0.788085714183     2.274844750922    -6.803482703727     1.007825032230
         H            0.783127072829     0.381159649231    -4.568085985675     1.007825032230

  Running in c1 symmetry.

  Rotational constants: A =      0.02397  B =      0.02029  C =      0.01953 [cm^-1]
  Rotational constants: A =    718.53717  B =    608.25812  C =    585.51659 [MHz]
  Nuclear repulsion =  223.513315489175795

  Charge       = 0
  Multiplicity = 1
  Electrons    = 60
  Nalpha       = 30
  Nbeta        = 30

  ==> Algorithm <==

  SCF Algorithm Type is DF.
  DIIS enabled.
  MOM disabled.
  Fractional occupation disabled.
  Guess Type is SAD.
  Energy threshold   = 1.00e-08
  Density threshold  = 1.00e-08
  Integral threshold = 1.00e-12

  ==> Primary Basis <==

  Basis Set: AUG-CC-PVTZ
    Blend: AUG-CC-PVTZ
    Number of shells: 208
    Number of basis functions: 602
    Number of Cartesian functions: 689
    Spherical Harmonics?: true
    Max angular momentum: 3

   => Loading Basis Set <=

    Name: (AUG-CC-PVTZ AUX)
    Role: JKFIT
    Keyword: DF_BASIS_SCF
    atoms 1                                   entry CL         line   816 file /home/kchung25/anaconda3/envs/p415env/share/psi4/basis/aug-cc-pvtz-jkfit.gbs 
    atoms 2, 5, 8, 11, 14, 17                 entry O          line   286 file /home/kchung25/anaconda3/envs/p415env/share/psi4/basis/aug-cc-pvtz-jkfit.gbs 
    atoms 3-4, 6-7, 9-10, 12-13, 15-16, 18-19 entry H          line    70 file /home/kchung25/anaconda3/envs/p415env/share/psi4/basis/aug-cc-pvtz-jkfit.gbs 

  ==> Integral Setup <==

  DFHelper Memory: AOs need 3.094 GiB; user supplied 41.910 GiB. 
  Using in-core AOs.

  ==> MemDFJK: Density-Fitted J/K Matrices <==

    J tasked:                   Yes
    K tasked:                   Yes
    wK tasked:                   No
    OpenMP threads:               6
    Memory [MiB]:             42915
    Algorithm:                 Core
    Schwarz Cutoff:           1E-12
    Mask sparsity (%):      16.1853
    Fitting Condition:        1E-10

   => Auxiliary Basis Set <=

  Basis Set: (AUG-CC-PVTZ AUX)
    Blend: AUG-CC-PVTZ-JKFIT
    Number of shells: 390
    Number of basis functions: 1322
    Number of Cartesian functions: 1626
    Spherical Harmonics?: true
    Max angular momentum: 4

  Minimum eigenvalue in the overlap matrix is 1.2479712406E-04.
  Reciprocal condition number of the overlap matrix is 9.4563691564E-06.
    Using symmetric orthogonalization.

  ==> Pre-Iterations <==

  SCF Guess: Superposition of Atomic Densities via on-the-fly atomic UHF (no occupation information).

   -------------------------
    Irrep   Nso     Nmo    
   -------------------------
     A        602     602 
   -------------------------
    Total     602     602
   -------------------------

  ==> Iterations <==

                           Total Energy        Delta E     RMS |[F,P]|

   @DF-RHF iter SAD:  -452.87851538103490   -4.52879e+02   0.00000e+00 
   @DF-RHF iter   1:  -455.82669075873071   -2.94818e+00   1.89780e-03 DIIS/ADIIS
   @DF-RHF iter   2:  -456.13900608731518   -3.12315e-01   1.31727e-03 DIIS/ADIIS
   @DF-RHF iter   3:  -456.33586524423316   -1.96859e-01   9.28338e-05 DIIS
   @DF-RHF iter   4:  -456.33848510549223   -2.61986e-03   2.61500e-05 DIIS
   @DF-RHF iter   5:  -456.33867191964208   -1.86814e-04   9.87792e-06 DIIS
   @DF-RHF iter   6:  -456.33869553466820   -2.36150e-05   3.35934e-06 DIIS
   @DF-RHF iter   7:  -456.33869910491484   -3.57025e-06   6.60576e-07 DIIS
   @DF-RHF iter   8:  -456.33869933964843   -2.34734e-07   1.41026e-07 DIIS
   @DF-RHF iter   9:  -456.33869934651341   -6.86498e-09   6.35140e-08 DIIS
   @DF-RHF iter  10:  -456.33869934735901   -8.45603e-10   1.36377e-08 DIIS
   @DF-RHF iter  11:  -456.33869934743376   -7.47491e-11   4.33054e-09 DIIS
  Energy and wave function converged.


  ==> Post-Iterations <==

    Orbital Energies [Eh]
    ---------------------

    Doubly Occupied:                                                      

       1A    -20.597514     2A    -20.597024     3A    -20.596682  
       4A    -20.585515     5A    -20.583551     6A    -20.581726  
       7A     -1.377313     8A     -1.376077     9A     -1.367107  
      10A     -1.365413    11A     -1.362398    12A     -1.351062  
      13A     -0.749571    14A     -0.746989    15A     -0.729773  
      16A     -0.725668    17A     -0.714999    18A     -0.709838  
      19A     -0.613438    20A     -0.607797    21A     -0.601722  
      22A     -0.599776    23A     -0.596178    24A     -0.595027  
      25A     -0.538047    26A     -0.534587    27A     -0.529366  
      28A     -0.525843    29A     -0.524229    30A     -0.522534  

    Virtual:                                                              

      31A      0.000953    32A      0.022652    33A      0.033320  
      34A      0.040394    35A      0.041570    36A      0.054471  
      37A      0.057948    38A      0.059108    39A      0.071491  
      40A      0.078470    41A      0.085171    42A      0.086507  
      43A      0.094058    44A      0.108600    45A      0.115224  
      46A      0.126648    47A      0.133755    48A      0.143322  
      49A      0.151871    50A      0.156345    51A      0.162862  
      52A      0.171045    53A      0.172847    54A      0.177053  
      55A      0.180316    56A      0.181611    57A      0.185700  
      58A      0.190579    59A      0.192836    60A      0.197105  
      61A      0.199842    62A      0.212611    63A      0.215766  
      64A      0.219811    65A      0.226044    66A      0.228785  
      67A      0.233721    68A      0.237070    69A      0.246254  
      70A      0.248539    71A      0.252174    72A      0.258056  
      73A      0.270911    74A      0.274333    75A      0.278085  
      76A      0.285939    77A      0.292010    78A      0.293467  
      79A      0.301949    80A      0.308268    81A      0.310546  
      82A      0.321652    83A      0.323481    84A      0.327068  
      85A      0.333338    86A      0.342865    87A      0.346010  
      88A      0.357419    89A      0.361193    90A      0.367119  
      91A      0.377019    92A      0.379359    93A      0.385797  
      94A      0.397470    95A      0.402909    96A      0.410930  
      97A      0.414605    98A      0.420947    99A      0.423923  
     100A      0.436417   101A      0.439229   102A      0.448141  
     103A      0.452473   104A      0.454748   105A      0.468513  
     106A      0.469196   107A      0.476350   108A      0.479372  
     109A      0.489844   110A      0.496486   111A      0.505661  
     112A      0.512088   113A      0.517667   114A      0.534070  
     115A      0.555036   116A      0.558214   117A      0.573385  
     118A      0.575959   119A      0.581004   120A      0.593810  
     121A      0.597253   122A      0.614082   123A      0.625002  
     124A      0.631632   125A      0.640662   126A      0.642841  
     127A      0.654691   128A      0.662471   129A      0.669318  
     130A      0.677713   131A      0.683772   132A      0.695170  
     133A      0.702260   134A      0.708108   135A      0.710150  
     136A      0.723426   137A      0.726927   138A      0.731470  
     139A      0.735012   140A      0.737031   141A      0.744429  
     142A      0.747467   143A      0.757076   144A      0.761809  
     145A      0.772695   146A      0.780452   147A      0.783344  
     148A      0.784397   149A      0.790690   150A      0.795224  
     151A      0.801896   152A      0.805896   153A      0.818674  
     154A      0.826324   155A      0.828781   156A      0.837984  
     157A      0.849466   158A      0.856459   159A      0.873409  
     160A      0.875136   161A      0.884766   162A      0.886426  
     163A      0.891919   164A      0.897856   165A      0.907049  
     166A      0.909520   167A      0.912254   168A      0.923270  
     169A      0.927898   170A      0.929469   171A      0.933138  
     172A      0.944867   173A      0.945949   174A      0.951037  
     175A      0.952232   176A      0.963915   177A      0.969474  
     178A      0.974995   179A      0.978152   180A      0.982237  
     181A      0.995965   182A      0.997829   183A      1.005657  
     184A      1.010578   185A      1.019035   186A      1.021272  
     187A      1.024602   188A      1.034241   189A      1.036939  
     190A      1.041362   191A      1.046353   192A      1.054046  
     193A      1.060361   194A      1.066232   195A      1.074107  
     196A      1.082042   197A      1.083964   198A      1.090609  
     199A      1.095835   200A      1.105108   201A      1.108460  
     202A      1.113005   203A      1.117985   204A      1.134515  
     205A      1.137007   206A      1.141987   207A      1.148826  
     208A      1.157541   209A      1.164344   210A      1.171024  
     211A      1.175814   212A      1.178240   213A      1.195366  
     214A      1.199760   215A      1.206264   216A      1.221577  
     217A      1.222766   218A      1.231145   219A      1.241048  
     220A      1.255691   221A      1.271528   222A      1.273895  
     223A      1.279106   224A      1.286825   225A      1.291308  
     226A      1.293387   227A      1.302368   228A      1.319004  
     229A      1.328822   230A      1.334642   231A      1.347725  
     232A      1.357352   233A      1.371640   234A      1.374409  
     235A      1.385777   236A      1.388825   237A      1.407414  
     238A      1.417491   239A      1.443934   240A      1.455969  
     241A      1.461505   242A      1.464013   243A      1.480961  
     244A      1.491320   245A      1.514372   246A      1.517696  
     247A      1.527109   248A      1.542913   249A      1.546747  
     250A      1.563083   251A      1.573913   252A      1.583147  
     253A      1.585491   254A      1.594985   255A      1.600100  
     256A      1.608073   257A      1.623165   258A      1.627673  
     259A      1.637727   260A      1.639893   261A      1.653765  
     262A      1.677324   263A      1.699196   264A      1.701525  
     265A      1.713269   266A      1.714278   267A      1.727336  
     268A      1.741671   269A      1.747507   270A      1.767857  
     271A      1.780039   272A      1.788175   273A      1.802353  
     274A      1.807042   275A      1.826357   276A      1.829647  
     277A      1.842962   278A      1.858433   279A      1.868381  
     280A      1.880709   281A      1.891567   282A      1.910773  
     283A      1.917441   284A      1.937706   285A      1.942728  
     286A      1.960296   287A      1.966787   288A      1.990818  
     289A      1.996345   290A      2.018473   291A      2.042343  
     292A      2.047072   293A      2.061045   294A      2.078861  
     295A      2.106678   296A      2.120858   297A      2.145350  
     298A      2.173524   299A      2.184623   300A      2.215405  
     301A      2.260333   302A      2.297098   303A      2.306902  
     304A      2.318299   305A      2.322589   306A      2.337360  
     307A      2.349019   308A      2.353315   309A      2.376859  
     310A      2.388049   311A      2.400642   312A      2.407374  
     313A      2.408021   314A      2.418243   315A      2.428293  
     316A      2.431639   317A      2.446430   318A      2.453485  
     319A      2.458517   320A      2.462055   321A      2.470668  
     322A      2.475767   323A      2.483247   324A      2.487589  
     325A      2.494105   326A      2.505069   327A      2.508450  
     328A      2.521161   329A      2.528884   330A      2.532522  
     331A      2.546166   332A      2.556092   333A      2.561155  
     334A      2.586864   335A      2.591683   336A      2.604318  
     337A      2.607078   338A      2.627914   339A      2.630043  
     340A      2.652310   341A      2.660235   342A      2.669416  
     343A      2.682867   344A      2.695827   345A      2.706588  
     346A      2.715441   347A      2.734703   348A      2.745230  
     349A      2.750816   350A      2.758680   351A      2.769443  
     352A      2.771337   353A      2.779600   354A      2.790136  
     355A      2.800622   356A      2.808146   357A      2.825850  
     358A      2.835915   359A      2.850243   360A      2.853168  
     361A      2.866555   362A      2.872160   363A      2.897698  
     364A      2.912280   365A      2.929112   366A      2.932062  
     367A      2.942136   368A      2.963815   369A      2.968285  
     370A      2.997308   371A      3.027571   372A      3.038512  
     373A      3.055004   374A      3.066665   375A      3.083243  
     376A      3.105150   377A      3.115258   378A      3.634345  
     379A      3.683419   380A      3.733498   381A      3.755752  
     382A      3.773761   383A      3.786024   384A      3.797927  
     385A      3.832260   386A      3.890911   387A      3.910648  
     388A      3.919524   389A      3.926004   390A      4.017398  
     391A      4.032967   392A      4.046355   393A      4.062822  
     394A      4.072158   395A      4.098162   396A      4.111006  
     397A      4.122990   398A      4.128924   399A      4.151887  
     400A      4.166051   401A      4.178584   402A      4.187137  
     403A      4.187792   404A      4.196532   405A      4.218055  
     406A      4.221429   407A      4.222780   408A      4.232415  
     409A      4.252945   410A      4.255150   411A      4.258727  
     412A      4.262419   413A      4.272264   414A      4.282154  
     415A      4.286416   416A      4.289402   417A      4.298469  
     418A      4.315803   419A      4.322463   420A      4.325039  
     421A      4.335066   422A      4.343208   423A      4.344972  
     424A      4.357873   425A      4.365679   426A      4.372266  
     427A      4.376469   428A      4.382907   429A      4.393145  
     430A      4.396344   431A      4.405326   432A      4.408818  
     433A      4.413449   434A      4.423505   435A      4.430216  
     436A      4.443371   437A      4.444929   438A      4.457699  
     439A      4.462850   440A      4.471663   441A      4.480000  
     442A      4.507479   443A      4.515635   444A      4.521351  
     445A      4.534238   446A      4.542041   447A      4.547159  
     448A      4.564403   449A      4.583775   450A      4.597439  
     451A      4.612841   452A      4.666185   453A      4.675821  
     454A      4.694652   455A      4.754187   456A      4.768599  
     457A      4.774871   458A      4.793478   459A      4.800542  
     460A      4.807259   461A      4.841251   462A      4.856563  
     463A      4.872682   464A      4.888328   465A      4.912519  
     466A      4.956911   467A      4.964625   468A      4.997866  
     469A      5.024643   470A      5.036314   471A      5.055172  
     472A      5.120229   473A      5.127269   474A      5.136075  
     475A      5.144432   476A      5.158633   477A      5.160913  
     478A      5.171413   479A      5.183018   480A      5.195935  
     481A      5.205420   482A      5.236626   483A      5.250409  
     484A      5.268989   485A      5.283765   486A      5.303868  
     487A      5.309389   488A      5.325480   489A      5.336802  
     490A      5.347385   491A      5.365419   492A      5.376599  
     493A      5.406373   494A      5.417885   495A      5.427976  
     496A      5.442483   497A      5.496732   498A      5.498113  
     499A      5.507504   500A      5.517883   501A      5.554486  
     502A      5.623292   503A      5.630473   504A      5.681111  
     505A      5.752566   506A      5.774979   507A      5.792696  
     508A      6.191906   509A      6.204894   510A      6.210712  
     511A      6.216410   512A      6.233179   513A      6.357616  
     514A      6.529018   515A      6.538013   516A      6.551972  
     517A      6.560693   518A      6.561514   519A      6.574561  
     520A      6.749681   521A      6.755207   522A      6.768214  
     523A      6.786128   524A      6.813939   525A      6.824269  
     526A      6.892951   527A      6.895422   528A      6.914981  
     529A      6.935939   530A      6.938406   531A      7.014155  
     532A      7.045924   533A      7.120978   534A      7.137595  
     535A      7.145594   536A      7.161620   537A      7.176033  
     538A      7.226500   539A      7.237909   540A      7.250049  
     541A      7.266148   542A      7.274765   543A      7.278343  
     544A      7.290167   545A      7.304030   546A      7.308285  
     547A      7.312767   548A      7.315125   549A      7.322536  
     550A      7.329526   551A      7.338166   552A      7.345704  
     553A      7.351080   554A      7.358820   555A      7.365062  
     556A      7.371805   557A      7.376952   558A      7.384730  
     559A      7.390043   560A      7.423977   561A      7.440376  
     562A      7.451895   563A      7.454603   564A      7.458399  
     565A      7.472258   566A      7.489366   567A      7.508233  
     568A      7.576647   569A      7.634091   570A      7.656982  
     571A      7.716161   572A      7.745140   573A      7.776472  
     574A      7.876700   575A      7.888291   576A      7.893707  
     577A      7.920416   578A      7.922612   579A      7.937593  
     580A      7.960151   581A      7.968822   582A      7.981184  
     583A      7.988175   584A      7.999083   585A      8.049808  
     586A      8.551970   587A      8.754409   588A      8.783335  
     589A      8.786473   590A      8.803814   591A      8.866705  
     592A     15.193953   593A     15.704382   594A     15.753835  
     595A     16.138046   596A     16.547860   597A     16.603386  
     598A     16.998044   599A     28.276771   600A     28.307326  
     601A     28.388048   602A    160.917215  

    Final Occupation by Irrep:
              A 
    DOCC [    30 ]
    NA   [    30 ]
    NB   [    30 ]

  @DF-RHF Final Energy:  -456.33869934743376

   => Energetics <=

    Nuclear Repulsion Energy =            223.5133154891757954
    One-Electron Energy =               -1073.8904974328031585
    Two-Electron Energy =                 394.0384825961936599
    Total Energy =                       -456.3386993474337601

Computation Completed


Properties will be evaluated at   0.000000,   0.000000,   0.000000 [a0]

Properties computed using the SCF density matrix


 Multipole Moments:

 ------------------------------------------------------------------------------------
     Multipole            Electronic (a.u.)      Nuclear  (a.u.)        Total (a.u.)
 ------------------------------------------------------------------------------------

 L = 1.  Multiply by 2.5417464519 to convert [e a0] to [Debye]
 Dipole X            :        -15.5839160           15.0785140           -0.5054019
 Dipole Y            :        -54.8642570           54.0852052           -0.7790519
 Dipole Z            :         39.1346704          -38.9641893            0.1704811
 Magnitude           :                                                    0.9441487

 ------------------------------------------------------------------------------------

*** tstop() called on moses-razer at Sat Jan  6 22:59:32 2024
Module time:
	user time   =      80.02 seconds =       1.33 minutes
	system time =       2.85 seconds =       0.05 minutes
	total time  =         15 seconds =       0.25 minutes
Total time:
	user time   =      80.02 seconds =       1.33 minutes
	system time =       2.85 seconds =       0.05 minutes
	total time  =         15 seconds =       0.25 minutes

*** tstart() called on moses-razer
*** at Sat Jan  6 22:59:32 2024


  //>>>>>>>>>>>>>>>>>>>>>>>>>>>>>>>>>>>//
  //               DFMP2               //
  //<<<<<<<<<<<<<<<<<<<<<<<<<<<<<<<<<<<//

   => Loading Basis Set <=

    Name: (AUG-CC-PVTZ AUX)
    Role: RIFIT
    Keyword: DF_BASIS_MP2
    atoms 1                                   entry CL         line   742 file /home/kchung25/anaconda3/envs/p415env/share/psi4/basis/aug-cc-pvtz-ri.gbs 
    atoms 2, 5, 8, 11, 14, 17                 entry O          line   264 file /home/kchung25/anaconda3/envs/p415env/share/psi4/basis/aug-cc-pvtz-ri.gbs 
    atoms 3-4, 6-7, 9-10, 12-13, 15-16, 18-19 entry H          line    30 file /home/kchung25/anaconda3/envs/p415env/share/psi4/basis/aug-cc-pvtz-ri.gbs 

	 --------------------------------------------------------
	                          DF-MP2                         
	      2nd-Order Density-Fitted Moller-Plesset Theory     
	              RMP2 Wavefunction,   6 Threads             
	                                                         
	        Rob Parrish, Justin Turney, Andy Simmonett,      
	           Ed Hohenstein, and C. David Sherrill          
	 --------------------------------------------------------

   => Auxiliary Basis Set <=

  Basis Set: (AUG-CC-PVTZ AUX)
    Blend: AUG-CC-PVTZ-RI
    Number of shells: 373
    Number of basis functions: 1335
    Number of Cartesian functions: 1667
    Spherical Harmonics?: true
    Max angular momentum: 4

	 --------------------------------------------------------
	                 NBF =   602, NAUX =  1335
	 --------------------------------------------------------
	   CLASS    FOCC     OCC    AOCC    AVIR     VIR    FVIR
	   PAIRS       0      30      30     572     572       0
	 --------------------------------------------------------

	-----------------------------------------------------------
	 ==================> DF-MP2 Energies <==================== 
	-----------------------------------------------------------
	 Reference Energy          =    -456.3386993474337601 [Eh]
	 Singles Energy            =      -0.0000000000000000 [Eh]
	 Same-Spin Energy          =      -0.4141159236192900 [Eh]
	 Opposite-Spin Energy      =      -1.3027067684635183 [Eh]
	 Correlation Energy        =      -1.7168226920828082 [Eh]
	 Total Energy              =    -458.0555220395165748 [Eh]
	-----------------------------------------------------------
	 ================> DF-SCS-MP2 Energies <================== 
	-----------------------------------------------------------
	 SCS Same-Spin Scale       =       0.3333333333333333 [-]
	 SCS Opposite-Spin Scale   =       1.2000000000000000 [-]
	 SCS Same-Spin Energy      =      -0.1380386412064300 [Eh]
	 SCS Opposite-Spin Energy  =      -1.5632481221562220 [Eh]
	 SCS Correlation Energy    =      -1.7012867633626521 [Eh]
	 SCS Total Energy          =    -458.0399861107964057 [Eh]
	-----------------------------------------------------------


*** tstop() called on moses-razer at Sat Jan  6 22:59:39 2024
Module time:
	user time   =      33.86 seconds =       0.56 minutes
	system time =       1.75 seconds =       0.03 minutes
	total time  =          7 seconds =       0.12 minutes
Total time:
	user time   =     113.88 seconds =       1.90 minutes
	system time =       4.60 seconds =       0.08 minutes
	total time  =         22 seconds =       0.37 minutes

    Psi4 stopped on: Saturday, 06 January 2024 10:59PM
    Psi4 wall time for execution: 0:00:22.83


    -----------------------------------------------------------------------
          Psi4: An Open-Source Ab Initio Electronic Structure Package
                               Psi4 1.9 release

                         Git: Rev {} zzzzzzz 


    D. G. A. Smith, L. A. Burns, A. C. Simmonett, R. M. Parrish,
    M. C. Schieber, R. Galvelis, P. Kraus, H. Kruse, R. Di Remigio,
    A. Alenaizan, A. M. James, S. Lehtola, J. P. Misiewicz, M. Scheurer,
    R. A. Shaw, J. B. Schriber, Y. Xie, Z. L. Glick, D. A. Sirianni,
    J. S. O'Brien, J. M. Waldrop, A. Kumar, E. G. Hohenstein,
    B. P. Pritchard, B. R. Brooks, H. F. Schaefer III, A. Yu. Sokolov,
    K. Patkowski, A. E. DePrince III, U. Bozkaya, R. A. King,
    F. A. Evangelista, J. M. Turney, T. D. Crawford, C. D. Sherrill,
    J. Chem. Phys. 152(18) 184108 (2020). https://doi.org/10.1063/5.0006002

                            Additional Code Authors
    E. T. Seidl, C. L. Janssen, E. F. Valeev, M. L. Leininger,
    J. F. Gonthier, R. M. Richard, H. R. McAlexander, M. Saitow, X. Wang,
    P. Verma, M. H. Lechner, A. Jiang, S. Behnle, A. G. Heide,
    M. F. Herbst, and D. L. Poole

             Previous Authors, Complete List of Code Contributors,
                       and Citations for Specific Modules
    https://github.com/psi4/psi4/blob/master/codemeta.json
    https://github.com/psi4/psi4/graphs/contributors
    http://psicode.org/psi4manual/master/introduction.html#citing-psifour

    -----------------------------------------------------------------------


    Psi4 started on: Saturday, 06 January 2024 10:59PM

    Process ID: 559188
    Host:       moses-razer
    PSIDATADIR: /home/kchung25/anaconda3/envs/psi4_19/share/psi4
    Memory:     55.9 GiB
    Threads:    6
    
  ==> Input QCSchema <==

--------------------------------------------------------------------------
{'driver': 'energy',
 'extras': {'psiapi': True, 'wfn_qcvars_only': True},
 'id': None,
 'keywords': {'SCF_TYPE': 'DF', 'function_kwargs': {}},
 'model': {'basis': 'aug-cc-pvtz', 'method': 'mp2'},
 'molecule': {'atom_labels': ['', '', '', '', '', '', '', '', '', '', '', '', '', '', '', '', '', '', ''],
              'atomic_numbers': [17, 8, 1, 1, 8, 1, 1, 8, 1, 1, 8, 1, 1, 8, 1, 1, 8, 1, 1],
              'extras': {},
              'fix_com': True,
              'fix_orientation': True,
              'fix_symmetry': 'c1',
              'fragment_charges': [-1.0, 0.0],
              'fragment_multiplicities': [1, 1],
              'fragments': [[0], [1, 2, 3, 4, 5, 6, 7, 8, 9, 10, 11, 12, 13, 14, 15, 16, 17, 18]],
              'geometry': [0.0, 0.0, 0.0, 5.89799397454842, -0.7636137608578774, -1.6730803635308409, 5.889537450136996,
                           -0.7036603098016023, -3.488141520045705, 4.143638380087763, -0.6244562187052884,
                           -1.1652353645753042, -5.327402509323181, 2.9673500074046566, -1.3870778733473006,
                           -4.934607816337769, 3.3947266884859477, -3.2614972171889205, -3.8064224221781906,
                           2.087625804220274, -0.8200088576199154, 0.6982424649999147, 5.968199189835303,
                           0.5159557034860017, 0.504271526852296, 4.284245342178579, -0.2823402009524032,
                           0.1178867848844357, 5.540032603233571, 2.213394636773994, 2.707474870631696,
                           2.4698644870688797, 5.413927399429519, 2.972410693968632, 0.7986870777463747,
                           5.957276572830157, 2.580379450337904, 2.440237360873952, 3.610637346950132,
                           -3.43339237473894, -5.52874148963396, -0.4642206713493428, -3.389373094372526,
                           -4.091470600668375, 0.6771946954145655, -3.7815706339022945, -6.925623262120136,
                           0.6496405987792648, 1.1084774403971782, 0.5405485992827099, -6.365946854995542,
                           0.7880857141825562, 2.274844750921632, -6.803482703727295, 0.7831270728293549,
                           0.3811596492309694, -4.568085985674595],
              'mass_numbers': [35, 16, 1, 1, 16, 1, 1, 16, 1, 1, 16, 1, 1, 16, 1, 1, 16, 1, 1],
              'masses': [34.968852682, 15.99491461957, 1.00782503223, 1.00782503223, 15.99491461957, 1.00782503223,
                         1.00782503223, 15.99491461957, 1.00782503223, 1.00782503223, 15.99491461957, 1.00782503223,
                         1.00782503223, 15.99491461957, 1.00782503223, 1.00782503223, 15.99491461957, 1.00782503223,
                         1.00782503223],
              'molecular_charge': -1.0,
              'molecular_multiplicity': 1,
              'name': 'dimer',
              'provenance': {'creator': 'QCElemental',
                             'routine': 'qcelemental.molparse.from_string',
                             'version': '0.27.1'},
              'real': [True, False, False, False, False, False, False, False, False, False, False, False, False, False,
                       False, False, False, False, False],
              'schema_name': 'qcschema_molecule',
              'schema_version': 2,
              'symbols': ['Cl', 'O', 'H', 'H', 'O', 'H', 'H', 'O', 'H', 'H', 'O', 'H', 'H', 'O', 'H', 'H', 'O', 'H',
                          'H'],
              'validated': True},
 'protocols': {'stdout': True},
 'provenance': {'creator': 'QCElemental', 'routine': 'qcelemental.models.results', 'version': '0.27.1'},
 'schema_name': 'qcschema_input',
 'schema_version': 1}
--------------------------------------------------------------------------

Scratch directory: /scratch/
   => Libint2 <=

    Primary   basis highest AM E, G, H:  5, 4, 3
    Auxiliary basis highest AM E, G, H:  6, 5, 4
    Onebody   basis highest AM E, G, H:  6, 5, 4
    Solid Harmonics ordering:            gaussian

*** tstart() called on moses-razer
*** at Sat Jan  6 22:59:39 2024

   => Loading Basis Set <=

    Name: AUG-CC-PVTZ
    Role: ORBITAL
    Keyword: BASIS
    atoms 1                                   entry CL         line   988 file /home/kchung25/anaconda3/envs/p415env/share/psi4/basis/aug-cc-pvtz.gbs 
    atoms 2, 5, 8, 11, 14, 17                 entry O          line   331 file /home/kchung25/anaconda3/envs/p415env/share/psi4/basis/aug-cc-pvtz.gbs 
    atoms 3-4, 6-7, 9-10, 12-13, 15-16, 18-19 entry H          line    40 file /home/kchung25/anaconda3/envs/p415env/share/psi4/basis/aug-cc-pvtz.gbs 


         ---------------------------------------------------------
                                   SCF
               by Justin Turney, Rob Parrish, Andy Simmonett
                          and Daniel G. A. Smith
                              RHF Reference
                        6 Threads,  57220 MiB Core
         ---------------------------------------------------------

  ==> Geometry <==

    Molecular point group: c1
    Full point group: C1

    Geometry (in Bohr), charge = -1, multiplicity = 1:

       Center              X                  Y                   Z               Mass       
    ------------   -----------------  -----------------  -----------------  -----------------
         CL           0.000000000000     0.000000000000     0.000000000000    34.968852682000
      Gh(O)           5.897993974548    -0.763613760858    -1.673080363531    15.994914619570
      Gh(H)           5.889537450137    -0.703660309802    -3.488141520046     1.007825032230
      Gh(H)           4.143638380088    -0.624456218705    -1.165235364575     1.007825032230
      Gh(O)          -5.327402509323     2.967350007405    -1.387077873347    15.994914619570
      Gh(H)          -4.934607816338     3.394726688486    -3.261497217189     1.007825032230
      Gh(H)          -3.806422422178     2.087625804220    -0.820008857620     1.007825032230
      Gh(O)           0.698242465000     5.968199189835     0.515955703486    15.994914619570
      Gh(H)           0.504271526852     4.284245342179    -0.282340200952     1.007825032230
      Gh(H)           0.117886784884     5.540032603234     2.213394636774     1.007825032230
      Gh(O)           2.707474870632     2.469864487069     5.413927399430    15.994914619570
      Gh(H)           2.972410693969     0.798687077746     5.957276572830     1.007825032230
      Gh(H)           2.580379450338     2.440237360874     3.610637346950     1.007825032230
      Gh(O)          -3.433392374739    -5.528741489634    -0.464220671349    15.994914619570
      Gh(H)          -3.389373094373    -4.091470600668     0.677194695415     1.007825032230
      Gh(H)          -3.781570633902    -6.925623262120     0.649640598779     1.007825032230
      Gh(O)           1.108477440397     0.540548599283    -6.365946854996    15.994914619570
      Gh(H)           0.788085714183     2.274844750922    -6.803482703727     1.007825032230
      Gh(H)           0.783127072829     0.381159649231    -4.568085985675     1.007825032230

  Running in c1 symmetry.

  Rotational constants: A =      0.02397  B =      0.02029  C =      0.01953 [cm^-1]
  Rotational constants: A =    718.53717  B =    608.25812  C =    585.51659 [MHz]
  Nuclear repulsion =    0.000000000000000

  Charge       = -1
  Multiplicity = 1
  Electrons    = 18
  Nalpha       = 9
  Nbeta        = 9

  ==> Algorithm <==

  SCF Algorithm Type is DF.
  DIIS enabled.
  MOM disabled.
  Fractional occupation disabled.
  Guess Type is SAD.
  Energy threshold   = 1.00e-08
  Density threshold  = 1.00e-08
  Integral threshold = 1.00e-12

  ==> Primary Basis <==

  Basis Set: AUG-CC-PVTZ
    Blend: AUG-CC-PVTZ
    Number of shells: 208
    Number of basis functions: 602
    Number of Cartesian functions: 689
    Spherical Harmonics?: true
    Max angular momentum: 3

   => Loading Basis Set <=

    Name: (AUG-CC-PVTZ AUX)
    Role: JKFIT
    Keyword: DF_BASIS_SCF
    atoms 1                                   entry CL         line   816 file /home/kchung25/anaconda3/envs/p415env/share/psi4/basis/aug-cc-pvtz-jkfit.gbs 
    atoms 2, 5, 8, 11, 14, 17                 entry O          line   286 file /home/kchung25/anaconda3/envs/p415env/share/psi4/basis/aug-cc-pvtz-jkfit.gbs 
    atoms 3-4, 6-7, 9-10, 12-13, 15-16, 18-19 entry H          line    70 file /home/kchung25/anaconda3/envs/p415env/share/psi4/basis/aug-cc-pvtz-jkfit.gbs 

  ==> Integral Setup <==

  DFHelper Memory: AOs need 3.094 GiB; user supplied 41.910 GiB. 
  Using in-core AOs.

  ==> MemDFJK: Density-Fitted J/K Matrices <==

    J tasked:                   Yes
    K tasked:                   Yes
    wK tasked:                   No
    OpenMP threads:               6
    Memory [MiB]:             42915
    Algorithm:                 Core
    Schwarz Cutoff:           1E-12
    Mask sparsity (%):      16.1853
    Fitting Condition:        1E-10

   => Auxiliary Basis Set <=

  Basis Set: (AUG-CC-PVTZ AUX)
    Blend: AUG-CC-PVTZ-JKFIT
    Number of shells: 390
    Number of basis functions: 1322
    Number of Cartesian functions: 1626
    Spherical Harmonics?: true
    Max angular momentum: 4

  Minimum eigenvalue in the overlap matrix is 1.2479712406E-04.
  Reciprocal condition number of the overlap matrix is 9.4563691564E-06.
    Using symmetric orthogonalization.

  ==> Pre-Iterations <==

  SCF Guess: Superposition of Atomic Densities via on-the-fly atomic UHF (no occupation information).

   -------------------------
    Irrep   Nso     Nmo    
   -------------------------
     A        602     602 
   -------------------------
    Total     602     602
   -------------------------

  ==> Iterations <==

                           Total Energy        Delta E     RMS |[F,P]|

   @DF-RHF iter SAD:  -459.11248998844451   -4.59112e+02   0.00000e+00 
   @DF-RHF iter   1:  -459.51390609640549   -4.01416e-01   4.96453e-04 DIIS/ADIIS
   @DF-RHF iter   2:  -459.56482486784631   -5.09188e-02   2.54606e-04 DIIS/ADIIS
   @DF-RHF iter   3:  -459.57352360920589   -8.69874e-03   1.78836e-05 DIIS
   @DF-RHF iter   4:  -459.57358179479752   -5.81856e-05   3.49022e-06 DIIS
   @DF-RHF iter   5:  -459.57358541188756   -3.61709e-06   3.57710e-07 DIIS
   @DF-RHF iter   6:  -459.57358549520779   -8.33202e-08   3.35347e-08 DIIS
   @DF-RHF iter   7:  -459.57358549632829   -1.12050e-09   3.77350e-09 DIIS
  Energy and wave function converged.


  ==> Post-Iterations <==

    Orbital Energies [Eh]
    ---------------------

    Doubly Occupied:                                                      

       1A   -104.507370     2A    -10.230087     3A     -7.696150  
       4A     -7.696148     5A     -7.696135     6A     -0.733461  
       7A     -0.150305     8A     -0.150302     9A     -0.150299  

    Virtual:                                                              

      10A      0.118013    11A      0.122354    12A      0.129959  
      13A      0.130932    14A      0.142676    15A      0.145435  
      16A      0.157738    17A      0.164125    18A      0.168057  
      19A      0.176600    20A      0.179240    21A      0.187652  
      22A      0.231107    23A      0.239809    24A      0.244243  
      25A      0.249952    26A      0.255075    27A      0.259210  
      28A      0.262204    29A      0.268738    30A      0.271414  
      31A      0.275468    32A      0.276298    33A      0.281408  
      34A      0.289848    35A      0.291194    36A      0.297408  
      37A      0.302646    38A      0.314063    39A      0.316345  
      40A      0.325854    41A      0.328834    42A      0.331443  
      43A      0.337896    44A      0.342297    45A      0.353598  
      46A      0.357167    47A      0.372111    48A      0.379438  
      49A      0.399302    50A      0.409307    51A      0.420125  
      52A      0.423029    53A      0.436007    54A      0.437550  
      55A      0.439015    56A      0.441778    57A      0.452716  
      58A      0.457545    59A      0.464044    60A      0.472658  
      61A      0.480509    62A      0.483160    63A      0.488954  
      64A      0.496113    65A      0.501366    66A      0.505984  
      67A      0.509247    68A      0.512767    69A      0.515931  
      70A      0.519275    71A      0.525370    72A      0.529741  
      73A      0.532207    74A      0.538267    75A      0.546807  
      76A      0.556700    77A      0.558124    78A      0.562628  
      79A      0.572398    80A      0.585485    81A      0.587037  
      82A      0.604729    83A      0.608400    84A      0.612472  
      85A      0.619543    86A      0.629498    87A      0.644863  
      88A      0.651917    89A      0.666544    90A      0.668380  
      91A      0.678331    92A      0.682332    93A      0.692942  
      94A      0.702640    95A      0.713700    96A      0.729997  
      97A      0.736342    98A      0.758576    99A      0.783871  
     100A      0.797849   101A      0.802824   102A      0.824376  
     103A      0.827970   104A      0.834652   105A      0.841830  
     106A      0.852103   107A      0.865623   108A      0.880981  
     109A      0.882634   110A      0.885226   111A      0.897291  
     112A      0.902120   113A      0.903563   114A      0.916539  
     115A      0.918505   116A      0.929554   117A      0.934022  
     118A      0.937409   119A      0.941152   120A      0.947633  
     121A      0.951599   122A      0.955186   123A      0.960745  
     124A      0.961623   125A      0.969804   126A      0.979746  
     127A      0.982909   128A      0.989462   129A      0.993034  
     130A      0.997815   131A      1.002729   132A      1.005832  
     133A      1.011159   134A      1.019522   135A      1.022598  
     136A      1.025379   137A      1.029771   138A      1.036530  
     139A      1.043044   140A      1.049479   141A      1.053813  
     142A      1.065129   143A      1.065626   144A      1.072249  
     145A      1.074235   146A      1.081433   147A      1.093725  
     148A      1.098492   149A      1.104223   150A      1.107302  
     151A      1.113285   152A      1.113979   153A      1.123701  
     154A      1.126149   155A      1.136261   156A      1.140767  
     157A      1.144279   158A      1.149173   159A      1.153138  
     160A      1.159660   161A      1.167069   162A      1.169218  
     163A      1.171043   164A      1.181310   165A      1.192944  
     166A      1.194588   167A      1.201313   168A      1.207278  
     169A      1.214311   170A      1.221103   171A      1.229736  
     172A      1.235570   173A      1.252954   174A      1.258507  
     175A      1.263097   176A      1.267812   177A      1.272498  
     178A      1.276104   179A      1.278497   180A      1.294549  
     181A      1.297018   182A      1.307020   183A      1.314218  
     184A      1.321528   185A      1.333137   186A      1.338351  
     187A      1.345116   188A      1.350863   189A      1.356322  
     190A      1.361770   191A      1.370778   192A      1.390554  
     193A      1.394826   194A      1.409448   195A      1.417883  
     196A      1.420984   197A      1.440017   198A      1.442924  
     199A      1.452449   200A      1.469390   201A      1.476187  
     202A      1.494711   203A      1.502444   204A      1.508420  
     205A      1.519155   206A      1.522931   207A      1.531415  
     208A      1.541920   209A      1.559676   210A      1.565893  
     211A      1.569596   212A      1.591399   213A      1.595246  
     214A      1.607745   215A      1.615259   216A      1.624843  
     217A      1.631034   218A      1.636360   219A      1.644199  
     220A      1.653884   221A      1.685579   222A      1.707176  
     223A      1.712771   224A      1.726715   225A      1.731446  
     226A      1.742760   227A      1.756137   228A      1.785951  
     229A      1.800629   230A      1.814599   231A      1.832767  
     232A      1.842755   233A      1.849587   234A      1.859813  
     235A      1.867487   236A      1.872188   237A      1.895238  
     238A      1.896776   239A      1.909060   240A      1.915597  
     241A      1.922535   242A      1.932629   243A      1.939748  
     244A      1.946157   245A      1.954900   246A      1.956680  
     247A      1.966106   248A      1.967716   249A      1.978195  
     250A      1.982740   251A      1.999884   252A      2.002468  
     253A      2.006681   254A      2.018819   255A      2.029732  
     256A      2.039572   257A      2.050465   258A      2.065713  
     259A      2.080604   260A      2.093483   261A      2.097699  
     262A      2.106132   263A      2.123129   264A      2.127513  
     265A      2.139441   266A      2.150459   267A      2.183955  
     268A      2.190882   269A      2.206761   270A      2.223076  
     271A      2.229950   272A      2.265209   273A      2.283590  
     274A      2.321144   275A      2.329850   276A      2.338032  
     277A      2.355481   278A      2.362925   279A      2.429412  
     280A      2.433455   281A      2.571934   282A      2.586559  
     283A      2.609299   284A      2.623646   285A      2.630511  
     286A      2.647716   287A      2.658112   288A      2.662840  
     289A      2.673411   290A      2.680971   291A      2.693266  
     292A      2.702968   293A      2.704926   294A      2.715699  
     295A      2.721032   296A      2.723023   297A      2.732610  
     298A      2.742155   299A      2.755912   300A      2.768981  
     301A      2.776882   302A      2.781721   303A      2.792559  
     304A      2.797512   305A      2.801933   306A      2.819314  
     307A      2.830192   308A      2.831613   309A      2.833870  
     310A      2.845664   311A      2.848913   312A      2.857946  
     313A      2.864757   314A      2.876376   315A      2.878512  
     316A      2.903036   317A      2.913143   318A      2.919059  
     319A      2.928238   320A      2.930585   321A      2.956752  
     322A      2.959454   323A      2.977075   324A      2.989253  
     325A      3.006388   326A      3.013757   327A      3.032041  
     328A      3.052945   329A      3.066988   330A      3.088665  
     331A      3.115475   332A      3.151342   333A      3.169752  
     334A      3.183766   335A      3.191610   336A      3.198168  
     337A      3.231752   338A      3.275430   339A      3.289964  
     340A      3.312382   341A      3.328817   342A      3.344319  
     343A      3.358689   344A      3.366086   345A      3.374833  
     346A      3.379458   347A      3.380246   348A      3.381303  
     349A      3.392020   350A      3.401361   351A      3.424375  
     352A      3.425628   353A      3.445212   354A      3.467790  
     355A      3.486014   356A      3.494951   357A      3.527619  
     358A      3.533268   359A      3.544292   360A      3.550777  
     361A      3.576388   362A      3.590495   363A      3.603134  
     364A      3.633733   365A      3.644945   366A      3.648835  
     367A      3.655105   368A      3.675142   369A      3.687462  
     370A      3.695358   371A      3.720766   372A      3.730484  
     373A      3.744500   374A      3.754276   375A      3.782976  
     376A      3.791957   377A      3.797596   378A      3.824772  
     379A      3.832608   380A      3.856013   381A      3.868155  
     382A      3.885896   383A      3.899065   384A      3.916845  
     385A      3.951101   386A      3.970044   387A      4.001162  
     388A      4.017831   389A      4.081738   390A      4.111689  
     391A      4.126946   392A      4.544075   393A      4.560621  
     394A      4.568519   395A      4.575010   396A      4.589346  
     397A      4.599479   398A      4.601859   399A      4.630193  
     400A      4.648746   401A      4.652143   402A      4.660468  
     403A      4.689195   404A      4.699574   405A      4.732128  
     406A      4.751904   407A      4.758088   408A      4.770945  
     409A      4.777057   410A      4.785108   411A      4.793267  
     412A      4.810669   413A      4.814403   414A      4.822179  
     415A      4.834802   416A      4.841817   417A      4.854764  
     418A      4.860889   419A      4.887123   420A      4.894653  
     421A      4.919582   422A      4.956806   423A      4.976182  
     424A      5.020632   425A      5.032776   426A      5.041451  
     427A      5.046165   428A      5.052805   429A      5.072067  
     430A      5.074324   431A      5.080472   432A      5.085735  
     433A      5.114074   434A      5.120085   435A      5.136030  
     436A      5.159532   437A      5.185346   438A      5.191523  
     439A      5.206119   440A      5.220564   441A      5.239533  
     442A      5.259142   443A      5.261439   444A      5.278694  
     445A      5.318211   446A      5.402550   447A      5.415146  
     448A      5.424252   449A      5.431396   450A      5.456747  
     451A      5.549466   452A      5.557541   453A      5.595199  
     454A      5.682102   455A      5.703216   456A      5.717216  
     457A      5.735077   458A      5.762196   459A      5.777168  
     460A      5.781713   461A      5.788712   462A      5.794290  
     463A      5.796055   464A      5.827325   465A      5.835919  
     466A      5.845992   467A      5.852648   468A      5.874503  
     469A      5.911319   470A      5.942610   471A      6.022531  
     472A      6.035139   473A      6.051828   474A      6.067029  
     475A      6.106300   476A      6.278044   477A      6.328715  
     478A      6.342591   479A      6.346860   480A      6.355421  
     481A      6.387123   482A      6.476924   483A      6.527119  
     484A      6.530712   485A      6.601821   486A      6.608375  
     487A      6.642714   488A      6.675049   489A      6.762607  
     490A      6.796409   491A      6.869337   492A      6.889958  
     493A      6.950744   494A      7.147682   495A      7.192137  
     496A      7.196972   497A      7.271402   498A      7.284445  
     499A      7.330013   500A      7.643953   501A      7.866536  
     502A      7.873725   503A      7.884199   504A      7.904780  
     505A      7.935846   506A      7.946094   507A      7.982222  
     508A      7.985601   509A      7.997284   510A      8.009972  
     511A      8.027789   512A      8.122726   513A      8.147698  
     514A      8.192655   515A      8.236399   516A      8.245794  
     517A      8.257517   518A      8.281901   519A      8.293940  
     520A      8.306027   521A      8.331643   522A      8.400118  
     523A      8.410967   524A      8.440599   525A      8.443828  
     526A      8.444733   527A      8.472384   528A      8.474791  
     529A      8.488570   530A      8.494375   531A      8.759754  
     532A      8.877772   533A      8.884773   534A      8.945420  
     535A      8.970848   536A      8.974573   537A      9.018908  
     538A      9.035102   539A      9.051580   540A      9.159183  
     541A      9.191049   542A      9.204279   543A      9.798881  
     544A      9.867036   545A      9.882595   546A      9.891897  
     547A      9.943913   548A      9.952978   549A     10.016424  
     550A     10.037071   551A     10.041865   552A     10.050439  
     553A     10.059220   554A     10.114740   555A     10.166743  
     556A     10.226238   557A     10.235135   558A     10.248910  
     559A     10.270839   560A     10.280249   561A     10.410732  
     562A     10.452968   563A     10.472507   564A     10.487107  
     565A     10.510956   566A     10.577551   567A     11.038557  
     568A     11.318980   569A     11.347895   570A     11.357560  
     571A     11.373878   572A     11.448913   573A     11.779725  
     574A     11.843628   575A     11.893105   576A     11.911838  
     577A     11.942041   578A     11.979070   579A     12.013158  
     580A     12.132752   581A     12.191807   582A     12.316879  
     583A     12.326521   584A     12.434968   585A     13.545374  
     586A     13.686352   587A     13.760590   588A     13.782752  
     589A     13.815693   590A     13.862920   591A     13.988715  
     592A     14.050068   593A     14.123148   594A     14.161521  
     595A     14.166621   596A     14.187723   597A     64.656406  
     598A     64.765387   599A     65.319217   600A     66.383925  
     601A     66.625325   602A     66.647652  

    Final Occupation by Irrep:
              A 
    DOCC [     9 ]
    NA   [     9 ]
    NB   [     9 ]

  @DF-RHF Final Energy:  -459.57358549632829

   => Energetics <=

    Nuclear Repulsion Energy =              0.0000000000000000
    One-Electron Energy =                -641.1266728209520807
    Two-Electron Energy =                 181.5530873246238173
    Total Energy =                       -459.5735854963282918

Computation Completed


Properties will be evaluated at   0.000000,   0.000000,   0.000000 [a0]

Properties computed using the SCF density matrix


 Multipole Moments:

 ------------------------------------------------------------------------------------
     Multipole            Electronic (a.u.)      Nuclear  (a.u.)        Total (a.u.)
 ------------------------------------------------------------------------------------

 L = 1.  Multiply by 2.5417464519 to convert [e a0] to [Debye]
 Dipole X            :          0.0000007            0.0000000            0.0000007
 Dipole Y            :          0.0001726            0.0000000            0.0001726
 Dipole Z            :         -0.0003139            0.0000000           -0.0003139
 Magnitude           :                                                    0.0003583

 ------------------------------------------------------------------------------------

*** tstop() called on moses-razer at Sat Jan  6 22:59:50 2024
Module time:
	user time   =      54.56 seconds =       0.91 minutes
	system time =       2.03 seconds =       0.03 minutes
	total time  =         11 seconds =       0.18 minutes
Total time:
	user time   =     168.80 seconds =       2.81 minutes
	system time =       6.63 seconds =       0.11 minutes
	total time  =         33 seconds =       0.55 minutes

*** tstart() called on moses-razer
*** at Sat Jan  6 22:59:50 2024


  //>>>>>>>>>>>>>>>>>>>>>>>>>>>>>>>>>>>//
  //               DFMP2               //
  //<<<<<<<<<<<<<<<<<<<<<<<<<<<<<<<<<<<//

   => Loading Basis Set <=

    Name: (AUG-CC-PVTZ AUX)
    Role: RIFIT
    Keyword: DF_BASIS_MP2
    atoms 1                                   entry CL         line   742 file /home/kchung25/anaconda3/envs/p415env/share/psi4/basis/aug-cc-pvtz-ri.gbs 
    atoms 2, 5, 8, 11, 14, 17                 entry O          line   264 file /home/kchung25/anaconda3/envs/p415env/share/psi4/basis/aug-cc-pvtz-ri.gbs 
    atoms 3-4, 6-7, 9-10, 12-13, 15-16, 18-19 entry H          line    30 file /home/kchung25/anaconda3/envs/p415env/share/psi4/basis/aug-cc-pvtz-ri.gbs 

	 --------------------------------------------------------
	                          DF-MP2                         
	      2nd-Order Density-Fitted Moller-Plesset Theory     
	              RMP2 Wavefunction,   6 Threads             
	                                                         
	        Rob Parrish, Justin Turney, Andy Simmonett,      
	           Ed Hohenstein, and C. David Sherrill          
	 --------------------------------------------------------

   => Auxiliary Basis Set <=

  Basis Set: (AUG-CC-PVTZ AUX)
    Blend: AUG-CC-PVTZ-RI
    Number of shells: 373
    Number of basis functions: 1335
    Number of Cartesian functions: 1667
    Spherical Harmonics?: true
    Max angular momentum: 4

	 --------------------------------------------------------
	                 NBF =   602, NAUX =  1335
	 --------------------------------------------------------
	   CLASS    FOCC     OCC    AOCC    AVIR     VIR    FVIR
	   PAIRS       0       9       9     593     593       0
	 --------------------------------------------------------

	-----------------------------------------------------------
	 ==================> DF-MP2 Energies <==================== 
	-----------------------------------------------------------
	 Reference Energy          =    -459.5735854963282918 [Eh]
	 Singles Energy            =      -0.0000000000000000 [Eh]
	 Same-Spin Energy          =      -0.0636168943859114 [Eh]
	 Opposite-Spin Energy      =      -0.1840145346720761 [Eh]
	 Correlation Energy        =      -0.2476314290579874 [Eh]
	 Total Energy              =    -459.8212169253862953 [Eh]
	-----------------------------------------------------------
	 ================> DF-SCS-MP2 Energies <================== 
	-----------------------------------------------------------
	 SCS Same-Spin Scale       =       0.3333333333333333 [-]
	 SCS Opposite-Spin Scale   =       1.2000000000000000 [-]
	 SCS Same-Spin Energy      =      -0.0212056314619705 [Eh]
	 SCS Opposite-Spin Energy  =      -0.2208174416064913 [Eh]
	 SCS Correlation Energy    =      -0.2420230730684617 [Eh]
	 SCS Total Energy          =    -459.8156085693967725 [Eh]
	-----------------------------------------------------------


*** tstop() called on moses-razer at Sat Jan  6 22:59:55 2024
Module time:
	user time   =      18.86 seconds =       0.31 minutes
	system time =       1.14 seconds =       0.02 minutes
	total time  =          5 seconds =       0.08 minutes
Total time:
	user time   =     187.67 seconds =       3.13 minutes
	system time =       7.77 seconds =       0.13 minutes
	total time  =         38 seconds =       0.63 minutes

    Psi4 stopped on: Saturday, 06 January 2024 10:59PM
    Psi4 wall time for execution: 0:00:15.69


    -----------------------------------------------------------------------
          Psi4: An Open-Source Ab Initio Electronic Structure Package
                               Psi4 1.9 release

                         Git: Rev {} zzzzzzz 


    D. G. A. Smith, L. A. Burns, A. C. Simmonett, R. M. Parrish,
    M. C. Schieber, R. Galvelis, P. Kraus, H. Kruse, R. Di Remigio,
    A. Alenaizan, A. M. James, S. Lehtola, J. P. Misiewicz, M. Scheurer,
    R. A. Shaw, J. B. Schriber, Y. Xie, Z. L. Glick, D. A. Sirianni,
    J. S. O'Brien, J. M. Waldrop, A. Kumar, E. G. Hohenstein,
    B. P. Pritchard, B. R. Brooks, H. F. Schaefer III, A. Yu. Sokolov,
    K. Patkowski, A. E. DePrince III, U. Bozkaya, R. A. King,
    F. A. Evangelista, J. M. Turney, T. D. Crawford, C. D. Sherrill,
    J. Chem. Phys. 152(18) 184108 (2020). https://doi.org/10.1063/5.0006002

                            Additional Code Authors
    E. T. Seidl, C. L. Janssen, E. F. Valeev, M. L. Leininger,
    J. F. Gonthier, R. M. Richard, H. R. McAlexander, M. Saitow, X. Wang,
    P. Verma, M. H. Lechner, A. Jiang, S. Behnle, A. G. Heide,
    M. F. Herbst, and D. L. Poole

             Previous Authors, Complete List of Code Contributors,
                       and Citations for Specific Modules
    https://github.com/psi4/psi4/blob/master/codemeta.json
    https://github.com/psi4/psi4/graphs/contributors
    http://psicode.org/psi4manual/master/introduction.html#citing-psifour

    -----------------------------------------------------------------------


    Psi4 started on: Saturday, 06 January 2024 10:59PM

    Process ID: 559188
    Host:       moses-razer
    PSIDATADIR: /home/kchung25/anaconda3/envs/psi4_19/share/psi4
    Memory:     55.9 GiB
    Threads:    6
    
  ==> Input QCSchema <==

--------------------------------------------------------------------------
{'driver': 'energy',
 'extras': {'psiapi': True, 'wfn_qcvars_only': True},
 'id': None,
 'keywords': {'SCF_TYPE': 'DF', 'function_kwargs': {}},
 'model': {'basis': 'aug-cc-pvtz', 'method': 'mp2'},
 'molecule': {'atom_labels': ['', '', '', '', '', '', '', '', '', '', '', '', '', '', '', '', '', '', ''],
              'atomic_numbers': [17, 8, 1, 1, 8, 1, 1, 8, 1, 1, 8, 1, 1, 8, 1, 1, 8, 1, 1],
              'extras': {},
              'fix_com': True,
              'fix_orientation': True,
              'fix_symmetry': 'c1',
              'fragment_charges': [-1.0, 0.0],
              'fragment_multiplicities': [1, 1],
              'fragments': [[0], [1, 2, 3, 4, 5, 6, 7, 8, 9, 10, 11, 12, 13, 14, 15, 16, 17, 18]],
              'geometry': [0.0, 0.0, 0.0, 5.89799397454842, -0.7636137608578774, -1.6730803635308409, 5.889537450136996,
                           -0.7036603098016023, -3.488141520045705, 4.143638380087763, -0.6244562187052884,
                           -1.1652353645753042, -5.327402509323181, 2.9673500074046566, -1.3870778733473006,
                           -4.934607816337769, 3.3947266884859477, -3.2614972171889205, -3.8064224221781906,
                           2.087625804220274, -0.8200088576199154, 0.6982424649999147, 5.968199189835303,
                           0.5159557034860017, 0.504271526852296, 4.284245342178579, -0.2823402009524032,
                           0.1178867848844357, 5.540032603233571, 2.213394636773994, 2.707474870631696,
                           2.4698644870688797, 5.413927399429519, 2.972410693968632, 0.7986870777463747,
                           5.957276572830157, 2.580379450337904, 2.440237360873952, 3.610637346950132,
                           -3.43339237473894, -5.52874148963396, -0.4642206713493428, -3.389373094372526,
                           -4.091470600668375, 0.6771946954145655, -3.7815706339022945, -6.925623262120136,
                           0.6496405987792648, 1.1084774403971782, 0.5405485992827099, -6.365946854995542,
                           0.7880857141825562, 2.274844750921632, -6.803482703727295, 0.7831270728293549,
                           0.3811596492309694, -4.568085985674595],
              'mass_numbers': [35, 16, 1, 1, 16, 1, 1, 16, 1, 1, 16, 1, 1, 16, 1, 1, 16, 1, 1],
              'masses': [34.968852682, 15.99491461957, 1.00782503223, 1.00782503223, 15.99491461957, 1.00782503223,
                         1.00782503223, 15.99491461957, 1.00782503223, 1.00782503223, 15.99491461957, 1.00782503223,
                         1.00782503223, 15.99491461957, 1.00782503223, 1.00782503223, 15.99491461957, 1.00782503223,
                         1.00782503223],
              'molecular_charge': -1.0,
              'molecular_multiplicity': 1,
              'name': 'dimer',
              'provenance': {'creator': 'QCElemental',
                             'routine': 'qcelemental.molparse.from_string',
                             'version': '0.27.1'},
              'real': [True, True, True, True, True, True, True, True, True, True, True, True, True, True, True, True,
                       True, True, True],
              'schema_name': 'qcschema_molecule',
              'schema_version': 2,
              'symbols': ['Cl', 'O', 'H', 'H', 'O', 'H', 'H', 'O', 'H', 'H', 'O', 'H', 'H', 'O', 'H', 'H', 'O', 'H',
                          'H'],
              'validated': True},
 'protocols': {'stdout': True},
 'provenance': {'creator': 'QCElemental', 'routine': 'qcelemental.models.results', 'version': '0.27.1'},
 'schema_name': 'qcschema_input',
 'schema_version': 1}
--------------------------------------------------------------------------

Scratch directory: /scratch/
   => Libint2 <=

    Primary   basis highest AM E, G, H:  5, 4, 3
    Auxiliary basis highest AM E, G, H:  6, 5, 4
    Onebody   basis highest AM E, G, H:  6, 5, 4
    Solid Harmonics ordering:            gaussian

*** tstart() called on moses-razer
*** at Sat Jan  6 22:59:55 2024

   => Loading Basis Set <=

    Name: AUG-CC-PVTZ
    Role: ORBITAL
    Keyword: BASIS
    atoms 1                                   entry CL         line   988 file /home/kchung25/anaconda3/envs/p415env/share/psi4/basis/aug-cc-pvtz.gbs 
    atoms 2, 5, 8, 11, 14, 17                 entry O          line   331 file /home/kchung25/anaconda3/envs/p415env/share/psi4/basis/aug-cc-pvtz.gbs 
    atoms 3-4, 6-7, 9-10, 12-13, 15-16, 18-19 entry H          line    40 file /home/kchung25/anaconda3/envs/p415env/share/psi4/basis/aug-cc-pvtz.gbs 


         ---------------------------------------------------------
                                   SCF
               by Justin Turney, Rob Parrish, Andy Simmonett
                          and Daniel G. A. Smith
                              RHF Reference
                        6 Threads,  57220 MiB Core
         ---------------------------------------------------------

  ==> Geometry <==

    Molecular point group: c1
    Full point group: C1

    Geometry (in Bohr), charge = -1, multiplicity = 1:

       Center              X                  Y                   Z               Mass       
    ------------   -----------------  -----------------  -----------------  -----------------
         CL           0.000000000000     0.000000000000     0.000000000000    34.968852682000
         O            5.897993974548    -0.763613760858    -1.673080363531    15.994914619570
         H            5.889537450137    -0.703660309802    -3.488141520046     1.007825032230
         H            4.143638380088    -0.624456218705    -1.165235364575     1.007825032230
         O           -5.327402509323     2.967350007405    -1.387077873347    15.994914619570
         H           -4.934607816338     3.394726688486    -3.261497217189     1.007825032230
         H           -3.806422422178     2.087625804220    -0.820008857620     1.007825032230
         O            0.698242465000     5.968199189835     0.515955703486    15.994914619570
         H            0.504271526852     4.284245342179    -0.282340200952     1.007825032230
         H            0.117886784884     5.540032603234     2.213394636774     1.007825032230
         O            2.707474870632     2.469864487069     5.413927399430    15.994914619570
         H            2.972410693969     0.798687077746     5.957276572830     1.007825032230
         H            2.580379450338     2.440237360874     3.610637346950     1.007825032230
         O           -3.433392374739    -5.528741489634    -0.464220671349    15.994914619570
         H           -3.389373094373    -4.091470600668     0.677194695415     1.007825032230
         H           -3.781570633902    -6.925623262120     0.649640598779     1.007825032230
         O            1.108477440397     0.540548599283    -6.365946854996    15.994914619570
         H            0.788085714183     2.274844750922    -6.803482703727     1.007825032230
         H            0.783127072829     0.381159649231    -4.568085985675     1.007825032230

  Running in c1 symmetry.

  Rotational constants: A =      0.02397  B =      0.02029  C =      0.01953 [cm^-1]
  Rotational constants: A =    718.53717  B =    608.25812  C =    585.51659 [MHz]
  Nuclear repulsion =  389.169093896423249

  Charge       = -1
  Multiplicity = 1
  Electrons    = 78
  Nalpha       = 39
  Nbeta        = 39

  ==> Algorithm <==

  SCF Algorithm Type is DF.
  DIIS enabled.
  MOM disabled.
  Fractional occupation disabled.
  Guess Type is SAD.
  Energy threshold   = 1.00e-08
  Density threshold  = 1.00e-08
  Integral threshold = 1.00e-12

  ==> Primary Basis <==

  Basis Set: AUG-CC-PVTZ
    Blend: AUG-CC-PVTZ
    Number of shells: 208
    Number of basis functions: 602
    Number of Cartesian functions: 689
    Spherical Harmonics?: true
    Max angular momentum: 3

   => Loading Basis Set <=

    Name: (AUG-CC-PVTZ AUX)
    Role: JKFIT
    Keyword: DF_BASIS_SCF
    atoms 1                                   entry CL         line   816 file /home/kchung25/anaconda3/envs/p415env/share/psi4/basis/aug-cc-pvtz-jkfit.gbs 
    atoms 2, 5, 8, 11, 14, 17                 entry O          line   286 file /home/kchung25/anaconda3/envs/p415env/share/psi4/basis/aug-cc-pvtz-jkfit.gbs 
    atoms 3-4, 6-7, 9-10, 12-13, 15-16, 18-19 entry H          line    70 file /home/kchung25/anaconda3/envs/p415env/share/psi4/basis/aug-cc-pvtz-jkfit.gbs 

  ==> Integral Setup <==

  DFHelper Memory: AOs need 3.094 GiB; user supplied 41.910 GiB. 
  Using in-core AOs.

  ==> MemDFJK: Density-Fitted J/K Matrices <==

    J tasked:                   Yes
    K tasked:                   Yes
    wK tasked:                   No
    OpenMP threads:               6
    Memory [MiB]:             42915
    Algorithm:                 Core
    Schwarz Cutoff:           1E-12
    Mask sparsity (%):      16.1853
    Fitting Condition:        1E-10

   => Auxiliary Basis Set <=

  Basis Set: (AUG-CC-PVTZ AUX)
    Blend: AUG-CC-PVTZ-JKFIT
    Number of shells: 390
    Number of basis functions: 1322
    Number of Cartesian functions: 1626
    Spherical Harmonics?: true
    Max angular momentum: 4

  Minimum eigenvalue in the overlap matrix is 1.2479712406E-04.
  Reciprocal condition number of the overlap matrix is 9.4563691564E-06.
    Using symmetric orthogonalization.

  ==> Pre-Iterations <==

  SCF Guess: Superposition of Atomic Densities via on-the-fly atomic UHF (no occupation information).

   -------------------------
    Irrep   Nso     Nmo    
   -------------------------
     A        602     602 
   -------------------------
    Total     602     602
   -------------------------

  ==> Iterations <==

                           Total Energy        Delta E     RMS |[F,P]|

   @DF-RHF iter SAD:  -912.27531304650779   -9.12275e+02   0.00000e+00 
   @DF-RHF iter   1:  -915.47987169165094   -3.20456e+00   1.91909e-03 DIIS/ADIIS
   @DF-RHF iter   2:  -915.79974313846185   -3.19871e-01   1.30649e-03 DIIS/ADIIS
   @DF-RHF iter   3:  -915.99076726356191   -1.91024e-01   9.45173e-05 DIIS
   @DF-RHF iter   4:  -915.99334656296026   -2.57930e-03   3.22020e-05 DIIS
   @DF-RHF iter   5:  -915.99358421281363   -2.37650e-04   8.76427e-06 DIIS
   @DF-RHF iter   6:  -915.99360869938755   -2.44866e-05   3.24605e-06 DIIS
   @DF-RHF iter   7:  -915.99361169940551   -3.00002e-06   1.03512e-06 DIIS
   @DF-RHF iter   8:  -915.99361209457311   -3.95168e-07   2.58953e-07 DIIS
   @DF-RHF iter   9:  -915.99361212537087   -3.07978e-08   5.49433e-08 DIIS
   @DF-RHF iter  10:  -915.99361212647648   -1.10560e-09   2.41012e-08 DIIS
   @DF-RHF iter  11:  -915.99361212659107   -1.14596e-10   5.68851e-09 DIIS
  Energy and wave function converged.


  ==> Post-Iterations <==

    Orbital Energies [Eh]
    ---------------------

    Doubly Occupied:                                                      

       1A   -104.605307     2A    -20.447876     3A    -20.439682  
       4A    -20.432663     5A    -20.432524     6A    -20.420505  
       7A    -20.417033     8A    -10.330618     9A     -7.796717  
      10A     -7.796710    11A     -7.796640    12A     -1.228157  
      13A     -1.226391    14A     -1.222130    15A     -1.201414  
      16A     -1.196252    17A     -1.190151    18A     -0.850164  
      19A     -0.600563    20A     -0.592184    21A     -0.587669  
      22A     -0.570146    23A     -0.551377    24A     -0.545662  
      25A     -0.465140    26A     -0.457326    27A     -0.455004  
      28A     -0.449875    29A     -0.441622    30A     -0.438858  
      31A     -0.388961    32A     -0.384027    33A     -0.381831  
      34A     -0.369883    35A     -0.363000    36A     -0.359676  
      37A     -0.262401    38A     -0.260702    39A     -0.257610  

    Virtual:                                                              

      40A      0.108676    41A      0.116655    42A      0.125170  
      43A      0.132880    44A      0.143564    45A      0.150140  
      46A      0.155965    47A      0.168490    48A      0.178631  
      49A      0.179944    50A      0.181990    51A      0.187900  
      52A      0.233247    53A      0.240660    54A      0.247222  
      55A      0.253892    56A      0.260218    57A      0.265844  
      58A      0.274889    59A      0.281128    60A      0.285000  
      61A      0.291727    62A      0.293727    63A      0.294399  
      64A      0.297532    65A      0.300075    66A      0.306627  
      67A      0.311454    68A      0.317651    69A      0.324547  
      70A      0.332888    71A      0.335580    72A      0.340787  
      73A      0.346862    74A      0.351487    75A      0.355905  
      76A      0.359636    77A      0.362027    78A      0.369876  
      79A      0.377991    80A      0.384841    81A      0.388429  
      82A      0.398839    83A      0.410259    84A      0.413898  
      85A      0.423119    86A      0.427567    87A      0.430585  
      88A      0.439650    89A      0.451700    90A      0.456703  
      91A      0.460794    92A      0.463920    93A      0.470085  
      94A      0.475774    95A      0.482516    96A      0.491815  
      97A      0.497937    98A      0.500475    99A      0.504165  
     100A      0.514669   101A      0.520411   102A      0.525442  
     103A      0.530945   104A      0.536902   105A      0.549772  
     106A      0.551338   107A      0.559479   108A      0.563540  
     109A      0.569590   110A      0.572661   111A      0.580289  
     112A      0.594589   113A      0.602215   114A      0.605519  
     115A      0.613942   116A      0.618175   117A      0.621027  
     118A      0.636170   119A      0.641792   120A      0.653771  
     121A      0.671845   122A      0.686146   123A      0.688175  
     124A      0.699098   125A      0.710731   126A      0.716961  
     127A      0.721205   128A      0.729045   129A      0.735371  
     130A      0.758336   131A      0.764415   132A      0.779274  
     133A      0.781076   134A      0.802619   135A      0.807100  
     136A      0.815903   137A      0.821122   138A      0.827806  
     139A      0.836871   140A      0.841957   141A      0.849377  
     142A      0.851574   143A      0.855890   144A      0.861713  
     145A      0.867074   146A      0.871953   147A      0.873264  
     148A      0.886930   149A      0.890012   150A      0.897513  
     151A      0.901179   152A      0.911351   153A      0.913200  
     154A      0.914507   155A      0.921697   156A      0.930186  
     157A      0.932391   158A      0.951830   159A      0.955961  
     160A      0.960584   161A      0.966582   162A      0.975027  
     163A      0.978068   164A      0.988704   165A      1.005997  
     166A      1.013397   167A      1.014454   168A      1.020573  
     169A      1.025313   170A      1.030771   171A      1.033725  
     172A      1.041123   173A      1.049078   174A      1.049389  
     175A      1.059021   176A      1.067065   177A      1.070010  
     178A      1.073312   179A      1.079872   180A      1.085712  
     181A      1.089076   182A      1.097729   183A      1.100253  
     184A      1.106814   185A      1.110884   186A      1.114806  
     187A      1.125236   188A      1.126583   189A      1.134321  
     190A      1.138515   191A      1.141291   192A      1.146050  
     193A      1.157809   194A      1.162536   195A      1.168830  
     196A      1.177156   197A      1.177604   198A      1.184045  
     199A      1.190520   200A      1.193678   201A      1.203512  
     202A      1.207315   203A      1.209946   204A      1.223829  
     205A      1.231164   206A      1.233481   207A      1.233960  
     208A      1.244891   209A      1.246396   210A      1.251381  
     211A      1.261713   212A      1.269557   213A      1.275687  
     214A      1.280178   215A      1.289422   216A      1.296268  
     217A      1.308114   218A      1.316744   219A      1.320244  
     220A      1.328094   221A      1.340500   222A      1.342397  
     223A      1.351115   224A      1.358017   225A      1.367651  
     226A      1.386364   227A      1.386998   228A      1.392843  
     229A      1.404401   230A      1.408127   231A      1.425032  
     232A      1.431490   233A      1.434986   234A      1.446695  
     235A      1.453089   236A      1.458659   237A      1.468507  
     238A      1.484679   239A      1.490382   240A      1.500212  
     241A      1.509860   242A      1.517398   243A      1.525738  
     244A      1.531490   245A      1.543899   246A      1.557559  
     247A      1.564601   248A      1.583096   249A      1.595240  
     250A      1.609515   251A      1.623234   252A      1.624104  
     253A      1.644189   254A      1.648197   255A      1.663396  
     256A      1.669193   257A      1.672407   258A      1.696618  
     259A      1.700489   260A      1.721153   261A      1.728255  
     262A      1.732079   263A      1.739571   264A      1.747602  
     265A      1.749306   266A      1.763358   267A      1.773276  
     268A      1.784432   269A      1.791730   270A      1.794695  
     271A      1.810587   272A      1.826592   273A      1.832964  
     274A      1.857090   275A      1.866451   276A      1.875745  
     277A      1.887106   278A      1.909978   279A      1.912823  
     280A      1.923097   281A      1.938230   282A      1.946666  
     283A      1.967022   284A      1.987646   285A      1.996417  
     286A      2.027867   287A      2.046500   288A      2.050977  
     289A      2.056726   290A      2.063485   291A      2.075404  
     292A      2.091881   293A      2.109541   294A      2.122802  
     295A      2.131422   296A      2.143214   297A      2.169661  
     298A      2.184255   299A      2.206772   300A      2.213666  
     301A      2.241318   302A      2.270792   303A      2.294939  
     304A      2.305787   305A      2.324467   306A      2.403332  
     307A      2.434257   308A      2.453621   309A      2.457122  
     310A      2.462767   311A      2.474302   312A      2.485578  
     313A      2.498261   314A      2.515362   315A      2.523354  
     316A      2.526800   317A      2.540921   318A      2.550084  
     319A      2.556301   320A      2.561919   321A      2.565945  
     322A      2.577523   323A      2.587200   324A      2.597440  
     325A      2.602403   326A      2.610211   327A      2.613309  
     328A      2.616911   329A      2.624690   330A      2.630734  
     331A      2.643259   332A      2.648777   333A      2.655894  
     334A      2.661418   335A      2.665146   336A      2.672474  
     337A      2.682011   338A      2.696032   339A      2.713405  
     340A      2.719255   341A      2.734713   342A      2.742553  
     343A      2.752713   344A      2.759888   345A      2.783918  
     346A      2.798033   347A      2.800728   348A      2.811425  
     349A      2.822117   350A      2.824498   351A      2.845813  
     352A      2.865431   353A      2.873492   354A      2.876330  
     355A      2.894188   356A      2.900496   357A      2.913369  
     358A      2.919518   359A      2.928419   360A      2.941865  
     361A      2.947785   362A      2.949930   363A      2.969756  
     364A      2.974492   365A      2.983344   366A      2.989901  
     367A      3.002913   368A      3.007024   369A      3.016484  
     370A      3.040689   371A      3.059553   372A      3.067085  
     373A      3.074653   374A      3.078076   375A      3.089539  
     376A      3.116429   377A      3.142157   378A      3.177387  
     379A      3.181068   380A      3.188712   381A      3.194542  
     382A      3.214147   383A      3.222176   384A      3.237444  
     385A      3.263884   386A      3.313486   387A      3.392910  
     388A      3.482746   389A      3.532522   390A      3.581215  
     391A      3.624131   392A      3.633684   393A      3.656930  
     394A      3.681766   395A      3.762056   396A      3.794696  
     397A      3.809450   398A      3.837828   399A      3.849327  
     400A      3.907703   401A      3.932584   402A      3.942966  
     403A      3.949865   404A      3.962164   405A      4.042509  
     406A      4.111128   407A      4.124493   408A      4.147837  
     409A      4.172486   410A      4.186574   411A      4.195098  
     412A      4.215747   413A      4.226013   414A      4.240971  
     415A      4.282485   416A      4.307776   417A      4.322385  
     418A      4.344996   419A      4.352838   420A      4.374500  
     421A      4.385845   422A      4.390540   423A      4.393898  
     424A      4.404725   425A      4.408666   426A      4.415645  
     427A      4.426143   428A      4.434909   429A      4.450503  
     430A      4.459943   431A      4.463557   432A      4.468976  
     433A      4.474062   434A      4.483985   435A      4.497547  
     436A      4.503442   437A      4.516036   438A      4.522884  
     439A      4.525444   440A      4.535287   441A      4.538719  
     442A      4.546336   443A      4.561007   444A      4.566879  
     445A      4.579339   446A      4.588939   447A      4.596980  
     448A      4.606665   449A      4.622023   450A      4.624374  
     451A      4.626041   452A      4.640104   453A      4.652563  
     454A      4.655047   455A      4.680308   456A      4.691704  
     457A      4.699015   458A      4.717588   459A      4.730185  
     460A      4.741453   461A      4.773572   462A      4.830804  
     463A      4.838714   464A      4.860410   465A      4.893936  
     466A      4.924816   467A      4.945720   468A      4.971610  
     469A      4.988279   470A      5.016244   471A      5.024594  
     472A      5.061940   473A      5.110930   474A      5.122986  
     475A      5.146387   476A      5.181748   477A      5.219392  
     478A      5.258979   479A      5.294909   480A      5.298573  
     481A      5.303126   482A      5.309380   483A      5.318399  
     484A      5.337769   485A      5.341602   486A      5.353239  
     487A      5.381655   488A      5.396910   489A      5.427270  
     490A      5.446752   491A      5.464259   492A      5.471634  
     493A      5.481785   494A      5.493566   495A      5.502000  
     496A      5.515200   497A      5.528418   498A      5.574349  
     499A      5.577034   500A      5.590870   501A      5.634551  
     502A      5.654002   503A      5.673737   504A      5.674641  
     505A      5.701095   506A      5.782970   507A      5.789784  
     508A      5.815373   509A      5.904346   510A      5.926831  
     511A      5.939913   512A      6.345012   513A      6.351667  
     514A      6.358620   515A      6.365469   516A      6.391045  
     517A      6.525685   518A      6.667109   519A      6.691690  
     520A      6.704431   521A      6.713169   522A      6.718100  
     523A      6.724132   524A      6.885126   525A      6.910491  
     526A      6.922851   527A      6.939583   528A      6.971131  
     529A      6.978802   530A      7.046302   531A      7.049172  
     532A      7.052882   533A      7.086115   534A      7.095269  
     535A      7.170762   536A      7.201705   537A      7.257922  
     538A      7.289532   539A      7.303078   540A      7.309690  
     541A      7.331403   542A      7.386759   543A      7.397768  
     544A      7.405171   545A      7.409670   546A      7.413916  
     547A      7.427018   548A      7.443920   549A      7.445993  
     550A      7.450618   551A      7.462026   552A      7.470844  
     553A      7.473971   554A      7.480124   555A      7.487411  
     556A      7.493743   557A      7.495092   558A      7.503438  
     559A      7.515735   560A      7.523236   561A      7.527686  
     562A      7.529074   563A      7.539638   564A      7.552318  
     565A      7.580149   566A      7.603441   567A      7.607605  
     568A      7.617754   569A      7.620058   570A      7.650527  
     571A      7.656449   572A      7.677317   573A      7.723050  
     574A      7.802204   575A      7.850755   576A      7.874422  
     577A      7.934337   578A      7.962790   579A      8.016353  
     580A      8.051765   581A      8.059725   582A      8.073547  
     583A      8.080677   584A      8.103309   585A      8.120071  
     586A      8.127586   587A      8.141632   588A      8.157128  
     589A      8.191643   590A      8.223363   591A      8.715633  
     592A      8.920780   593A      8.930525   594A      8.945185  
     595A      8.969003   596A      9.017466   597A     15.707840  
     598A     15.848831   599A     16.057289   600A     16.686989  
     601A     16.740574   602A     16.765533  

    Final Occupation by Irrep:
              A 
    DOCC [    39 ]
    NA   [    39 ]
    NB   [    39 ]

  @DF-RHF Final Energy:  -915.99361212659107

   => Energetics <=

    Nuclear Repulsion Energy =            389.1690938964232487
    One-Electron Energy =               -2053.8965025824763870
    Two-Electron Energy =                 748.7337965594621210
    Total Energy =                       -915.9936121265910742

Computation Completed


Properties will be evaluated at   0.000000,   0.000000,   0.000000 [a0]

Properties computed using the SCF density matrix


 Multipole Moments:

 ------------------------------------------------------------------------------------
     Multipole            Electronic (a.u.)      Nuclear  (a.u.)        Total (a.u.)
 ------------------------------------------------------------------------------------

 L = 1.  Multiply by 2.5417464519 to convert [e a0] to [Debye]
 Dipole X            :        -15.7183383           15.0785140           -0.6398242
 Dipole Y            :        -55.4148424           54.0852052           -1.3296373
 Dipole Z            :         39.4544496          -38.9641893            0.4902603
 Magnitude           :                                                    1.5548844

 ------------------------------------------------------------------------------------

*** tstop() called on moses-razer at Sat Jan  6 23:00:11 2024
Module time:
	user time   =      86.20 seconds =       1.44 minutes
	system time =       3.00 seconds =       0.05 minutes
	total time  =         16 seconds =       0.27 minutes
Total time:
	user time   =     274.25 seconds =       4.57 minutes
	system time =      10.78 seconds =       0.18 minutes
	total time  =         54 seconds =       0.90 minutes

*** tstart() called on moses-razer
*** at Sat Jan  6 23:00:11 2024


  //>>>>>>>>>>>>>>>>>>>>>>>>>>>>>>>>>>>//
  //               DFMP2               //
  //<<<<<<<<<<<<<<<<<<<<<<<<<<<<<<<<<<<//

   => Loading Basis Set <=

    Name: (AUG-CC-PVTZ AUX)
    Role: RIFIT
    Keyword: DF_BASIS_MP2
    atoms 1                                   entry CL         line   742 file /home/kchung25/anaconda3/envs/p415env/share/psi4/basis/aug-cc-pvtz-ri.gbs 
    atoms 2, 5, 8, 11, 14, 17                 entry O          line   264 file /home/kchung25/anaconda3/envs/p415env/share/psi4/basis/aug-cc-pvtz-ri.gbs 
    atoms 3-4, 6-7, 9-10, 12-13, 15-16, 18-19 entry H          line    30 file /home/kchung25/anaconda3/envs/p415env/share/psi4/basis/aug-cc-pvtz-ri.gbs 

	 --------------------------------------------------------
	                          DF-MP2                         
	      2nd-Order Density-Fitted Moller-Plesset Theory     
	              RMP2 Wavefunction,   6 Threads             
	                                                         
	        Rob Parrish, Justin Turney, Andy Simmonett,      
	           Ed Hohenstein, and C. David Sherrill          
	 --------------------------------------------------------

   => Auxiliary Basis Set <=

  Basis Set: (AUG-CC-PVTZ AUX)
    Blend: AUG-CC-PVTZ-RI
    Number of shells: 373
    Number of basis functions: 1335
    Number of Cartesian functions: 1667
    Spherical Harmonics?: true
    Max angular momentum: 4

	 --------------------------------------------------------
	                 NBF =   602, NAUX =  1335
	 --------------------------------------------------------
	   CLASS    FOCC     OCC    AOCC    AVIR     VIR    FVIR
	   PAIRS       0      39      39     563     563       0
	 --------------------------------------------------------

	-----------------------------------------------------------
	 ==================> DF-MP2 Energies <==================== 
	-----------------------------------------------------------
	 Reference Energy          =    -915.9936121265910742 [Eh]
	 Singles Energy            =      -0.0000000000000000 [Eh]
	 Same-Spin Energy          =      -0.4866862227533148 [Eh]
	 Opposite-Spin Energy      =      -1.4923553777754925 [Eh]
	 Correlation Energy        =      -1.9790416005288074 [Eh]
	 Total Energy              =    -917.9726537271199049 [Eh]
	-----------------------------------------------------------
	 ================> DF-SCS-MP2 Energies <================== 
	-----------------------------------------------------------
	 SCS Same-Spin Scale       =       0.3333333333333333 [-]
	 SCS Opposite-Spin Scale   =       1.2000000000000000 [-]
	 SCS Same-Spin Energy      =      -0.1622287409177716 [Eh]
	 SCS Opposite-Spin Energy  =      -1.7908264533305911 [Eh]
	 SCS Correlation Energy    =      -1.9530551942483627 [Eh]
	 SCS Total Energy          =    -917.9466673208394241 [Eh]
	-----------------------------------------------------------


*** tstop() called on moses-razer at Sat Jan  6 23:00:21 2024
Module time:
	user time   =      43.72 seconds =       0.73 minutes
	system time =       1.87 seconds =       0.03 minutes
	total time  =         10 seconds =       0.17 minutes
Total time:
	user time   =     317.97 seconds =       5.30 minutes
	system time =      12.65 seconds =       0.21 minutes
	total time  =         64 seconds =       1.07 minutes

    Psi4 stopped on: Saturday, 06 January 2024 11:00PM
    Psi4 wall time for execution: 0:00:25.56


  //>>>>>>>>>>>>>>>>>>>>>>>>>>>>>>>>>>>//
  //          ManyBody Results         //
  //<<<<<<<<<<<<<<<<<<<<<<<<<<<<<<<<<<<//


   ==> N-Body: Counterpoise Corrected (CP) energies <==

        n-Body     Total Energy            Interaction Energy                          N-body Contribution to Interaction Energy
                   [Eh]                    [Eh]                  [kcal/mol]            [Eh]                  [kcal/mol]
             1  N/A                         0.000000000000        0.000000000000        0.000000000000        0.000000000000
  FULL/RTN   2  N/A                        -0.095914762217      -60.187421966309       -0.095914762217      -60.187421966309


    Psi4 stopped on: Saturday, 06 January 2024 11:00PM
    Psi4 wall time for execution: 0:01:05.74

*** Psi4 exiting successfully. Buy a developer a beer!
