
    -----------------------------------------------------------------------
          Psi4: An Open-Source Ab Initio Electronic Structure Package
                               Psi4 1.8.2 release

                         Git: Rev {} zzzzzzz 


    D. G. A. Smith, L. A. Burns, A. C. Simmonett, R. M. Parrish,
    M. C. Schieber, R. Galvelis, P. Kraus, H. Kruse, R. Di Remigio,
    A. Alenaizan, A. M. James, S. Lehtola, J. P. Misiewicz, M. Scheurer,
    R. A. Shaw, J. B. Schriber, Y. Xie, Z. L. Glick, D. A. Sirianni,
    J. S. O'Brien, J. M. Waldrop, A. Kumar, E. G. Hohenstein,
    B. P. Pritchard, B. R. Brooks, H. F. Schaefer III, A. Yu. Sokolov,
    K. Patkowski, A. E. DePrince III, U. Bozkaya, R. A. King,
    F. A. Evangelista, J. M. Turney, T. D. Crawford, C. D. Sherrill,
    J. Chem. Phys. 152(18) 184108 (2020). https://doi.org/10.1063/5.0006002

                            Additional Code Authors
    E. T. Seidl, C. L. Janssen, E. F. Valeev, M. L. Leininger,
    J. F. Gonthier, R. M. Richard, H. R. McAlexander, M. Saitow, X. Wang,
    P. Verma, M. H. Lechner, A. Jiang, S. Behnle, A. G. Heide,
    M. F. Herbst, and D. L. Poole

             Previous Authors, Complete List of Code Contributors,
                       and Citations for Specific Modules
    https://github.com/psi4/psi4/blob/master/codemeta.json
    https://github.com/psi4/psi4/graphs/contributors
    http://psicode.org/psi4manual/master/introduction.html#citing-psifour

    -----------------------------------------------------------------------


    Psi4 started on: Monday, 22 January 2024 09:20PM

    Process ID: 108884
    Host:       ddmfs1
    PSIDATADIR: /ddmfs1b/softs/psi4conda/share/psi4
    Memory:     500.0 MiB
    Threads:    20
    
  ==> Input File <==

--------------------------------------------------------------------------
MEMORY 60 GB

molecule dimer {
0 1
Gh(Cl)     0.000000     0.000000     0.000000
O         -0.173399    -2.130297    -2.421957
H         -0.233698    -1.609613    -1.627445
H          0.741541    -2.269770    -2.594685
Gh(O)     -1.028624     2.347533    -2.150277
Gh(H)     -1.885952     2.313957    -2.529985
Gh(H)     -0.906437     1.866831    -1.296814
Gh(O)      2.078078     0.785667     2.064740
Gh(H)      2.174484    -0.068130     2.543642
Gh(H)      1.384144     0.706821     1.444220
Gh(O)      1.955819    -2.555345     0.911533
Gh(H)      1.829860    -2.942121     1.778607
Gh(H)      1.125160    -2.719941     0.440877
Gh(O)     -1.696135    -2.267627     1.075756
Gh(H)     -1.700190    -2.290389     2.057532
Gh(H)     -1.174776    -1.505571     0.797835
Gh(O)     -3.020585     0.879792     1.057446
Gh(H)     -3.488907     0.101516     1.445361
Gh(H)     -2.091292     0.587939     0.905517

units ang
no_reorient
no_com
symmetry c1
}

set {
basis        aug-cc-pVTZ
scf_type     df
}

energy("mp2")
--------------------------------------------------------------------------

  Memory set to  55.879 GiB by Python driver.

Scratch directory: /ddmfs1a/scratch/
   => Libint2 <=

    Primary   basis highest AM E, G, H:  5, 4, 3
    Auxiliary basis highest AM E, G, H:  6, 5, 4
    Onebody   basis highest AM E, G, H:  6, 5, 4
    Solid Harmonics ordering:            gaussian

*** tstart() called on ddmfs1
*** at Mon Jan 22 21:20:17 2024

   => Loading Basis Set <=

    Name: AUG-CC-PVTZ
    Role: ORBITAL
    Keyword: BASIS
    atoms 1                                   entry CL         line   988 file /ddmfs1b/softs/psi4conda/share/psi4/basis/aug-cc-pvtz.gbs 
    atoms 2, 5, 8, 11, 14, 17                 entry O          line   331 file /ddmfs1b/softs/psi4conda/share/psi4/basis/aug-cc-pvtz.gbs 
    atoms 3-4, 6-7, 9-10, 12-13, 15-16, 18-19 entry H          line    40 file /ddmfs1b/softs/psi4conda/share/psi4/basis/aug-cc-pvtz.gbs 


         ---------------------------------------------------------
                                   SCF
               by Justin Turney, Rob Parrish, Andy Simmonett
                          and Daniel G. A. Smith
                              RHF Reference
                       20 Threads,  57220 MiB Core
         ---------------------------------------------------------

  ==> Geometry <==

    Molecular point group: c1
    Full point group: C1

    Geometry (in Angstrom), charge = 0, multiplicity = 1:

       Center              X                  Y                   Z               Mass       
    ------------   -----------------  -----------------  -----------------  -----------------
      Gh(CL)          0.000000000000     0.000000000000     0.000000000000    34.968852682000
         O           -0.173399000000    -2.130297000000    -2.421957000000    15.994914619570
         H           -0.233698000000    -1.609613000000    -1.627445000000     1.007825032230
         H            0.741541000000    -2.269770000000    -2.594685000000     1.007825032230
      Gh(O)          -1.028624000000     2.347533000000    -2.150277000000    15.994914619570
      Gh(H)          -1.885952000000     2.313957000000    -2.529985000000     1.007825032230
      Gh(H)          -0.906437000000     1.866831000000    -1.296814000000     1.007825032230
      Gh(O)           2.078078000000     0.785667000000     2.064740000000    15.994914619570
      Gh(H)           2.174484000000    -0.068130000000     2.543642000000     1.007825032230
      Gh(H)           1.384144000000     0.706821000000     1.444220000000     1.007825032230
      Gh(O)           1.955819000000    -2.555345000000     0.911533000000    15.994914619570
      Gh(H)           1.829860000000    -2.942121000000     1.778607000000     1.007825032230
      Gh(H)           1.125160000000    -2.719941000000     0.440877000000     1.007825032230
      Gh(O)          -1.696135000000    -2.267627000000     1.075756000000    15.994914619570
      Gh(H)          -1.700190000000    -2.290389000000     2.057532000000     1.007825032230
      Gh(H)          -1.174776000000    -1.505571000000     0.797835000000     1.007825032230
      Gh(O)          -3.020585000000     0.879792000000     1.057446000000    15.994914619570
      Gh(H)          -3.488907000000     0.101516000000     1.445361000000     1.007825032230
      Gh(H)          -2.091292000000     0.587939000000     0.905517000000     1.007825032230

  Running in c1 symmetry.

  Rotational constants: A =      0.02782  B =      0.02146  C =      0.02030 [cm^-1]
  Rotational constants: A =    833.90027  B =    643.22064  C =    608.59673 [MHz]
  Nuclear repulsion =    9.291368581004956

  Charge       = 0
  Multiplicity = 1
  Electrons    = 10
  Nalpha       = 5
  Nbeta        = 5

  ==> Algorithm <==

  SCF Algorithm Type is DF.
  DIIS enabled.
  MOM disabled.
  Fractional occupation disabled.
  Guess Type is SAD.
  Energy threshold   = 1.00e-08
  Density threshold  = 1.00e-08
  Integral threshold = 1.00e-12

  ==> Primary Basis <==

  Basis Set: AUG-CC-PVTZ
    Blend: AUG-CC-PVTZ
    Number of shells: 208
    Number of basis functions: 602
    Number of Cartesian functions: 689
    Spherical Harmonics?: true
    Max angular momentum: 3

   => Loading Basis Set <=

    Name: (AUG-CC-PVTZ AUX)
    Role: JKFIT
    Keyword: DF_BASIS_SCF
    atoms 1                                   entry CL         line   816 file /ddmfs1b/softs/psi4conda/share/psi4/basis/aug-cc-pvtz-jkfit.gbs 
    atoms 2, 5, 8, 11, 14, 17                 entry O          line   286 file /ddmfs1b/softs/psi4conda/share/psi4/basis/aug-cc-pvtz-jkfit.gbs 
    atoms 3-4, 6-7, 9-10, 12-13, 15-16, 18-19 entry H          line    70 file /ddmfs1b/softs/psi4conda/share/psi4/basis/aug-cc-pvtz-jkfit.gbs 

  ==> Integral Setup <==

  DFHelper Memory: AOs need 3.194 GiB; user supplied 41.910 GiB. 
  Using in-core AOs.

  ==> MemDFJK: Density-Fitted J/K Matrices <==

    J tasked:                   Yes
    K tasked:                   Yes
    wK tasked:                   No
    OpenMP threads:              20
    Memory [MiB]:             42915
    Algorithm:                 Core
    Schwarz Cutoff:           1E-12
    Mask sparsity (%):      14.4491
    Fitting Condition:        1E-10

   => Auxiliary Basis Set <=

  Basis Set: (AUG-CC-PVTZ AUX)
    Blend: AUG-CC-PVTZ-JKFIT
    Number of shells: 390
    Number of basis functions: 1322
    Number of Cartesian functions: 1626
    Spherical Harmonics?: true
    Max angular momentum: 4

  Minimum eigenvalue in the overlap matrix is 1.2259105624E-04.
  Reciprocal condition number of the overlap matrix is 8.9467656861E-06.
    Using symmetric orthogonalization.

  ==> Pre-Iterations <==

  SCF Guess: Superposition of Atomic Densities via on-the-fly atomic UHF (no occupation information).

   -------------------------
    Irrep   Nso     Nmo    
   -------------------------
     A        602     602 
   -------------------------
    Total     602     602
   -------------------------

  ==> Iterations <==

                           Total Energy        Delta E     RMS |[F,P]|

   @DF-RHF iter SAD:   -75.48733489906448   -7.54873e+01   0.00000e+00 
   @DF-RHF iter   1:   -75.97750902309900   -4.90174e-01   7.80635e-04 ADIIS/DIIS
   @DF-RHF iter   2:   -76.03037620396515   -5.28672e-02   5.23232e-04 ADIIS/DIIS
   @DF-RHF iter   3:   -76.06072686642491   -3.03507e-02   3.54931e-05 DIIS
   @DF-RHF iter   4:   -76.06110206686685   -3.75200e-04   8.25293e-06 DIIS
   @DF-RHF iter   5:   -76.06112384502747   -2.17782e-05   1.83863e-06 DIIS
   @DF-RHF iter   6:   -76.06112558397929   -1.73895e-06   4.06097e-07 DIIS
   @DF-RHF iter   7:   -76.06112567892724   -9.49479e-08   7.69880e-08 DIIS
   @DF-RHF iter   8:   -76.06112568197808   -3.05084e-09   1.26430e-08 DIIS
   @DF-RHF iter   9:   -76.06112568204199   -6.39062e-11   3.06640e-09 DIIS
  Energy and wave function converged.


  ==> Post-Iterations <==

    Orbital Energies [Eh]
    ---------------------

    Doubly Occupied:                                                      

       1A    -20.564039     2A     -1.357148     3A     -0.728885  
       4A     -0.581614     5A     -0.510458  

    Virtual:                                                              

       6A      0.014331     7A      0.031286     8A      0.033667  
       9A      0.037889    10A      0.049580    11A      0.055815  
      12A      0.060687    13A      0.062351    14A      0.066430  
      15A      0.075687    16A      0.086360    17A      0.091422  
      18A      0.095907    19A      0.114640    20A      0.119399  
      21A      0.124415    22A      0.130592    23A      0.136337  
      24A      0.139549    25A      0.144180    26A      0.155983  
      27A      0.158166    28A      0.162278    29A      0.166094  
      30A      0.172842    31A      0.180430    32A      0.182688  
      33A      0.189149    34A      0.194920    35A      0.198157  
      36A      0.207203    37A      0.209675    38A      0.214756  
      39A      0.216131    40A      0.222603    41A      0.222955  
      42A      0.231896    43A      0.243832    44A      0.249356  
      45A      0.265178    46A      0.275468    47A      0.280662  
      48A      0.286816    49A      0.291611    50A      0.294179  
      51A      0.306487    52A      0.310877    53A      0.316812  
      54A      0.322771    55A      0.330366    56A      0.333468  
      57A      0.335942    58A      0.339527    59A      0.347612  
      60A      0.350013    61A      0.356507    62A      0.357270  
      63A      0.371564    64A      0.374772    65A      0.376971  
      66A      0.380439    67A      0.391498    68A      0.393673  
      69A      0.402950    70A      0.405383    71A      0.410339  
      72A      0.412782    73A      0.418414    74A      0.420034  
      75A      0.428233    76A      0.434365    77A      0.440775  
      78A      0.443657    79A      0.456052    80A      0.459307  
      81A      0.463344    82A      0.476872    83A      0.479644  
      84A      0.492150    85A      0.498443    86A      0.512139  
      87A      0.521278    88A      0.530130    89A      0.537388  
      90A      0.559200    91A      0.562662    92A      0.579967  
      93A      0.591316    94A      0.598164    95A      0.624269  
      96A      0.630247    97A      0.634506    98A      0.654545  
      99A      0.665858   100A      0.672619   101A      0.682633  
     102A      0.699984   103A      0.710822   104A      0.714426  
     105A      0.726018   106A      0.727828   107A      0.740883  
     108A      0.743719   109A      0.751887   110A      0.752067  
     111A      0.767613   112A      0.770039   113A      0.774209  
     114A      0.777573   115A      0.783355   116A      0.786316  
     117A      0.793702   118A      0.798887   119A      0.805974  
     120A      0.809376   121A      0.814994   122A      0.818517  
     123A      0.827934   124A      0.832886   125A      0.836160  
     126A      0.838497   127A      0.844140   128A      0.849559  
     129A      0.854660   130A      0.861334   131A      0.869355  
     132A      0.873705   133A      0.878246   134A      0.882793  
     135A      0.887335   136A      0.895108   137A      0.904149  
     138A      0.908859   139A      0.911540   140A      0.920395  
     141A      0.924743   142A      0.939480   143A      0.941517  
     144A      0.942560   145A      0.944006   146A      0.952732  
     147A      0.954593   148A      0.967021   149A      0.969955  
     150A      0.974555   151A      0.983514   152A      0.991352  
     153A      0.996634   154A      1.001308   155A      1.011262  
     156A      1.014872   157A      1.018868   158A      1.021698  
     159A      1.026411   160A      1.031021   161A      1.039917  
     162A      1.045085   163A      1.047140   164A      1.053360  
     165A      1.056605   166A      1.067323   167A      1.074552  
     168A      1.082124   169A      1.090196   170A      1.092493  
     171A      1.098451   172A      1.116993   173A      1.128169  
     174A      1.138591   175A      1.146224   176A      1.152533  
     177A      1.162009   178A      1.165364   179A      1.182566  
     180A      1.185369   181A      1.189480   182A      1.193738  
     183A      1.207423   184A      1.214717   185A      1.226964  
     186A      1.235780   187A      1.242740   188A      1.248243  
     189A      1.255183   190A      1.259889   191A      1.274424  
     192A      1.279803   193A      1.299206   194A      1.306190  
     195A      1.316142   196A      1.324855   197A      1.333561  
     198A      1.339401   199A      1.357535   200A      1.360714  
     201A      1.369901   202A      1.381619   203A      1.388553  
     204A      1.389893   205A      1.405251   206A      1.409735  
     207A      1.417807   208A      1.422454   209A      1.437669  
     210A      1.444299   211A      1.460689   212A      1.484211  
     213A      1.487292   214A      1.493238   215A      1.502189  
     216A      1.520753   217A      1.531421   218A      1.548957  
     219A      1.560101   220A      1.580241   221A      1.588218  
     222A      1.591862   223A      1.604145   224A      1.615050  
     225A      1.636002   226A      1.641728   227A      1.652598  
     228A      1.665637   229A      1.686658   230A      1.692845  
     231A      1.715633   232A      1.735468   233A      1.743722  
     234A      1.745123   235A      1.751126   236A      1.763271  
     237A      1.769083   238A      1.775226   239A      1.781287  
     240A      1.787673   241A      1.792589   242A      1.802714  
     243A      1.812056   244A      1.822653   245A      1.828763  
     246A      1.836056   247A      1.855106   248A      1.874168  
     249A      1.879437   250A      1.889576   251A      1.891180  
     252A      1.897549   253A      1.910482   254A      1.917131  
     255A      1.927756   256A      1.953236   257A      1.961167  
     258A      1.970490   259A      1.981348   260A      2.001312  
     261A      2.003962   262A      2.014273   263A      2.029502  
     264A      2.037966   265A      2.044031   266A      2.069635  
     267A      2.081708   268A      2.105088   269A      2.110118  
     270A      2.122192   271A      2.142541   272A      2.152445  
     273A      2.173286   274A      2.189374   275A      2.229864  
     276A      2.255222   277A      2.261008   278A      2.321457  
     279A      2.362860   280A      2.383669   281A      2.437630  
     282A      2.453535   283A      2.462285   284A      2.475305  
     285A      2.482020   286A      2.491780   287A      2.496207  
     288A      2.516844   289A      2.522512   290A      2.526105  
     291A      2.536245   292A      2.544106   293A      2.555169  
     294A      2.563823   295A      2.572987   296A      2.582141  
     297A      2.586140   298A      2.595177   299A      2.602187  
     300A      2.615827   301A      2.627979   302A      2.639210  
     303A      2.643500   304A      2.659742   305A      2.672129  
     306A      2.682828   307A      2.685521   308A      2.693536  
     309A      2.702939   310A      2.719913   311A      2.731073  
     312A      2.736018   313A      2.739745   314A      2.764096  
     315A      2.767969   316A      2.780107   317A      2.787513  
     318A      2.814205   319A      2.820768   320A      2.832271  
     321A      2.835894   322A      2.851267   323A      2.868694  
     324A      2.880462   325A      2.893932   326A      2.903036  
     327A      2.926915   328A      2.962217   329A      2.963198  
     330A      2.983854   331A      3.007018   332A      3.028555  
     333A      3.041272   334A      3.063982   335A      3.076091  
     336A      3.099932   337A      3.123441   338A      3.186922  
     339A      3.196536   340A      3.208783   341A      3.217433  
     342A      3.226195   343A      3.233979   344A      3.236976  
     345A      3.248333   346A      3.260439   347A      3.279913  
     348A      3.285246   349A      3.314581   350A      3.348908  
     351A      3.369694   352A      3.390618   353A      3.403887  
     354A      3.435537   355A      3.460781   356A      3.470511  
     357A      3.477881   358A      3.489408   359A      3.501049  
     360A      3.521140   361A      3.548200   362A      3.600794  
     363A      3.614733   364A      3.635264   365A      3.673989  
     366A      3.678236   367A      3.691367   368A      3.749680  
     369A      3.775712   370A      3.805592   371A      3.837175  
     372A      3.877843   373A      3.893959   374A      4.003595  
     375A      4.102350   376A      4.177290   377A      4.237948  
     378A      4.259763   379A      4.287324   380A      4.304437  
     381A      4.311553   382A      4.317856   383A      4.344927  
     384A      4.368233   385A      4.376301   386A      4.394419  
     387A      4.400990   388A      4.417573   389A      4.428455  
     390A      4.433602   391A      4.438352   392A      4.446396  
     393A      4.469449   394A      4.481388   395A      4.485450  
     396A      4.500462   397A      4.503933   398A      4.516361  
     399A      4.521969   400A      4.534303   401A      4.547261  
     402A      4.553249   403A      4.570647   404A      4.572464  
     405A      4.596457   406A      4.605415   407A      4.619765  
     408A      4.643494   409A      4.650929   410A      4.662398  
     411A      4.667696   412A      4.672136   413A      4.689771  
     414A      4.695644   415A      4.703034   416A      4.727421  
     417A      4.760547   418A      4.768047   419A      4.782562  
     420A      4.790031   421A      4.807436   422A      4.825871  
     423A      4.869304   424A      4.885034   425A      4.895628  
     426A      4.899291   427A      4.911374   428A      4.942514  
     429A      4.949820   430A      4.967968   431A      4.979299  
     432A      4.988962   433A      4.997663   434A      5.006813  
     435A      5.012245   436A      5.044474   437A      5.061481  
     438A      5.065579   439A      5.074783   440A      5.099912  
     441A      5.118635   442A      5.143792   443A      5.193851  
     444A      5.213242   445A      5.222244   446A      5.233691  
     447A      5.253363   448A      5.267762   449A      5.275673  
     450A      5.313154   451A      5.339250   452A      5.353355  
     453A      5.401379   454A      5.454107   455A      5.473386  
     456A      5.525688   457A      5.531792   458A      5.536153  
     459A      5.542887   460A      5.557907   461A      5.560703  
     462A      5.572703   463A      5.589842   464A      5.595899  
     465A      5.606513   466A      5.660177   467A      5.667602  
     468A      5.713646   469A      5.719548   470A      5.751344  
     471A      5.758459   472A      5.794058   473A      5.827615  
     474A      5.839972   475A      5.874097   476A      5.884328  
     477A      5.916352   478A      6.159596   479A      6.180530  
     480A      6.197419   481A      6.221045   482A      6.265676  
     483A      6.270603   484A      6.291155   485A      6.409224  
     486A      6.415571   487A      6.463177   488A      6.467139  
     489A      6.577976   490A      6.636704   491A      6.669862  
     492A      6.757715   493A      6.787382   494A      6.835582  
     495A      6.882000   496A      6.956779   497A      7.002256  
     498A      7.078997   499A      7.116354   500A      7.142994  
     501A      7.192516   502A      7.221766   503A      7.347289  
     504A      7.376443   505A      7.382859   506A      7.459204  
     507A      7.545990   508A      7.682843   509A      7.726819  
     510A      7.730639   511A      7.745235   512A      7.753187  
     513A      7.768242   514A      7.822329   515A      7.839224  
     516A      7.850874   517A      7.859101   518A      7.874652  
     519A      8.020251   520A      8.047112   521A      8.068225  
     522A      8.076751   523A      8.117765   524A      8.131882  
     525A      8.153169   526A      8.208906   527A      8.227904  
     528A      8.239614   529A      8.246212   530A      8.288538  
     531A      8.312910   532A      8.319764   533A      8.331705  
     534A      8.339750   535A      8.411246   536A      8.705038  
     537A      8.756472   538A      8.767925   539A      8.780777  
     540A      8.811270   541A      8.849411   542A      8.887695  
     543A      8.904040   544A      8.990115   545A      9.061142  
     546A      9.134270   547A      9.692202   548A      9.723503  
     549A      9.759203   550A      9.802024   551A      9.836777  
     552A      9.856327   553A      9.866982   554A      9.895896  
     555A      9.929341   556A      9.945447   557A     10.071012  
     558A     10.082546   559A     10.094609   560A     10.118552  
     561A     10.164394   562A     10.221187   563A     10.286019  
     564A     10.308435   565A     10.348458   566A     10.382094  
     567A     11.046730   568A     11.063504   569A     11.130740  
     570A     11.149923   571A     11.212439   572A     11.719719  
     573A     11.751291   574A     11.767508   575A     11.831735  
     576A     11.867327   577A     11.903668   578A     12.153184  
     579A     12.230804   580A     12.234483   581A     12.355501  
     582A     13.464552   583A     13.553922   584A     13.588399  
     585A     13.660824   586A     13.673830   587A     13.912587  
     588A     13.940092   589A     14.000682   590A     14.046001  
     591A     14.072849   592A     16.596925   593A     17.649246  
     594A     28.379783   595A     28.430425   596A     28.539724  
     597A     64.829668   598A     65.240292   599A     65.898275  
     600A     67.151288   601A     67.569231   602A    161.019033  

    Final Occupation by Irrep:
              A 
    DOCC [     5 ]
    NA   [     5 ]
    NB   [     5 ]

  @DF-RHF Final Energy:   -76.06112568204199

   => Energetics <=

    Nuclear Repulsion Energy =              9.2913685810049564
    One-Electron Energy =                -123.2206973374183292
    Two-Electron Energy =                  37.8682030743713653
    Total Energy =                        -76.0611256820420039

Computation Completed


Properties will be evaluated at   0.000000,   0.000000,   0.000000 [a0]

Properties computed using the SCF density matrix


 Multipole Moments:

 ------------------------------------------------------------------------------------
     Multipole            Electronic (a.u.)      Nuclear  (a.u.)        Total (a.u.)
 ------------------------------------------------------------------------------------

 L = 1.  Multiply by 2.5417464519 to convert [e a0] to [Debye]
 Dipole X            :          2.2398136           -1.6617288            0.5780848
 Dipole Y            :         39.7934188          -39.5363946            0.2570242
 Dipole Z            :         45.0122949          -44.5933527            0.4189422
 Magnitude           :                                                    0.7587859

 ------------------------------------------------------------------------------------

*** tstop() called on ddmfs1 at Mon Jan 22 21:20:25 2024
Module time:
	user time   =     130.55 seconds =       2.18 minutes
	system time =       6.34 seconds =       0.11 minutes
	total time  =          8 seconds =       0.13 minutes
Total time:
	user time   =     130.55 seconds =       2.18 minutes
	system time =       6.34 seconds =       0.11 minutes
	total time  =          8 seconds =       0.13 minutes

*** tstart() called on ddmfs1
*** at Mon Jan 22 21:20:25 2024


  //>>>>>>>>>>>>>>>>>>>>>>>>>>>>>>>>>>>//
  //               DFMP2               //
  //<<<<<<<<<<<<<<<<<<<<<<<<<<<<<<<<<<<//

   => Loading Basis Set <=

    Name: (AUG-CC-PVTZ AUX)
    Role: RIFIT
    Keyword: DF_BASIS_MP2
    atoms 1                                   entry CL         line   742 file /ddmfs1b/softs/psi4conda/share/psi4/basis/aug-cc-pvtz-ri.gbs 
    atoms 2, 5, 8, 11, 14, 17                 entry O          line   264 file /ddmfs1b/softs/psi4conda/share/psi4/basis/aug-cc-pvtz-ri.gbs 
    atoms 3-4, 6-7, 9-10, 12-13, 15-16, 18-19 entry H          line    30 file /ddmfs1b/softs/psi4conda/share/psi4/basis/aug-cc-pvtz-ri.gbs 

	 --------------------------------------------------------
	                          DF-MP2                         
	      2nd-Order Density-Fitted Moller-Plesset Theory     
	              RMP2 Wavefunction,  20 Threads             
	                                                         
	        Rob Parrish, Justin Turney, Andy Simmonett,      
	           Ed Hohenstein, and C. David Sherrill          
	 --------------------------------------------------------

   => Auxiliary Basis Set <=

  Basis Set: (AUG-CC-PVTZ AUX)
    Blend: AUG-CC-PVTZ-RI
    Number of shells: 373
    Number of basis functions: 1335
    Number of Cartesian functions: 1667
    Spherical Harmonics?: true
    Max angular momentum: 4

	 --------------------------------------------------------
	                 NBF =   602, NAUX =  1335
	 --------------------------------------------------------
	   CLASS    FOCC     OCC    AOCC    AVIR     VIR    FVIR
	   PAIRS       0       5       5     597     597       0
	 --------------------------------------------------------

	-----------------------------------------------------------
	 ==================> DF-MP2 Energies <==================== 
	-----------------------------------------------------------
	 Reference Energy          =     -76.0611256820419896 [Eh]
	 Singles Energy            =      -0.0000000000000000 [Eh]
	 Same-Spin Energy          =      -0.0681741898871276 [Eh]
	 Opposite-Spin Energy      =      -0.2153125084493299 [Eh]
	 Correlation Energy        =      -0.2834866983364576 [Eh]
	 Total Energy              =     -76.3446123803784502 [Eh]
	-----------------------------------------------------------
	 ================> DF-SCS-MP2 Energies <================== 
	-----------------------------------------------------------
	 SCS Same-Spin Scale       =       0.3333333333333333 [-]
	 SCS Opposite-Spin Scale   =       1.2000000000000000 [-]
	 SCS Same-Spin Energy      =      -0.0227247299623759 [Eh]
	 SCS Opposite-Spin Energy  =      -0.2583750101391959 [Eh]
	 SCS Correlation Energy    =      -0.2810997401015718 [Eh]
	 SCS Total Energy          =     -76.3422254221435566 [Eh]
	-----------------------------------------------------------


*** tstop() called on ddmfs1 at Mon Jan 22 21:20:32 2024
Module time:
	user time   =      35.49 seconds =       0.59 minutes
	system time =       2.28 seconds =       0.04 minutes
	total time  =          7 seconds =       0.12 minutes
Total time:
	user time   =     166.06 seconds =       2.77 minutes
	system time =       8.62 seconds =       0.14 minutes
	total time  =         15 seconds =       0.25 minutes

    Psi4 stopped on: Monday, 22 January 2024 09:20PM
    Psi4 wall time for execution: 0:00:15.32

*** Psi4 exiting successfully. Buy a developer a beer!
