
    -----------------------------------------------------------------------
          Psi4: An Open-Source Ab Initio Electronic Structure Package
                               Psi4 1.8.2 release

                         Git: Rev {} zzzzzzz 


    D. G. A. Smith, L. A. Burns, A. C. Simmonett, R. M. Parrish,
    M. C. Schieber, R. Galvelis, P. Kraus, H. Kruse, R. Di Remigio,
    A. Alenaizan, A. M. James, S. Lehtola, J. P. Misiewicz, M. Scheurer,
    R. A. Shaw, J. B. Schriber, Y. Xie, Z. L. Glick, D. A. Sirianni,
    J. S. O'Brien, J. M. Waldrop, A. Kumar, E. G. Hohenstein,
    B. P. Pritchard, B. R. Brooks, H. F. Schaefer III, A. Yu. Sokolov,
    K. Patkowski, A. E. DePrince III, U. Bozkaya, R. A. King,
    F. A. Evangelista, J. M. Turney, T. D. Crawford, C. D. Sherrill,
    J. Chem. Phys. 152(18) 184108 (2020). https://doi.org/10.1063/5.0006002

                            Additional Code Authors
    E. T. Seidl, C. L. Janssen, E. F. Valeev, M. L. Leininger,
    J. F. Gonthier, R. M. Richard, H. R. McAlexander, M. Saitow, X. Wang,
    P. Verma, M. H. Lechner, A. Jiang, S. Behnle, A. G. Heide,
    M. F. Herbst, and D. L. Poole

             Previous Authors, Complete List of Code Contributors,
                       and Citations for Specific Modules
    https://github.com/psi4/psi4/blob/master/codemeta.json
    https://github.com/psi4/psi4/graphs/contributors
    http://psicode.org/psi4manual/master/introduction.html#citing-psifour

    -----------------------------------------------------------------------


    Psi4 started on: Monday, 22 January 2024 09:02PM

    Process ID: 106975
    Host:       ddmfs1
    PSIDATADIR: /ddmfs1b/softs/psi4conda/share/psi4
    Memory:     500.0 MiB
    Threads:    20
    
  ==> Input File <==

--------------------------------------------------------------------------
MEMORY 60 GB

molecule dimer {
0 1
Gh(Cl)     0.000000     0.000000     0.000000
Gh(O)     -0.939928     3.138189    -0.000936
Gh(H)     -0.820702     2.238321     0.375766
Gh(H)     -0.712248     3.077225    -0.943590
Gh(O)      1.774428     1.345338    -2.573145
Gh(H)      1.119620     1.302239    -1.824535
Gh(H)      1.660456     2.173050    -2.996113
O         -2.265274    -2.324267     0.705293
H         -2.834139    -2.738348     0.091603
H         -1.824269    -1.638760     0.205252
Gh(O)      0.930253    -0.455464     2.995589
Gh(H)      0.429133     0.276974     3.481595
Gh(H)      0.852726    -0.389826     2.071742

units ang
no_reorient
no_com
symmetry c1
}

set {
basis        aug-cc-pVTZ
scf_type     df
}

energy("mp2")
--------------------------------------------------------------------------

  Memory set to  55.879 GiB by Python driver.

Scratch directory: /ddmfs1a/scratch/
   => Libint2 <=

    Primary   basis highest AM E, G, H:  5, 4, 3
    Auxiliary basis highest AM E, G, H:  6, 5, 4
    Onebody   basis highest AM E, G, H:  6, 5, 4
    Solid Harmonics ordering:            gaussian

*** tstart() called on ddmfs1
*** at Mon Jan 22 21:02:32 2024

   => Loading Basis Set <=

    Name: AUG-CC-PVTZ
    Role: ORBITAL
    Keyword: BASIS
    atoms 1                     entry CL         line   988 file /ddmfs1b/softs/psi4conda/share/psi4/basis/aug-cc-pvtz.gbs 
    atoms 2, 5, 8, 11           entry O          line   331 file /ddmfs1b/softs/psi4conda/share/psi4/basis/aug-cc-pvtz.gbs 
    atoms 3-4, 6-7, 9-10, 12-13 entry H          line    40 file /ddmfs1b/softs/psi4conda/share/psi4/basis/aug-cc-pvtz.gbs 


         ---------------------------------------------------------
                                   SCF
               by Justin Turney, Rob Parrish, Andy Simmonett
                          and Daniel G. A. Smith
                              RHF Reference
                       20 Threads,  57220 MiB Core
         ---------------------------------------------------------

  ==> Geometry <==

    Molecular point group: c1
    Full point group: C1

    Geometry (in Angstrom), charge = 0, multiplicity = 1:

       Center              X                  Y                   Z               Mass       
    ------------   -----------------  -----------------  -----------------  -----------------
      Gh(CL)          0.000000000000     0.000000000000     0.000000000000    34.968852682000
      Gh(O)          -0.939928000000     3.138189000000    -0.000936000000    15.994914619570
      Gh(H)          -0.820702000000     2.238321000000     0.375766000000     1.007825032230
      Gh(H)          -0.712248000000     3.077225000000    -0.943590000000     1.007825032230
      Gh(O)           1.774428000000     1.345338000000    -2.573145000000    15.994914619570
      Gh(H)           1.119620000000     1.302239000000    -1.824535000000     1.007825032230
      Gh(H)           1.660456000000     2.173050000000    -2.996113000000     1.007825032230
         O           -2.265274000000    -2.324267000000     0.705293000000    15.994914619570
         H           -2.834139000000    -2.738348000000     0.091603000000     1.007825032230
         H           -1.824269000000    -1.638760000000     0.205252000000     1.007825032230
      Gh(O)           0.930253000000    -0.455464000000     2.995589000000    15.994914619570
      Gh(H)           0.429133000000     0.276974000000     3.481595000000     1.007825032230
      Gh(H)           0.852726000000    -0.389826000000     2.071742000000     1.007825032230

  Running in c1 symmetry.

  Rotational constants: A =      0.05195  B =      0.02865  C =      0.02661 [cm^-1]
  Rotational constants: A =   1557.54256  B =    858.91302  C =    797.74034 [MHz]
  Nuclear repulsion =    9.314760238694646

  Charge       = 0
  Multiplicity = 1
  Electrons    = 10
  Nalpha       = 5
  Nbeta        = 5

  ==> Algorithm <==

  SCF Algorithm Type is DF.
  DIIS enabled.
  MOM disabled.
  Fractional occupation disabled.
  Guess Type is SAD.
  Energy threshold   = 1.00e-08
  Density threshold  = 1.00e-08
  Integral threshold = 1.00e-12

  ==> Primary Basis <==

  Basis Set: AUG-CC-PVTZ
    Blend: AUG-CC-PVTZ
    Number of shells: 144
    Number of basis functions: 418
    Number of Cartesian functions: 479
    Spherical Harmonics?: true
    Max angular momentum: 3

   => Loading Basis Set <=

    Name: (AUG-CC-PVTZ AUX)
    Role: JKFIT
    Keyword: DF_BASIS_SCF
    atoms 1                     entry CL         line   816 file /ddmfs1b/softs/psi4conda/share/psi4/basis/aug-cc-pvtz-jkfit.gbs 
    atoms 2, 5, 8, 11           entry O          line   286 file /ddmfs1b/softs/psi4conda/share/psi4/basis/aug-cc-pvtz-jkfit.gbs 
    atoms 3-4, 6-7, 9-10, 12-13 entry H          line    70 file /ddmfs1b/softs/psi4conda/share/psi4/basis/aug-cc-pvtz-jkfit.gbs 

  ==> Integral Setup <==

  DFHelper Memory: AOs need 1.094 GiB; user supplied 41.910 GiB. 
  Using in-core AOs.

  ==> MemDFJK: Density-Fitted J/K Matrices <==

    J tasked:                   Yes
    K tasked:                   Yes
    wK tasked:                   No
    OpenMP threads:              20
    Memory [MiB]:             42915
    Algorithm:                 Core
    Schwarz Cutoff:           1E-12
    Mask sparsity (%):      15.2034
    Fitting Condition:        1E-10

   => Auxiliary Basis Set <=

  Basis Set: (AUG-CC-PVTZ AUX)
    Blend: AUG-CC-PVTZ-JKFIT
    Number of shells: 274
    Number of basis functions: 930
    Number of Cartesian functions: 1144
    Spherical Harmonics?: true
    Max angular momentum: 4

  Minimum eigenvalue in the overlap matrix is 1.9128723346E-04.
  Reciprocal condition number of the overlap matrix is 1.9198779401E-05.
    Using symmetric orthogonalization.

  ==> Pre-Iterations <==

  SCF Guess: Superposition of Atomic Densities via on-the-fly atomic UHF (no occupation information).

   -------------------------
    Irrep   Nso     Nmo    
   -------------------------
     A        418     418 
   -------------------------
    Total     418     418
   -------------------------

  ==> Iterations <==

                           Total Energy        Delta E     RMS |[F,P]|

   @DF-RHF iter SAD:   -75.49153166954358   -7.54915e+01   0.00000e+00 
   @DF-RHF iter   1:   -75.97700609187513   -4.85474e-01   1.12504e-03 ADIIS/DIIS
   @DF-RHF iter   2:   -76.03004909750750   -5.30430e-02   7.54312e-04 ADIIS/DIIS
   @DF-RHF iter   3:   -76.06046510016705   -3.04160e-02   5.11877e-05 DIIS
   @DF-RHF iter   4:   -76.06083718490899   -3.72085e-04   1.18348e-05 DIIS
   @DF-RHF iter   5:   -76.06085863921903   -2.14543e-05   2.64900e-06 DIIS
   @DF-RHF iter   6:   -76.06086035357708   -1.71436e-06   5.79906e-07 DIIS
   @DF-RHF iter   7:   -76.06086044504356   -9.14665e-08   1.07221e-07 DIIS
   @DF-RHF iter   8:   -76.06086044782631   -2.78276e-09   1.76439e-08 DIIS
   @DF-RHF iter   9:   -76.06086044788474   -5.84208e-11   4.24743e-09 DIIS
  Energy and wave function converged.


  ==> Post-Iterations <==

    Orbital Energies [Eh]
    ---------------------

    Doubly Occupied:                                                      

       1A    -20.564851     2A     -1.359990     3A     -0.725233  
       4A     -0.586704     5A     -0.511341  

    Virtual:                                                              

       6A      0.017714     7A      0.034023     8A      0.038951  
       9A      0.042244    10A      0.054201    11A      0.062477  
      12A      0.067415    13A      0.077965    14A      0.099617  
      15A      0.116297    16A      0.123933    17A      0.124692  
      18A      0.130838    19A      0.138675    20A      0.144618  
      21A      0.151211    22A      0.156981    23A      0.165415  
      24A      0.166974    25A      0.175161    26A      0.183332  
      27A      0.186637    28A      0.189053    29A      0.199291  
      30A      0.201076    31A      0.217984    32A      0.227566  
      33A      0.249396    34A      0.268874    35A      0.269932  
      36A      0.272406    37A      0.280811    38A      0.289398  
      39A      0.292097    40A      0.311018    41A      0.317948  
      42A      0.326969    43A      0.330405    44A      0.337900  
      45A      0.338508    46A      0.344619    47A      0.349546  
      48A      0.357712    49A      0.363839    50A      0.367099  
      51A      0.375608    52A      0.380893    53A      0.393113  
      54A      0.395422    55A      0.406990    56A      0.426346  
      57A      0.436238    58A      0.449503    59A      0.457030  
      60A      0.461691    61A      0.472985    62A      0.483137  
      63A      0.495813    64A      0.498666    65A      0.533881  
      66A      0.545314    67A      0.577907    68A      0.585084  
      69A      0.604550    70A      0.616858    71A      0.629186  
      72A      0.633972    73A      0.656434    74A      0.688638  
      75A      0.693738    76A      0.712007    77A      0.724059  
      78A      0.729437    79A      0.738068    80A      0.742147  
      81A      0.747631    82A      0.756569    83A      0.761000  
      84A      0.772951    85A      0.782913    86A      0.791574  
      87A      0.793810    88A      0.800969    89A      0.812988  
      90A      0.816141    91A      0.824748    92A      0.827950  
      93A      0.835183    94A      0.845101    95A      0.856967  
      96A      0.857997    97A      0.862725    98A      0.870221  
      99A      0.874718   100A      0.879519   101A      0.889636  
     102A      0.899791   103A      0.905998   104A      0.914350  
     105A      0.921801   106A      0.925914   107A      0.930930  
     108A      0.937920   109A      0.951687   110A      0.964130  
     111A      0.967887   112A      0.970399   113A      0.978935  
     114A      0.980217   115A      0.986059   116A      0.994407  
     117A      1.005507   118A      1.015444   119A      1.024357  
     120A      1.032286   121A      1.035060   122A      1.052015  
     123A      1.053855   124A      1.060168   125A      1.064263  
     126A      1.080982   127A      1.089708   128A      1.098656  
     129A      1.110137   130A      1.128034   131A      1.136201  
     132A      1.145686   133A      1.170409   134A      1.184346  
     135A      1.204225   136A      1.207212   137A      1.228759  
     138A      1.239905   139A      1.257623   140A      1.267070  
     141A      1.280157   142A      1.290159   143A      1.298009  
     144A      1.318549   145A      1.332578   146A      1.335558  
     147A      1.371669   148A      1.383155   149A      1.388221  
     150A      1.416966   151A      1.428693   152A      1.444682  
     153A      1.474865   154A      1.489055   155A      1.506191  
     156A      1.518939   157A      1.524287   158A      1.551106  
     159A      1.569828   160A      1.577125   161A      1.594503  
     162A      1.620932   163A      1.638438   164A      1.642707  
     165A      1.667581   166A      1.681774   167A      1.699432  
     168A      1.709319   169A      1.714864   170A      1.724144  
     171A      1.737954   172A      1.746881   173A      1.755273  
     174A      1.763474   175A      1.768236   176A      1.783826  
     177A      1.804359   178A      1.814809   179A      1.833643  
     180A      1.843390   181A      1.861074   182A      1.874468  
     183A      1.896682   184A      1.919296   185A      1.927746  
     186A      1.956795   187A      1.964115   188A      1.976427  
     189A      1.998975   190A      2.040797   191A      2.053441  
     192A      2.067861   193A      2.080860   194A      2.084883  
     195A      2.174892   196A      2.199415   197A      2.288419  
     198A      2.307379   199A      2.353116   200A      2.373363  
     201A      2.421043   202A      2.444450   203A      2.458875  
     204A      2.472037   205A      2.473575   206A      2.480308  
     207A      2.485988   208A      2.501617   209A      2.514686  
     210A      2.525730   211A      2.536459   212A      2.543588  
     213A      2.563447   214A      2.575264   215A      2.601735  
     216A      2.609691   217A      2.624061   218A      2.643918  
     219A      2.648265   220A      2.653124   221A      2.661617  
     222A      2.668446   223A      2.689377   224A      2.710488  
     225A      2.725826   226A      2.728507   227A      2.741756  
     228A      2.763340   229A      2.818562   230A      2.826723  
     231A      2.889383   232A      2.895878   233A      2.931575  
     234A      2.961117   235A      2.983972   236A      3.001437  
     237A      3.027384   238A      3.156930   239A      3.175793  
     240A      3.185781   241A      3.197383   242A      3.200904  
     243A      3.218068   244A      3.249172   245A      3.283704  
     246A      3.304953   247A      3.346751   248A      3.359914  
     249A      3.378363   250A      3.391073   251A      3.460346  
     252A      3.485806   253A      3.587030   254A      3.624682  
     255A      3.637256   256A      3.734315   257A      3.756604  
     258A      3.766541   259A      3.833095   260A      3.871507  
     261A      4.048955   262A      4.068807   263A      4.120056  
     264A      4.140317   265A      4.167646   266A      4.183052  
     267A      4.195653   268A      4.210018   269A      4.243073  
     270A      4.266510   271A      4.290332   272A      4.322603  
     273A      4.343831   274A      4.360351   275A      4.367271  
     276A      4.385976   277A      4.388214   278A      4.403386  
     279A      4.434798   280A      4.446114   281A      4.462748  
     282A      4.464966   283A      4.478610   284A      4.499530  
     285A      4.517456   286A      4.527345   287A      4.580621  
     288A      4.610942   289A      4.620163   290A      4.625561  
     291A      4.630245   292A      4.643329   293A      4.673721  
     294A      4.694762   295A      4.698851   296A      4.729200  
     297A      4.748108   298A      4.776344   299A      4.792984  
     300A      4.817484   301A      4.862530   302A      4.867748  
     303A      4.891151   304A      4.916687   305A      4.919891  
     306A      4.932426   307A      4.963878   308A      4.985355  
     309A      5.011217   310A      5.048775   311A      5.072627  
     312A      5.094147   313A      5.109267   314A      5.155748  
     315A      5.197075   316A      5.210332   317A      5.222576  
     318A      5.280705   319A      5.334305   320A      5.410987  
     321A      5.453358   322A      5.468119   323A      5.506266  
     324A      5.508975   325A      5.517543   326A      5.542994  
     327A      5.551867   328A      5.576408   329A      5.626663  
     330A      5.715082   331A      5.741680   332A      5.759352  
     333A      5.780631   334A      5.794125   335A      5.857315  
     336A      6.154089   337A      6.159972   338A      6.179678  
     339A      6.253071   340A      6.328089   341A      6.372361  
     342A      6.442686   343A      6.558783   344A      6.635131  
     345A      6.676299   346A      6.742399   347A      6.763901  
     348A      6.970181   349A      7.026990   350A      7.100881  
     351A      7.155160   352A      7.176580   353A      7.293379  
     354A      7.359702   355A      7.373562   356A      7.385608  
     357A      7.431455   358A      7.675161   359A      7.681389  
     360A      7.697310   361A      7.727902   362A      7.762703  
     363A      7.818521   364A      7.823206   365A      7.980609  
     366A      8.041269   367A      8.046340   368A      8.071290  
     369A      8.077895   370A      8.248770   371A      8.260677  
     372A      8.266375   373A      8.277460   374A      8.280911  
     375A      8.301694   376A      8.728558   377A      8.738191  
     378A      8.804065   379A      8.810400   380A      8.872001  
     381A      8.908294   382A      9.078988   383A      9.667891  
     384A      9.694274   385A      9.749630   386A      9.833396  
     387A      9.844906   388A      9.851343   389A     10.038309  
     390A     10.045968   391A     10.085308   392A     10.265487  
     393A     10.301199   394A     10.304723   395A     10.970741  
     396A     11.101454   397A     11.109190   398A     11.646042  
     399A     11.653093   400A     11.742768   401A     11.955368  
     402A     12.169585   403A     12.283710   404A     13.472890  
     405A     13.540792   406A     13.548692   407A     13.905939  
     408A     13.910785   409A     13.986296   410A     15.698098  
     411A     16.614285   412A     28.046373   413A     28.194578  
     414A     28.305438   415A     64.761189   416A     65.112273  
     417A     66.514380   418A    160.945627  

    Final Occupation by Irrep:
              A 
    DOCC [     5 ]
    NA   [     5 ]
    NB   [     5 ]

  @DF-RHF Final Energy:   -76.06086044788474

   => Energetics <=

    Nuclear Repulsion Energy =              9.3147602386946460
    One-Electron Energy =                -123.2550027754038524
    Two-Electron Energy =                  37.8793820888244710
    Total Energy =                        -76.0608604478847354

Computation Completed


Properties will be evaluated at   0.000000,   0.000000,   0.000000 [a0]

Properties computed using the SCF density matrix


 Multipole Moments:

 ------------------------------------------------------------------------------------
     Multipole            Electronic (a.u.)      Nuclear  (a.u.)        Total (a.u.)
 ------------------------------------------------------------------------------------

 L = 1.  Multiply by 2.5417464519 to convert [e a0] to [Debye]
 Dipole X            :         42.9605925          -43.0490950           -0.0885025
 Dipole Y            :         43.5888793          -43.4093599            0.1795193
 Dipole Z            :        -11.9718079           11.2234595           -0.7483483
 Magnitude           :                                                    0.7746516

 ------------------------------------------------------------------------------------

*** tstop() called on ddmfs1 at Mon Jan 22 21:02:36 2024
Module time:
	user time   =      59.25 seconds =       0.99 minutes
	system time =       3.55 seconds =       0.06 minutes
	total time  =          4 seconds =       0.07 minutes
Total time:
	user time   =      59.25 seconds =       0.99 minutes
	system time =       3.55 seconds =       0.06 minutes
	total time  =          4 seconds =       0.07 minutes

*** tstart() called on ddmfs1
*** at Mon Jan 22 21:02:36 2024


  //>>>>>>>>>>>>>>>>>>>>>>>>>>>>>>>>>>>//
  //               DFMP2               //
  //<<<<<<<<<<<<<<<<<<<<<<<<<<<<<<<<<<<//

   => Loading Basis Set <=

    Name: (AUG-CC-PVTZ AUX)
    Role: RIFIT
    Keyword: DF_BASIS_MP2
    atoms 1                     entry CL         line   742 file /ddmfs1b/softs/psi4conda/share/psi4/basis/aug-cc-pvtz-ri.gbs 
    atoms 2, 5, 8, 11           entry O          line   264 file /ddmfs1b/softs/psi4conda/share/psi4/basis/aug-cc-pvtz-ri.gbs 
    atoms 3-4, 6-7, 9-10, 12-13 entry H          line    30 file /ddmfs1b/softs/psi4conda/share/psi4/basis/aug-cc-pvtz-ri.gbs 

	 --------------------------------------------------------
	                          DF-MP2                         
	      2nd-Order Density-Fitted Moller-Plesset Theory     
	              RMP2 Wavefunction,  20 Threads             
	                                                         
	        Rob Parrish, Justin Turney, Andy Simmonett,      
	           Ed Hohenstein, and C. David Sherrill          
	 --------------------------------------------------------

   => Auxiliary Basis Set <=

  Basis Set: (AUG-CC-PVTZ AUX)
    Blend: AUG-CC-PVTZ-RI
    Number of shells: 261
    Number of basis functions: 939
    Number of Cartesian functions: 1175
    Spherical Harmonics?: true
    Max angular momentum: 4

	 --------------------------------------------------------
	                 NBF =   418, NAUX =   939
	 --------------------------------------------------------
	   CLASS    FOCC     OCC    AOCC    AVIR     VIR    FVIR
	   PAIRS       0       5       5     413     413       0
	 --------------------------------------------------------

	-----------------------------------------------------------
	 ==================> DF-MP2 Energies <==================== 
	-----------------------------------------------------------
	 Reference Energy          =     -76.0608604478847354 [Eh]
	 Singles Energy            =      -0.0000000000000000 [Eh]
	 Same-Spin Energy          =      -0.0681486188546487 [Eh]
	 Opposite-Spin Energy      =      -0.2148228181040375 [Eh]
	 Correlation Energy        =      -0.2829714369586862 [Eh]
	 Total Energy              =     -76.3438318848434250 [Eh]
	-----------------------------------------------------------
	 ================> DF-SCS-MP2 Energies <================== 
	-----------------------------------------------------------
	 SCS Same-Spin Scale       =       0.3333333333333333 [-]
	 SCS Opposite-Spin Scale   =       1.2000000000000000 [-]
	 SCS Same-Spin Energy      =      -0.0227162062848829 [Eh]
	 SCS Opposite-Spin Energy  =      -0.2577873817248449 [Eh]
	 SCS Correlation Energy    =      -0.2805035880097279 [Eh]
	 SCS Total Energy          =     -76.3413640358944576 [Eh]
	-----------------------------------------------------------


*** tstop() called on ddmfs1 at Mon Jan 22 21:02:39 2024
Module time:
	user time   =      19.34 seconds =       0.32 minutes
	system time =       1.22 seconds =       0.02 minutes
	total time  =          3 seconds =       0.05 minutes
Total time:
	user time   =      78.61 seconds =       1.31 minutes
	system time =       4.77 seconds =       0.08 minutes
	total time  =          7 seconds =       0.12 minutes

    Psi4 stopped on: Monday, 22 January 2024 09:02PM
    Psi4 wall time for execution: 0:00:07.53

*** Psi4 exiting successfully. Buy a developer a beer!
