
    -----------------------------------------------------------------------
          Psi4: An Open-Source Ab Initio Electronic Structure Package
                               Psi4 1.8.2 release

                         Git: Rev {} zzzzzzz 


    D. G. A. Smith, L. A. Burns, A. C. Simmonett, R. M. Parrish,
    M. C. Schieber, R. Galvelis, P. Kraus, H. Kruse, R. Di Remigio,
    A. Alenaizan, A. M. James, S. Lehtola, J. P. Misiewicz, M. Scheurer,
    R. A. Shaw, J. B. Schriber, Y. Xie, Z. L. Glick, D. A. Sirianni,
    J. S. O'Brien, J. M. Waldrop, A. Kumar, E. G. Hohenstein,
    B. P. Pritchard, B. R. Brooks, H. F. Schaefer III, A. Yu. Sokolov,
    K. Patkowski, A. E. DePrince III, U. Bozkaya, R. A. King,
    F. A. Evangelista, J. M. Turney, T. D. Crawford, C. D. Sherrill,
    J. Chem. Phys. 152(18) 184108 (2020). https://doi.org/10.1063/5.0006002

                            Additional Code Authors
    E. T. Seidl, C. L. Janssen, E. F. Valeev, M. L. Leininger,
    J. F. Gonthier, R. M. Richard, H. R. McAlexander, M. Saitow, X. Wang,
    P. Verma, M. H. Lechner, A. Jiang, S. Behnle, A. G. Heide,
    M. F. Herbst, and D. L. Poole

             Previous Authors, Complete List of Code Contributors,
                       and Citations for Specific Modules
    https://github.com/psi4/psi4/blob/master/codemeta.json
    https://github.com/psi4/psi4/graphs/contributors
    http://psicode.org/psi4manual/master/introduction.html#citing-psifour

    -----------------------------------------------------------------------


    Psi4 started on: Monday, 22 January 2024 07:48PM

    Process ID: 99352
    Host:       ddmfs1
    PSIDATADIR: /ddmfs1b/softs/psi4conda/share/psi4
    Memory:     500.0 MiB
    Threads:    20
    
  ==> Input File <==

--------------------------------------------------------------------------
MEMORY 60 GB

molecule dimer {
-1 1
Cl         0.000000     0.000000     0.000000
Gh(O)      2.811402     1.308917    -0.646326
Gh(H)      3.234332     1.474802     0.204983
Gh(H)      1.945733     1.073091    -0.492024
Gh(O)     -0.273559     0.917934     3.152329
Gh(H)      0.136827     0.212370     3.671469
Gh(H)     -0.689970     0.389828     2.431398
Gh(O)      1.522141    -0.653873    -2.674542
Gh(H)      1.073915    -0.132792    -3.377375
Gh(H)      0.886423    -0.702472    -1.962450
Gh(O)     -2.674822     0.576166    -1.781221
Gh(H)     -1.954057     0.567322    -1.167115
Gh(H)     -2.728762     1.502340    -2.123526
Gh(O)      0.142016    -3.064361    -0.765164
Gh(H)      0.999542    -3.491946    -0.855143
Gh(H)      0.263409    -2.296723    -0.197218

units ang
no_reorient
no_com
symmetry c1
}

set {
basis        aug-cc-pVTZ
scf_type     df
}

energy("mp2")
--------------------------------------------------------------------------

  Memory set to  55.879 GiB by Python driver.

Scratch directory: /ddmfs1a/scratch/
   => Libint2 <=

    Primary   basis highest AM E, G, H:  5, 4, 3
    Auxiliary basis highest AM E, G, H:  6, 5, 4
    Onebody   basis highest AM E, G, H:  6, 5, 4
    Solid Harmonics ordering:            gaussian

*** tstart() called on ddmfs1
*** at Mon Jan 22 19:48:54 2024

   => Loading Basis Set <=

    Name: AUG-CC-PVTZ
    Role: ORBITAL
    Keyword: BASIS
    atoms 1                            entry CL         line   988 file /ddmfs1b/softs/psi4conda/share/psi4/basis/aug-cc-pvtz.gbs 
    atoms 2, 5, 8, 11, 14              entry O          line   331 file /ddmfs1b/softs/psi4conda/share/psi4/basis/aug-cc-pvtz.gbs 
    atoms 3-4, 6-7, 9-10, 12-13, 15-16 entry H          line    40 file /ddmfs1b/softs/psi4conda/share/psi4/basis/aug-cc-pvtz.gbs 


         ---------------------------------------------------------
                                   SCF
               by Justin Turney, Rob Parrish, Andy Simmonett
                          and Daniel G. A. Smith
                              RHF Reference
                       20 Threads,  57220 MiB Core
         ---------------------------------------------------------

  ==> Geometry <==

    Molecular point group: c1
    Full point group: C1

    Geometry (in Angstrom), charge = -1, multiplicity = 1:

       Center              X                  Y                   Z               Mass       
    ------------   -----------------  -----------------  -----------------  -----------------
         CL           0.000000000000     0.000000000000     0.000000000000    34.968852682000
      Gh(O)           2.811402000000     1.308917000000    -0.646326000000    15.994914619570
      Gh(H)           3.234332000000     1.474802000000     0.204983000000     1.007825032230
      Gh(H)           1.945733000000     1.073091000000    -0.492024000000     1.007825032230
      Gh(O)          -0.273559000000     0.917934000000     3.152329000000    15.994914619570
      Gh(H)           0.136827000000     0.212370000000     3.671469000000     1.007825032230
      Gh(H)          -0.689970000000     0.389828000000     2.431398000000     1.007825032230
      Gh(O)           1.522141000000    -0.653873000000    -2.674542000000    15.994914619570
      Gh(H)           1.073915000000    -0.132792000000    -3.377375000000     1.007825032230
      Gh(H)           0.886423000000    -0.702472000000    -1.962450000000     1.007825032230
      Gh(O)          -2.674822000000     0.576166000000    -1.781221000000    15.994914619570
      Gh(H)          -1.954057000000     0.567322000000    -1.167115000000     1.007825032230
      Gh(H)          -2.728762000000     1.502340000000    -2.123526000000     1.007825032230
      Gh(O)           0.142016000000    -3.064361000000    -0.765164000000    15.994914619570
      Gh(H)           0.999542000000    -3.491946000000    -0.855143000000     1.007825032230
      Gh(H)           0.263409000000    -2.296723000000    -0.197218000000     1.007825032230

  Running in c1 symmetry.

  Rotational constants: A =      0.03429  B =      0.02745  C =      0.02307 [cm^-1]
  Rotational constants: A =   1027.91074  B =    822.79338  C =    691.74802 [MHz]
  Nuclear repulsion =    0.000000000000000

  Charge       = -1
  Multiplicity = 1
  Electrons    = 18
  Nalpha       = 9
  Nbeta        = 9

  ==> Algorithm <==

  SCF Algorithm Type is DF.
  DIIS enabled.
  MOM disabled.
  Fractional occupation disabled.
  Guess Type is SAD.
  Energy threshold   = 1.00e-08
  Density threshold  = 1.00e-08
  Integral threshold = 1.00e-12

  ==> Primary Basis <==

  Basis Set: AUG-CC-PVTZ
    Blend: AUG-CC-PVTZ
    Number of shells: 176
    Number of basis functions: 510
    Number of Cartesian functions: 584
    Spherical Harmonics?: true
    Max angular momentum: 3

   => Loading Basis Set <=

    Name: (AUG-CC-PVTZ AUX)
    Role: JKFIT
    Keyword: DF_BASIS_SCF
    atoms 1                            entry CL         line   816 file /ddmfs1b/softs/psi4conda/share/psi4/basis/aug-cc-pvtz-jkfit.gbs 
    atoms 2, 5, 8, 11, 14              entry O          line   286 file /ddmfs1b/softs/psi4conda/share/psi4/basis/aug-cc-pvtz-jkfit.gbs 
    atoms 3-4, 6-7, 9-10, 12-13, 15-16 entry H          line    70 file /ddmfs1b/softs/psi4conda/share/psi4/basis/aug-cc-pvtz-jkfit.gbs 

  ==> Integral Setup <==

  DFHelper Memory: AOs need 1.963 GiB; user supplied 41.910 GiB. 
  Using in-core AOs.

  ==> MemDFJK: Density-Fitted J/K Matrices <==

    J tasked:                   Yes
    K tasked:                   Yes
    wK tasked:                   No
    OpenMP threads:              20
    Memory [MiB]:             42915
    Algorithm:                 Core
    Schwarz Cutoff:           1E-12
    Mask sparsity (%):      14.6290
    Fitting Condition:        1E-10

   => Auxiliary Basis Set <=

  Basis Set: (AUG-CC-PVTZ AUX)
    Blend: AUG-CC-PVTZ-JKFIT
    Number of shells: 332
    Number of basis functions: 1126
    Number of Cartesian functions: 1385
    Spherical Harmonics?: true
    Max angular momentum: 4

  Minimum eigenvalue in the overlap matrix is 1.4076236862E-04.
  Reciprocal condition number of the overlap matrix is 1.1808507046E-05.
    Using symmetric orthogonalization.

  ==> Pre-Iterations <==

  SCF Guess: Superposition of Atomic Densities via on-the-fly atomic UHF (no occupation information).

   -------------------------
    Irrep   Nso     Nmo    
   -------------------------
     A        510     510 
   -------------------------
    Total     510     510
   -------------------------

  ==> Iterations <==

                           Total Energy        Delta E     RMS |[F,P]|

   @DF-RHF iter SAD:  -459.11248998606197   -4.59112e+02   0.00000e+00 
   @DF-RHF iter   1:  -459.51389401595117   -4.01404e-01   5.85793e-04 ADIIS/DIIS
   @DF-RHF iter   2:  -459.56481474351074   -5.09207e-02   3.00281e-04 ADIIS/DIIS
   @DF-RHF iter   3:  -459.57351433102014   -8.69959e-03   2.09971e-05 DIIS
   @DF-RHF iter   4:  -459.57357215536729   -5.78243e-05   4.11044e-06 DIIS
   @DF-RHF iter   5:  -459.57357577068950   -3.61532e-06   4.21003e-07 DIIS
   @DF-RHF iter   6:  -459.57357585378469   -8.30952e-08   3.89073e-08 DIIS
   @DF-RHF iter   7:  -459.57357585485966   -1.07497e-09   4.40844e-09 DIIS
  Energy and wave function converged.


  ==> Post-Iterations <==

    Orbital Energies [Eh]
    ---------------------

    Doubly Occupied:                                                      

       1A   -104.507152     2A    -10.230030     3A     -7.696093  
       4A     -7.696086     5A     -7.696077     6A     -0.733466  
       7A     -0.150309     8A     -0.150304     9A     -0.150303  

    Virtual:                                                              

      10A      0.119620    11A      0.126567    12A      0.130595  
      13A      0.134245    14A      0.141145    15A      0.163566  
      16A      0.166542    17A      0.171313    18A      0.187872  
      19A      0.191791    20A      0.221786    21A      0.238970  
      22A      0.245574    23A      0.251161    24A      0.260816  
      25A      0.262908    26A      0.263918    27A      0.266238  
      28A      0.269606    29A      0.272620    30A      0.286791  
      31A      0.298929    32A      0.303845    33A      0.306602  
      34A      0.317005    35A      0.318331    36A      0.323894  
      37A      0.335718    38A      0.348771    39A      0.352525  
      40A      0.359447    41A      0.363241    42A      0.385183  
      43A      0.398004    44A      0.404948    45A      0.414398  
      46A      0.416068    47A      0.423607    48A      0.428302  
      49A      0.439252    50A      0.446261    51A      0.457536  
      52A      0.467923    53A      0.479932    54A      0.485021  
      55A      0.488999    56A      0.492111    57A      0.495462  
      58A      0.501983    59A      0.503228    60A      0.507217  
      61A      0.517669    62A      0.519998    63A      0.523560  
      64A      0.530188    65A      0.535440    66A      0.548019  
      67A      0.555138    68A      0.561012    69A      0.564958  
      70A      0.571427    71A      0.578524    72A      0.595395  
      73A      0.601617    74A      0.604308    75A      0.621979  
      76A      0.637500    77A      0.641149    78A      0.666529  
      79A      0.687782    80A      0.695366    81A      0.702078  
      82A      0.725683    83A      0.740644    84A      0.751889  
      85A      0.768726    86A      0.793266    87A      0.805202  
      88A      0.812046    89A      0.825824    90A      0.837082  
      91A      0.840805    92A      0.844260    93A      0.865906  
      94A      0.871839    95A      0.890331    96A      0.895185  
      97A      0.903838    98A      0.907757    99A      0.922703  
     100A      0.924806   101A      0.932333   102A      0.941762  
     103A      0.943315   104A      0.950924   105A      0.952432  
     106A      0.960729   107A      0.962103   108A      0.967447  
     109A      0.977373   110A      0.981545   111A      0.985715  
     112A      0.988858   113A      0.997720   114A      1.009735  
     115A      1.013194   116A      1.019322   117A      1.020143  
     118A      1.027242   119A      1.033890   120A      1.043643  
     121A      1.049178   122A      1.053549   123A      1.061285  
     124A      1.064897   125A      1.067764   126A      1.078393  
     127A      1.081564   128A      1.089962   129A      1.094693  
     130A      1.096155   131A      1.101126   132A      1.110889  
     133A      1.121541   134A      1.126207   135A      1.131990  
     136A      1.136642   137A      1.143850   138A      1.145457  
     139A      1.150970   140A      1.154241   141A      1.163757  
     142A      1.175170   143A      1.185360   144A      1.192996  
     145A      1.200245   146A      1.208842   147A      1.223088  
     148A      1.228511   149A      1.232069   150A      1.236251  
     151A      1.238021   152A      1.249131   153A      1.262842  
     154A      1.270485   155A      1.280681   156A      1.301220  
     157A      1.305882   158A      1.312481   159A      1.325671  
     160A      1.330385   161A      1.333635   162A      1.339518  
     163A      1.359691   164A      1.364022   165A      1.375810  
     166A      1.385187   167A      1.389973   168A      1.395816  
     169A      1.414749   170A      1.421546   171A      1.440395  
     172A      1.453788   173A      1.469196   174A      1.478467  
     175A      1.492231   176A      1.506044   177A      1.515869  
     178A      1.522253   179A      1.539128   180A      1.552383  
     181A      1.571085   182A      1.571827   183A      1.586469  
     184A      1.602000   185A      1.614700   186A      1.618585  
     187A      1.637542   188A      1.643007   189A      1.666602  
     190A      1.680443   191A      1.697553   192A      1.712527  
     193A      1.733490   194A      1.741160   195A      1.752339  
     196A      1.801402   197A      1.811515   198A      1.838156  
     199A      1.850260   200A      1.854455   201A      1.867544  
     202A      1.873885   203A      1.875079   204A      1.880327  
     205A      1.901193   206A      1.908232   207A      1.910615  
     208A      1.919374   209A      1.933280   210A      1.946272  
     211A      1.963146   212A      1.971123   213A      1.977703  
     214A      1.984676   215A      1.986098   216A      1.993989  
     217A      2.002160   218A      2.016224   219A      2.034837  
     220A      2.038977   221A      2.050257   222A      2.062951  
     223A      2.080970   224A      2.089131   225A      2.095344  
     226A      2.108285   227A      2.122986   228A      2.131090  
     229A      2.147515   230A      2.173578   231A      2.180935  
     232A      2.214322   233A      2.289155   234A      2.316394  
     235A      2.347260   236A      2.359788   237A      2.371481  
     238A      2.438359   239A      2.468094   240A      2.584501  
     241A      2.607259   242A      2.623785   243A      2.630776  
     244A      2.635965   245A      2.644815   246A      2.656741  
     247A      2.664211   248A      2.679885   249A      2.694036  
     250A      2.695814   251A      2.704536   252A      2.706399  
     253A      2.720176   254A      2.726966   255A      2.742528  
     256A      2.751892   257A      2.759206   258A      2.770207  
     259A      2.777274   260A      2.782985   261A      2.788806  
     262A      2.801056   263A      2.810554   264A      2.819041  
     265A      2.828692   266A      2.836212   267A      2.848241  
     268A      2.858264   269A      2.870733   270A      2.897065  
     271A      2.908342   272A      2.924969   273A      2.931714  
     274A      2.952801   275A      2.972446   276A      2.984514  
     277A      3.009305   278A      3.018977   279A      3.047364  
     280A      3.066424   281A      3.098072   282A      3.110055  
     283A      3.127225   284A      3.152640   285A      3.158624  
     286A      3.180677   287A      3.205978   288A      3.211370  
     289A      3.287938   290A      3.312802   291A      3.331800  
     292A      3.342839   293A      3.346503   294A      3.352031  
     295A      3.360221   296A      3.376103   297A      3.388731  
     298A      3.394877   299A      3.409427   300A      3.418352  
     301A      3.462262   302A      3.471997   303A      3.492269  
     304A      3.512488   305A      3.523244   306A      3.531338  
     307A      3.548515   308A      3.557302   309A      3.559390  
     310A      3.583396   311A      3.594539   312A      3.629095  
     313A      3.656698   314A      3.657663   315A      3.667669  
     316A      3.686239   317A      3.710549   318A      3.722925  
     319A      3.729969   320A      3.757660   321A      3.769701  
     322A      3.787400   323A      3.804149   324A      3.825568  
     325A      3.868980   326A      3.879925   327A      3.897829  
     328A      3.918837   329A      3.926048   330A      3.974207  
     331A      4.017503   332A      4.063477   333A      4.087159  
     334A      4.151830   335A      4.552615   336A      4.582781  
     337A      4.588557   338A      4.591508   339A      4.600110  
     340A      4.605866   341A      4.624359   342A      4.634431  
     343A      4.645195   344A      4.650452   345A      4.713310  
     346A      4.744849   347A      4.774516   348A      4.795855  
     349A      4.802026   350A      4.806259   351A      4.817032  
     352A      4.827797   353A      4.843269   354A      4.848984  
     355A      4.860339   356A      4.880136   357A      4.886926  
     358A      4.891430   359A      4.915443   360A      4.931335  
     361A      4.985891   362A      5.013474   363A      5.020343  
     364A      5.034452   365A      5.036841   366A      5.051648  
     367A      5.081118   368A      5.092735   369A      5.113197  
     370A      5.124360   371A      5.147282   372A      5.158742  
     373A      5.198355   374A      5.201545   375A      5.220042  
     376A      5.235744   377A      5.281069   378A      5.303669  
     379A      5.339705   380A      5.424631   381A      5.429153  
     382A      5.436225   383A      5.446054   384A      5.518293  
     385A      5.687983   386A      5.694008   387A      5.702104  
     388A      5.709878   389A      5.720267   390A      5.748827  
     391A      5.765161   392A      5.790913   393A      5.803023  
     394A      5.816328   395A      5.826493   396A      5.867014  
     397A      5.906476   398A      5.930521   399A      6.015220  
     400A      6.019800   401A      6.033320   402A      6.051944  
     403A      6.105917   404A      6.123535   405A      6.286137  
     406A      6.328920   407A      6.334412   408A      6.344784  
     409A      6.423889   410A      6.487809   411A      6.592652  
     412A      6.620494   413A      6.642450   414A      6.711914  
     415A      6.732127   416A      6.815653   417A      6.839568  
     418A      6.901290   419A      6.982712   420A      7.161905  
     421A      7.260389   422A      7.279586   423A      7.288334  
     424A      7.437017   425A      7.583033   426A      7.862740  
     427A      7.870147   428A      7.913386   429A      7.916152  
     430A      7.938337   431A      7.973639   432A      8.001889  
     433A      8.011390   434A      8.032559   435A      8.037515  
     436A      8.182667   437A      8.210943   438A      8.244511  
     439A      8.265633   440A      8.282381   441A      8.290278  
     442A      8.350840   443A      8.392625   444A      8.415001  
     445A      8.442568   446A      8.454875   447A      8.495377  
     448A      8.502487   449A      8.506716   450A      8.535211  
     451A      8.806607   452A      8.930711   453A      8.939525  
     454A      8.957620   455A      8.971579   456A      9.072966  
     457A      9.089792   458A      9.140255   459A      9.176862  
     460A      9.464986   461A      9.816745   462A      9.843230  
     463A      9.901209   464A      9.940321   465A      9.977704  
     466A     10.020473   467A     10.029658   468A     10.042431  
     469A     10.057228   470A     10.110888   471A     10.199664  
     472A     10.242376   473A     10.249130   474A     10.278633  
     475A     10.287149   476A     10.412359   477A     10.440190  
     478A     10.449930   479A     10.491180   480A     10.502019  
     481A     11.296098   482A     11.326573   483A     11.335505  
     484A     11.372031   485A     11.455849   486A     11.851031  
     487A     11.925125   488A     11.950348   489A     12.020205  
     490A     12.037478   491A     12.113763   492A     12.309185  
     493A     12.328367   494A     12.354045   495A     12.693592  
     496A     13.629295   497A     13.729248   498A     13.776186  
     499A     13.789401   500A     13.973800   501A     14.010870  
     502A     14.106888   503A     14.152347   504A     14.177915  
     505A     14.287982   506A     64.223665   507A     65.662421  
     508A     66.013266   509A     66.101762   510A     68.686070  

    Final Occupation by Irrep:
              A 
    DOCC [     9 ]
    NA   [     9 ]
    NB   [     9 ]

  @DF-RHF Final Energy:  -459.57357585485966

   => Energetics <=

    Nuclear Repulsion Energy =              0.0000000000000000
    One-Electron Energy =                -641.1275230230128273
    Two-Electron Energy =                 181.5539471681531722
    Total Energy =                       -459.5735758548596550

Computation Completed


Properties will be evaluated at   0.000000,   0.000000,   0.000000 [a0]

Properties computed using the SCF density matrix


 Multipole Moments:

 ------------------------------------------------------------------------------------
     Multipole            Electronic (a.u.)      Nuclear  (a.u.)        Total (a.u.)
 ------------------------------------------------------------------------------------

 L = 1.  Multiply by 2.5417464519 to convert [e a0] to [Debye]
 Dipole X            :          0.0000023            0.0000000            0.0000023
 Dipole Y            :         -0.0000196            0.0000000           -0.0000196
 Dipole Z            :         -0.0002493            0.0000000           -0.0002493
 Magnitude           :                                                    0.0002501

 ------------------------------------------------------------------------------------

*** tstop() called on ddmfs1 at Mon Jan 22 19:49:00 2024
Module time:
	user time   =      92.03 seconds =       1.53 minutes
	system time =       6.01 seconds =       0.10 minutes
	total time  =          6 seconds =       0.10 minutes
Total time:
	user time   =      92.03 seconds =       1.53 minutes
	system time =       6.01 seconds =       0.10 minutes
	total time  =          6 seconds =       0.10 minutes

*** tstart() called on ddmfs1
*** at Mon Jan 22 19:49:00 2024


  //>>>>>>>>>>>>>>>>>>>>>>>>>>>>>>>>>>>//
  //               DFMP2               //
  //<<<<<<<<<<<<<<<<<<<<<<<<<<<<<<<<<<<//

   => Loading Basis Set <=

    Name: (AUG-CC-PVTZ AUX)
    Role: RIFIT
    Keyword: DF_BASIS_MP2
    atoms 1                            entry CL         line   742 file /ddmfs1b/softs/psi4conda/share/psi4/basis/aug-cc-pvtz-ri.gbs 
    atoms 2, 5, 8, 11, 14              entry O          line   264 file /ddmfs1b/softs/psi4conda/share/psi4/basis/aug-cc-pvtz-ri.gbs 
    atoms 3-4, 6-7, 9-10, 12-13, 15-16 entry H          line    30 file /ddmfs1b/softs/psi4conda/share/psi4/basis/aug-cc-pvtz-ri.gbs 

	 --------------------------------------------------------
	                          DF-MP2                         
	      2nd-Order Density-Fitted Moller-Plesset Theory     
	              RMP2 Wavefunction,  20 Threads             
	                                                         
	        Rob Parrish, Justin Turney, Andy Simmonett,      
	           Ed Hohenstein, and C. David Sherrill          
	 --------------------------------------------------------

   => Auxiliary Basis Set <=

  Basis Set: (AUG-CC-PVTZ AUX)
    Blend: AUG-CC-PVTZ-RI
    Number of shells: 317
    Number of basis functions: 1137
    Number of Cartesian functions: 1421
    Spherical Harmonics?: true
    Max angular momentum: 4

	 --------------------------------------------------------
	                 NBF =   510, NAUX =  1137
	 --------------------------------------------------------
	   CLASS    FOCC     OCC    AOCC    AVIR     VIR    FVIR
	   PAIRS       0       9       9     501     501       0
	 --------------------------------------------------------

	-----------------------------------------------------------
	 ==================> DF-MP2 Energies <==================== 
	-----------------------------------------------------------
	 Reference Energy          =    -459.5735758548596550 [Eh]
	 Singles Energy            =      -0.0000000000000000 [Eh]
	 Same-Spin Energy          =      -0.0634685603562331 [Eh]
	 Opposite-Spin Energy      =      -0.1836699202848315 [Eh]
	 Correlation Energy        =      -0.2471384806410646 [Eh]
	 Total Energy              =    -459.8207143355007247 [Eh]
	-----------------------------------------------------------
	 ================> DF-SCS-MP2 Energies <================== 
	-----------------------------------------------------------
	 SCS Same-Spin Scale       =       0.3333333333333333 [-]
	 SCS Opposite-Spin Scale   =       1.2000000000000000 [-]
	 SCS Same-Spin Energy      =      -0.0211561867854110 [Eh]
	 SCS Opposite-Spin Energy  =      -0.2204039043417978 [Eh]
	 SCS Correlation Energy    =      -0.2415600911272088 [Eh]
	 SCS Total Energy          =    -459.8151359459868672 [Eh]
	-----------------------------------------------------------


*** tstop() called on ddmfs1 at Mon Jan 22 19:49:05 2024
Module time:
	user time   =      28.35 seconds =       0.47 minutes
	system time =       1.58 seconds =       0.03 minutes
	total time  =          5 seconds =       0.08 minutes
Total time:
	user time   =     120.40 seconds =       2.01 minutes
	system time =       7.59 seconds =       0.13 minutes
	total time  =         11 seconds =       0.18 minutes

    Psi4 stopped on: Monday, 22 January 2024 07:49PM
    Psi4 wall time for execution: 0:00:11.18

*** Psi4 exiting successfully. Buy a developer a beer!
