
    -----------------------------------------------------------------------
          Psi4: An Open-Source Ab Initio Electronic Structure Package
                               Psi4 1.8.2 release

                         Git: Rev {} zzzzzzz 


    D. G. A. Smith, L. A. Burns, A. C. Simmonett, R. M. Parrish,
    M. C. Schieber, R. Galvelis, P. Kraus, H. Kruse, R. Di Remigio,
    A. Alenaizan, A. M. James, S. Lehtola, J. P. Misiewicz, M. Scheurer,
    R. A. Shaw, J. B. Schriber, Y. Xie, Z. L. Glick, D. A. Sirianni,
    J. S. O'Brien, J. M. Waldrop, A. Kumar, E. G. Hohenstein,
    B. P. Pritchard, B. R. Brooks, H. F. Schaefer III, A. Yu. Sokolov,
    K. Patkowski, A. E. DePrince III, U. Bozkaya, R. A. King,
    F. A. Evangelista, J. M. Turney, T. D. Crawford, C. D. Sherrill,
    J. Chem. Phys. 152(18) 184108 (2020). https://doi.org/10.1063/5.0006002

                            Additional Code Authors
    E. T. Seidl, C. L. Janssen, E. F. Valeev, M. L. Leininger,
    J. F. Gonthier, R. M. Richard, H. R. McAlexander, M. Saitow, X. Wang,
    P. Verma, M. H. Lechner, A. Jiang, S. Behnle, A. G. Heide,
    M. F. Herbst, and D. L. Poole

             Previous Authors, Complete List of Code Contributors,
                       and Citations for Specific Modules
    https://github.com/psi4/psi4/blob/master/codemeta.json
    https://github.com/psi4/psi4/graphs/contributors
    http://psicode.org/psi4manual/master/introduction.html#citing-psifour

    -----------------------------------------------------------------------


    Psi4 started on: Tuesday, 23 January 2024 01:14AM

    Process ID: 123476
    Host:       ddmfs1
    PSIDATADIR: /ddmfs1b/softs/psi4conda/share/psi4
    Memory:     500.0 MiB
    Threads:    20
    
  ==> Input File <==

--------------------------------------------------------------------------
MEMORY 60 GB

molecule dimer {
0 1
Gh(Br)     0.000000     0.000000     0.000000
Gh(O)      1.945893     0.262012    -2.944461
Gh(H)      2.825168     0.000048    -2.764125
Gh(H)      1.492154     0.128599    -2.083365
Gh(O)      1.918090    -2.759463     0.110152
Gh(H)      2.249433    -3.068366     0.986392
Gh(H)      1.495298    -1.822514     0.139316
Gh(O)     -0.118445     3.259334     0.447045
Gh(H)      0.218183     2.360201     0.174258
Gh(H)     -0.788624     3.412072    -0.216775
Gh(O)     -1.467014     0.339355    -3.263026
Gh(H)     -2.372942     0.465663    -2.906747
Gh(H)     -0.878477     0.065588    -2.558990
Gh(O)     -3.316037    -0.369815     0.274592
Gh(H)     -2.663704    -1.042109     0.576311
Gh(H)     -3.997139    -0.433657     0.965591
Gh(O)      3.111664     0.648515     1.096188
Gh(H)      2.163031     0.405322     0.957248
Gh(H)      3.130519     1.210000     1.863659
Gh(O)     -1.031067    -3.136478    -0.817819
Gh(H)     -0.145501    -2.816616    -0.879827
Gh(H)     -1.232430    -3.165983     0.108864
O          0.920696    -0.819222     3.154004
H          1.852436    -0.484491     3.317884
H          0.572531    -0.433290     2.303889

units ang
no_reorient
no_com
symmetry c1
}

set {
basis        aug-cc-pVTZ
scf_type     df
}

energy("mp2")
--------------------------------------------------------------------------

  Memory set to  55.879 GiB by Python driver.

Scratch directory: /ddmfs1a/scratch/
   => Libint2 <=

    Primary   basis highest AM E, G, H:  5, 4, 3
    Auxiliary basis highest AM E, G, H:  6, 5, 4
    Onebody   basis highest AM E, G, H:  6, 5, 4
    Solid Harmonics ordering:            gaussian

*** tstart() called on ddmfs1
*** at Tue Jan 23 01:14:20 2024

   => Loading Basis Set <=

    Name: AUG-CC-PVTZ
    Role: ORBITAL
    Keyword: BASIS
    atoms 1                                                 entry BR         line  4208 file /ddmfs1b/softs/psi4conda/share/psi4/basis/aug-cc-pvtz.gbs 
    atoms 2, 5, 8, 11, 14, 17, 20, 23                       entry O          line   331 file /ddmfs1b/softs/psi4conda/share/psi4/basis/aug-cc-pvtz.gbs 
    atoms 3-4, 6-7, 9-10, 12-13, 15-16, 18-19, 21-22, 24-25 entry H          line    40 file /ddmfs1b/softs/psi4conda/share/psi4/basis/aug-cc-pvtz.gbs 


         ---------------------------------------------------------
                                   SCF
               by Justin Turney, Rob Parrish, Andy Simmonett
                          and Daniel G. A. Smith
                              RHF Reference
                       20 Threads,  57220 MiB Core
         ---------------------------------------------------------

  ==> Geometry <==

    Molecular point group: c1
    Full point group: C1

    Geometry (in Angstrom), charge = 0, multiplicity = 1:

       Center              X                  Y                   Z               Mass       
    ------------   -----------------  -----------------  -----------------  -----------------
      Gh(BR)          0.000000000000     0.000000000000     0.000000000000    78.918337600000
      Gh(O)           1.945893000000     0.262012000000    -2.944461000000    15.994914619570
      Gh(H)           2.825168000000     0.000048000000    -2.764125000000     1.007825032230
      Gh(H)           1.492154000000     0.128599000000    -2.083365000000     1.007825032230
      Gh(O)           1.918090000000    -2.759463000000     0.110152000000    15.994914619570
      Gh(H)           2.249433000000    -3.068366000000     0.986392000000     1.007825032230
      Gh(H)           1.495298000000    -1.822514000000     0.139316000000     1.007825032230
      Gh(O)          -0.118445000000     3.259334000000     0.447045000000    15.994914619570
      Gh(H)           0.218183000000     2.360201000000     0.174258000000     1.007825032230
      Gh(H)          -0.788624000000     3.412072000000    -0.216775000000     1.007825032230
      Gh(O)          -1.467014000000     0.339355000000    -3.263026000000    15.994914619570
      Gh(H)          -2.372942000000     0.465663000000    -2.906747000000     1.007825032230
      Gh(H)          -0.878477000000     0.065588000000    -2.558990000000     1.007825032230
      Gh(O)          -3.316037000000    -0.369815000000     0.274592000000    15.994914619570
      Gh(H)          -2.663704000000    -1.042109000000     0.576311000000     1.007825032230
      Gh(H)          -3.997139000000    -0.433657000000     0.965591000000     1.007825032230
      Gh(O)           3.111664000000     0.648515000000     1.096188000000    15.994914619570
      Gh(H)           2.163031000000     0.405322000000     0.957248000000     1.007825032230
      Gh(H)           3.130519000000     1.210000000000     1.863659000000     1.007825032230
      Gh(O)          -1.031067000000    -3.136478000000    -0.817819000000    15.994914619570
      Gh(H)          -0.145501000000    -2.816616000000    -0.879827000000     1.007825032230
      Gh(H)          -1.232430000000    -3.165983000000     0.108864000000     1.007825032230
         O            0.920696000000    -0.819222000000     3.154004000000    15.994914619570
         H            1.852436000000    -0.484491000000     3.317884000000     1.007825032230
         H            0.572531000000    -0.433290000000     2.303889000000     1.007825032230

  Running in c1 symmetry.

  Rotational constants: A =      0.01698  B =      0.01483  C =      0.01414 [cm^-1]
  Rotational constants: A =    509.15372  B =    444.58458  C =    423.98097 [MHz]
  Nuclear repulsion =    8.791123288777326

  Charge       = 0
  Multiplicity = 1
  Electrons    = 10
  Nalpha       = 5
  Nbeta        = 5

  ==> Algorithm <==

  SCF Algorithm Type is DF.
  DIIS enabled.
  MOM disabled.
  Fractional occupation disabled.
  Guess Type is SAD.
  Energy threshold   = 1.00e-08
  Density threshold  = 1.00e-08
  Integral threshold = 1.00e-12

  ==> Primary Basis <==

  Basis Set: AUG-CC-PVTZ
    Blend: AUG-CC-PVTZ
    Number of shells: 275
    Number of basis functions: 795
    Number of Cartesian functions: 909
    Spherical Harmonics?: true
    Max angular momentum: 3

   => Loading Basis Set <=

    Name: (AUG-CC-PVTZ AUX)
    Role: JKFIT
    Keyword: DF_BASIS_SCF
    atoms 1                                                 entry BR         line  1492 file /ddmfs1b/softs/psi4conda/share/psi4/basis/aug-cc-pvtz-jkfit.gbs 
    atoms 2, 5, 8, 11, 14, 17, 20, 23                       entry O          line   286 file /ddmfs1b/softs/psi4conda/share/psi4/basis/aug-cc-pvtz-jkfit.gbs 
    atoms 3-4, 6-7, 9-10, 12-13, 15-16, 18-19, 21-22, 24-25 entry H          line    70 file /ddmfs1b/softs/psi4conda/share/psi4/basis/aug-cc-pvtz-jkfit.gbs 

  ==> Integral Setup <==

  DFHelper Memory: AOs need 7.282 GiB; user supplied 41.910 GiB. 
  Using in-core AOs.

  ==> MemDFJK: Density-Fitted J/K Matrices <==

    J tasked:                   Yes
    K tasked:                   Yes
    wK tasked:                   No
    OpenMP threads:              20
    Memory [MiB]:             42915
    Algorithm:                 Core
    Schwarz Cutoff:           1E-12
    Mask sparsity (%):      17.7211
    Fitting Condition:        1E-10

   => Auxiliary Basis Set <=

  Basis Set: (AUG-CC-PVTZ AUX)
    Blend: AUG-CC-PVTZ-JKFIT
    Number of shells: 522
    Number of basis functions: 1816
    Number of Cartesian functions: 2257
    Spherical Harmonics?: true
    Max angular momentum: 4

  Minimum eigenvalue in the overlap matrix is 5.5226460995E-05.
  Reciprocal condition number of the overlap matrix is 3.5482691930E-06.
    Using symmetric orthogonalization.

  ==> Pre-Iterations <==

  SCF Guess: Superposition of Atomic Densities via on-the-fly atomic UHF (no occupation information).

   -------------------------
    Irrep   Nso     Nmo    
   -------------------------
     A        795     795 
   -------------------------
    Total     795     795
   -------------------------

  ==> Iterations <==

                           Total Energy        Delta E     RMS |[F,P]|

   @DF-RHF iter SAD:   -75.42293702048940   -7.54229e+01   0.00000e+00 
   @DF-RHF iter   1:   -75.96803850903083   -5.45101e-01   5.85978e-04 DIIS/ADIIS
   @DF-RHF iter   2:   -76.01907783446312   -5.10393e-02   4.16133e-04 DIIS/ADIIS
   @DF-RHF iter   3:   -76.05343223073382   -3.43544e-02   2.84845e-05 DIIS
   @DF-RHF iter   4:   -76.05388939837975   -4.57168e-04   7.45501e-06 DIIS
   @DF-RHF iter   5:   -76.05392407326150   -3.46749e-05   1.74760e-06 DIIS
   @DF-RHF iter   6:   -76.05392710450610   -3.03124e-06   3.93079e-07 DIIS
   @DF-RHF iter   7:   -76.05392727107002   -1.66564e-07   7.31822e-08 DIIS
   @DF-RHF iter   8:   -76.05392727607520   -5.00518e-09   1.29680e-08 DIIS
   @DF-RHF iter   9:   -76.05392727620719   -1.31990e-10   3.48762e-09 DIIS
  Energy and wave function converged.


  ==> Post-Iterations <==

    Orbital Energies [Eh]
    ---------------------

    Doubly Occupied:                                                      

       1A    -20.571916     2A     -1.329290     3A     -0.703594  
       4A     -0.567098     5A     -0.505354  

    Virtual:                                                              

       6A      0.012470     7A      0.026721     8A      0.030945  
       9A      0.034139    10A      0.046970    11A      0.048182  
      12A      0.051667    13A      0.056669    14A      0.060324  
      15A      0.064602    16A      0.072947    17A      0.073795  
      18A      0.080488    19A      0.084228    20A      0.089495  
      21A      0.094752    22A      0.103144    23A      0.112152  
      24A      0.114304    25A      0.119828    26A      0.125786  
      27A      0.135055    28A      0.142727    29A      0.147695  
      30A      0.149847    31A      0.154467    32A      0.156684  
      33A      0.163539    34A      0.164923    35A      0.170323  
      36A      0.175170    37A      0.178739    38A      0.182980  
      39A      0.184239    40A      0.187662    41A      0.189694  
      42A      0.193346    43A      0.195344    44A      0.201225  
      45A      0.210451    46A      0.216846    47A      0.217501  
      48A      0.223799    49A      0.230464    50A      0.232319  
      51A      0.234117    52A      0.244480    53A      0.248198  
      54A      0.252907    55A      0.259886    56A      0.262940  
      57A      0.266563    58A      0.273390    59A      0.274753  
      60A      0.286019    61A      0.289616    62A      0.297489  
      63A      0.301187    64A      0.309949    65A      0.312596  
      66A      0.316722    67A      0.318939    68A      0.327498  
      69A      0.331192    70A      0.333692    71A      0.346708  
      72A      0.348206    73A      0.350225    74A      0.355871  
      75A      0.357156    76A      0.365424    77A      0.366925  
      78A      0.372039    79A      0.374655    80A      0.380319  
      81A      0.385188    82A      0.391235    83A      0.392694  
      84A      0.393767    85A      0.397883    86A      0.401175  
      87A      0.405336    88A      0.411317    89A      0.416335  
      90A      0.423059    91A      0.424134    92A      0.429716  
      93A      0.431146    94A      0.437584    95A      0.442948  
      96A      0.451876    97A      0.453984    98A      0.456459  
      99A      0.464727   100A      0.465275   101A      0.469578  
     102A      0.472471   103A      0.474528   104A      0.483772  
     105A      0.490180   106A      0.492706   107A      0.498956  
     108A      0.509576   109A      0.515997   110A      0.520105  
     111A      0.524954   112A      0.539194   113A      0.539429  
     114A      0.551665   115A      0.557659   116A      0.563369  
     117A      0.575389   118A      0.594729   119A      0.595830  
     120A      0.597925   121A      0.606464   122A      0.613403  
     123A      0.621820   124A      0.632310   125A      0.646812  
     126A      0.654054   127A      0.661920   128A      0.667456  
     129A      0.669944   130A      0.689018   131A      0.695938  
     132A      0.701338   133A      0.707874   134A      0.715797  
     135A      0.718696   136A      0.726460   137A      0.733857  
     138A      0.740139   139A      0.742652   140A      0.746329  
     141A      0.753394   142A      0.760728   143A      0.764445  
     144A      0.768066   145A      0.776110   146A      0.781808  
     147A      0.786290   148A      0.791212   149A      0.799813  
     150A      0.805919   151A      0.807582   152A      0.815095  
     153A      0.818847   154A      0.820956   155A      0.831321  
     156A      0.835565   157A      0.838127   158A      0.842073  
     159A      0.846132   160A      0.847912   161A      0.852427  
     162A      0.856523   163A      0.866415   164A      0.868558  
     165A      0.871183   166A      0.877644   167A      0.881349  
     168A      0.882321   169A      0.890886   170A      0.898086  
     171A      0.899534   172A      0.900932   173A      0.902544  
     174A      0.909769   175A      0.912163   176A      0.914681  
     177A      0.918319   178A      0.921858   179A      0.928858  
     180A      0.932635   181A      0.944805   182A      0.946233  
     183A      0.948826   184A      0.955649   185A      0.957770  
     186A      0.962772   187A      0.964610   188A      0.970176  
     189A      0.975995   190A      0.977905   191A      0.978654  
     192A      0.988284   193A      0.991856   194A      0.995142  
     195A      1.002217   196A      1.007474   197A      1.015696  
     198A      1.022932   199A      1.024341   200A      1.026594  
     201A      1.031303   202A      1.034567   203A      1.043611  
     204A      1.047499   205A      1.052849   206A      1.055344  
     207A      1.058536   208A      1.065298   209A      1.071506  
     210A      1.077435   211A      1.080953   212A      1.085103  
     213A      1.092158   214A      1.094844   215A      1.098367  
     216A      1.104610   217A      1.106238   218A      1.112216  
     219A      1.119714   220A      1.124134   221A      1.129466  
     222A      1.135178   223A      1.142610   224A      1.147976  
     225A      1.154484   226A      1.157994   227A      1.163269  
     228A      1.167027   229A      1.171231   230A      1.180540  
     231A      1.180909   232A      1.187138   233A      1.190255  
     234A      1.196960   235A      1.199672   236A      1.202637  
     237A      1.209013   238A      1.218951   239A      1.221310  
     240A      1.226948   241A      1.234779   242A      1.244568  
     243A      1.247599   244A      1.256469   245A      1.268114  
     246A      1.274165   247A      1.277919   248A      1.285506  
     249A      1.288609   250A      1.298081   251A      1.301737  
     252A      1.306204   253A      1.316036   254A      1.325794  
     255A      1.326898   256A      1.339935   257A      1.342956  
     258A      1.355368   259A      1.359396   260A      1.365315  
     261A      1.375973   262A      1.378929   263A      1.385732  
     264A      1.393373   265A      1.403453   266A      1.406755  
     267A      1.415449   268A      1.423293   269A      1.433597  
     270A      1.446099   271A      1.458699   272A      1.463041  
     273A      1.472668   274A      1.484628   275A      1.488239  
     276A      1.498621   277A      1.508176   278A      1.517550  
     279A      1.521942   280A      1.529857   281A      1.535784  
     282A      1.541099   283A      1.549423   284A      1.559416  
     285A      1.560497   286A      1.570339   287A      1.582760  
     288A      1.586196   289A      1.590963   290A      1.599884  
     291A      1.607195   292A      1.613050   293A      1.620969  
     294A      1.628885   295A      1.638056   296A      1.642636  
     297A      1.662970   298A      1.668360   299A      1.688612  
     300A      1.702254   301A      1.706611   302A      1.712526  
     303A      1.727510   304A      1.736676   305A      1.747750  
     306A      1.756904   307A      1.769050   308A      1.770628  
     309A      1.781570   310A      1.790112   311A      1.795192  
     312A      1.797247   313A      1.798043   314A      1.805613  
     315A      1.819778   316A      1.820532   317A      1.831965  
     318A      1.835896   319A      1.840362   320A      1.852081  
     321A      1.859249   322A      1.865902   323A      1.872403  
     324A      1.876889   325A      1.885855   326A      1.897128  
     327A      1.897803   328A      1.904846   329A      1.912226  
     330A      1.917653   331A      1.922259   332A      1.929415  
     333A      1.941478   334A      1.950314   335A      1.960814  
     336A      1.963428   337A      1.971723   338A      1.983690  
     339A      1.994588   340A      1.998874   341A      2.005029  
     342A      2.006880   343A      2.036529   344A      2.043983  
     345A      2.052474   346A      2.055748   347A      2.072310  
     348A      2.081405   349A      2.086208   350A      2.109574  
     351A      2.118583   352A      2.125924   353A      2.135606  
     354A      2.160736   355A      2.188328   356A      2.219957  
     357A      2.223398   358A      2.236791   359A      2.291744  
     360A      2.297272   361A      2.316704   362A      2.396581  
     363A      2.436450   364A      2.453571   365A      2.460091  
     366A      2.468625   367A      2.478000   368A      2.481132  
     369A      2.499891   370A      2.504577   371A      2.509218  
     372A      2.513651   373A      2.519161   374A      2.527204  
     375A      2.535271   376A      2.537377   377A      2.545440  
     378A      2.563770   379A      2.569241   380A      2.574005  
     381A      2.584393   382A      2.594674   383A      2.597902  
     384A      2.598285   385A      2.601785   386A      2.611589  
     387A      2.626514   388A      2.629148   389A      2.640405  
     390A      2.646855   391A      2.651773   392A      2.655849  
     393A      2.663616   394A      2.673334   395A      2.680893  
     396A      2.685358   397A      2.691480   398A      2.696936  
     399A      2.704578   400A      2.713800   401A      2.715957  
     402A      2.729166   403A      2.739251   404A      2.743930  
     405A      2.752225   406A      2.764805   407A      2.776499  
     408A      2.779247   409A      2.787234   410A      2.798106  
     411A      2.803297   412A      2.807729   413A      2.809898  
     414A      2.819040   415A      2.826567   416A      2.835487  
     417A      2.853429   418A      2.860896   419A      2.869901  
     420A      2.878373   421A      2.887025   422A      2.900516  
     423A      2.918244   424A      2.934691   425A      2.937921  
     426A      2.953788   427A      2.966743   428A      2.988682  
     429A      2.993272   430A      2.999659   431A      3.022250  
     432A      3.027884   433A      3.047258   434A      3.057504  
     435A      3.079513   436A      3.108725   437A      3.127030  
     438A      3.178244   439A      3.191209   440A      3.205401  
     441A      3.207892   442A      3.219084   443A      3.226410  
     444A      3.235147   445A      3.242337   446A      3.251182  
     447A      3.258907   448A      3.265096   449A      3.278112  
     450A      3.281568   451A      3.289876   452A      3.294693  
     453A      3.306471   454A      3.320888   455A      3.328446  
     456A      3.334985   457A      3.355558   458A      3.364353  
     459A      3.376898   460A      3.393815   461A      3.398795  
     462A      3.423407   463A      3.436686   464A      3.454615  
     465A      3.460491   466A      3.475881   467A      3.490286  
     468A      3.499856   469A      3.509934   470A      3.515710  
     471A      3.526370   472A      3.546117   473A      3.561892  
     474A      3.568054   475A      3.585922   476A      3.600851  
     477A      3.615680   478A      3.617260   479A      3.628013  
     480A      3.638482   481A      3.643764   482A      3.662301  
     483A      3.670058   484A      3.696541   485A      3.702750  
     486A      3.726685   487A      3.738039   488A      3.745037  
     489A      3.767868   490A      3.788384   491A      3.794842  
     492A      3.804437   493A      3.817143   494A      3.839667  
     495A      3.848545   496A      3.862272   497A      3.883303  
     498A      3.915546   499A      3.955680   500A      3.969766  
     501A      3.988104   502A      4.006584   503A      4.078115  
     504A      4.139660   505A      4.270146   506A      4.322442  
     507A      4.336265   508A      4.353012   509A      4.387998  
     510A      4.415107   511A      4.423156   512A      4.438939  
     513A      4.440933   514A      4.464189   515A      4.467417  
     516A      4.473240   517A      4.482036   518A      4.483765  
     519A      4.500267   520A      4.501370   521A      4.506662  
     522A      4.519808   523A      4.531869   524A      4.537772  
     525A      4.541131   526A      4.547098   527A      4.560969  
     528A      4.572294   529A      4.577931   530A      4.585451  
     531A      4.589260   532A      4.615597   533A      4.628703  
     534A      4.637739   535A      4.648079   536A      4.649399  
     537A      4.664025   538A      4.674746   539A      4.685894  
     540A      4.704822   541A      4.712999   542A      4.720882  
     543A      4.729903   544A      4.736952   545A      4.751600  
     546A      4.756097   547A      4.762939   548A      4.775288  
     549A      4.782522   550A      4.794340   551A      4.835724  
     552A      4.855035   553A      4.874646   554A      4.885206  
     555A      4.897446   556A      4.902941   557A      4.915260  
     558A      4.937124   559A      4.941245   560A      4.943442  
     561A      4.956597   562A      4.964781   563A      4.971298  
     564A      4.983214   565A      4.988398   566A      4.995300  
     567A      4.997528   568A      5.021839   569A      5.038701  
     570A      5.046414   571A      5.054754   572A      5.077355  
     573A      5.088935   574A      5.096580   575A      5.124227  
     576A      5.127035   577A      5.161785   578A      5.179702  
     579A      5.202563   580A      5.230649   581A      5.248635  
     582A      5.256280   583A      5.286917   584A      5.304931  
     585A      5.318426   586A      5.325640   587A      5.347554  
     588A      5.371244   589A      5.378928   590A      5.427574  
     591A      5.445789   592A      5.463362   593A      5.502361  
     594A      5.524772   595A      5.526911   596A      5.534581  
     597A      5.555341   598A      5.557526   599A      5.578244  
     600A      5.593924   601A      5.596555   602A      5.608100  
     603A      5.617159   604A      5.629892   605A      5.665402  
     606A      5.685007   607A      5.686831   608A      5.691845  
     609A      5.707273   610A      5.738810   611A      5.746256  
     612A      5.784384   613A      5.794827   614A      5.824427  
     615A      5.886662   616A      5.893125   617A      5.912502  
     618A      5.938634   619A      5.962797   620A      6.148456  
     621A      6.154215   622A      6.165568   623A      6.170313  
     624A      6.184921   625A      6.200714   626A      6.215197  
     627A      6.254371   628A      6.364494   629A      6.369050  
     630A      6.375705   631A      6.384233   632A      6.479465  
     633A      6.520913   634A      6.546998   635A      6.589286  
     636A      6.601440   637A      6.641400   638A      6.721559  
     639A      6.758105   640A      6.764185   641A      6.781396  
     642A      6.799218   643A      6.814806   644A      6.898494  
     645A      6.964442   646A      7.020884   647A      7.041723  
     648A      7.082250   649A      7.102494   650A      7.150248  
     651A      7.173372   652A      7.218881   653A      7.259930  
     654A      7.328459   655A      7.375166   656A      7.446205  
     657A      7.503211   658A      7.709852   659A      7.719967  
     660A      7.728403   661A      7.733026   662A      7.738731  
     663A      7.771385   664A      7.777588   665A      7.803347  
     666A      7.823331   667A      7.831755   668A      7.847198  
     669A      7.855528   670A      7.886439   671A      7.891399  
     672A      7.900644   673A      7.920926   674A      7.993841  
     675A      8.027018   676A      8.049380   677A      8.098925  
     678A      8.102482   679A      8.113283   680A      8.140867  
     681A      8.148810   682A      8.171406   683A      8.193551  
     684A      8.210371   685A      8.238161   686A      8.255080  
     687A      8.267965   688A      8.276743   689A      8.288542  
     690A      8.302343   691A      8.313755   692A      8.317551  
     693A      8.328163   694A      8.347482   695A      8.433487  
     696A      8.593337   697A      8.605985   698A      8.688952  
     699A      8.745012   700A      8.755058   701A      8.796695  
     702A      8.799520   703A      8.836959   704A      8.857673  
     705A      8.875446   706A      8.919544   707A      8.970416  
     708A      8.978473   709A      9.028684   710A      9.043238  
     711A      9.679078   712A      9.695705   713A      9.743507  
     714A      9.768822   715A      9.773604   716A      9.854856  
     717A      9.863072   718A      9.866914   719A      9.899910  
     720A      9.912306   721A      9.918663   722A      9.945662  
     723A      9.952639   724A      9.979600   725A     10.053228  
     726A     10.075462   727A     10.077297   728A     10.091339  
     729A     10.114368   730A     10.132359   731A     10.147376  
     732A     10.253152   733A     10.282757   734A     10.317727  
     735A     10.331734   736A     10.336530   737A     10.344433  
     738A     10.439712   739A     10.868302   740A     11.116170  
     741A     11.130783   742A     11.147063   743A     11.150120  
     744A     11.225488   745A     11.330491   746A     11.671341  
     747A     11.733242   748A     11.740012   749A     11.771920  
     750A     11.797051   751A     11.822882   752A     11.827880  
     753A     11.926698   754A     11.948386   755A     11.998566  
     756A     12.065619   757A     12.122416   758A     12.173818  
     759A     12.305811   760A     12.377293   761A     13.392638  
     762A     13.545917   763A     13.572334   764A     13.576769  
     765A     13.654069   766A     13.710334   767A     13.817707  
     768A     13.907882   769A     13.931239   770A     13.955076  
     771A     13.966197   772A     13.983979   773A     14.002769  
     774A     14.084183   775A     14.115519   776A     14.177538  
     777A     14.207654   778A     15.586256   779A     26.419516  
     780A     26.578446   781A     26.614238   782A     26.720170  
     783A     26.897849   784A     47.084728   785A     64.172595  
     786A     64.546453   787A     65.075709   788A     65.897092  
     789A     66.121806   790A     66.548970   791A     67.488506  
     792A    139.393219   793A    139.465233   794A    139.547168  
     795A    713.596855  

    Final Occupation by Irrep:
              A 
    DOCC [     5 ]
    NA   [     5 ]
    NB   [     5 ]

  @DF-RHF Final Energy:   -76.05392727620719

   => Energetics <=

    Nuclear Repulsion Energy =              8.7911232887773263
    One-Electron Energy =                -122.3355944735200183
    Two-Electron Energy =                  37.4905439085355070
    Total Energy =                        -76.0539272762071903

Computation Completed


Properties will be evaluated at   0.000000,   0.000000,   0.000000 [a0]

Properties computed using the SCF density matrix


 Multipole Moments:

 ------------------------------------------------------------------------------------
     Multipole            Electronic (a.u.)      Nuclear  (a.u.)        Total (a.u.)
 ------------------------------------------------------------------------------------

 L = 1.  Multiply by 2.5417464519 to convert [e a0] to [Debye]
 Dipole X            :        -18.1189054           18.5014298            0.3825244
 Dipole Y            :         14.5932683          -14.1191965            0.4740719
 Dipole Z            :        -58.7571678           58.3052414           -0.4519264
 Magnitude           :                                                    0.7584896

 ------------------------------------------------------------------------------------

*** tstop() called on ddmfs1 at Tue Jan 23 01:14:40 2024
Module time:
	user time   =     288.31 seconds =       4.81 minutes
	system time =      14.09 seconds =       0.23 minutes
	total time  =         20 seconds =       0.33 minutes
Total time:
	user time   =     288.31 seconds =       4.81 minutes
	system time =      14.09 seconds =       0.23 minutes
	total time  =         20 seconds =       0.33 minutes

*** tstart() called on ddmfs1
*** at Tue Jan 23 01:14:40 2024


  //>>>>>>>>>>>>>>>>>>>>>>>>>>>>>>>>>>>//
  //               DFMP2               //
  //<<<<<<<<<<<<<<<<<<<<<<<<<<<<<<<<<<<//

   => Loading Basis Set <=

    Name: (AUG-CC-PVTZ AUX)
    Role: RIFIT
    Keyword: DF_BASIS_MP2
    atoms 1                                                 entry BR         line  1248 file /ddmfs1b/softs/psi4conda/share/psi4/basis/aug-cc-pvtz-ri.gbs 
    atoms 2, 5, 8, 11, 14, 17, 20, 23                       entry O          line   264 file /ddmfs1b/softs/psi4conda/share/psi4/basis/aug-cc-pvtz-ri.gbs 
    atoms 3-4, 6-7, 9-10, 12-13, 15-16, 18-19, 21-22, 24-25 entry H          line    30 file /ddmfs1b/softs/psi4conda/share/psi4/basis/aug-cc-pvtz-ri.gbs 

	 --------------------------------------------------------
	                          DF-MP2                         
	      2nd-Order Density-Fitted Moller-Plesset Theory     
	              RMP2 Wavefunction,  20 Threads             
	                                                         
	        Rob Parrish, Justin Turney, Andy Simmonett,      
	           Ed Hohenstein, and C. David Sherrill          
	 --------------------------------------------------------

   => Auxiliary Basis Set <=

  Basis Set: (AUG-CC-PVTZ AUX)
    Blend: AUG-CC-PVTZ-RI
    Number of shells: 491
    Number of basis functions: 1775
    Number of Cartesian functions: 2229
    Spherical Harmonics?: true
    Max angular momentum: 5

	 --------------------------------------------------------
	                 NBF =   795, NAUX =  1775
	 --------------------------------------------------------
	   CLASS    FOCC     OCC    AOCC    AVIR     VIR    FVIR
	   PAIRS       0       5       5     790     790       0
	 --------------------------------------------------------

	-----------------------------------------------------------
	 ==================> DF-MP2 Energies <==================== 
	-----------------------------------------------------------
	 Reference Energy          =     -76.0539272762071903 [Eh]
	 Singles Energy            =      -0.0000000000000000 [Eh]
	 Same-Spin Energy          =      -0.0690816328125178 [Eh]
	 Opposite-Spin Energy      =      -0.2180831822989263 [Eh]
	 Correlation Energy        =      -0.2871648151114441 [Eh]
	 Total Energy              =     -76.3410920913186288 [Eh]
	-----------------------------------------------------------
	 ================> DF-SCS-MP2 Energies <================== 
	-----------------------------------------------------------
	 SCS Same-Spin Scale       =       0.3333333333333333 [-]
	 SCS Opposite-Spin Scale   =       1.2000000000000000 [-]
	 SCS Same-Spin Energy      =      -0.0230272109375059 [Eh]
	 SCS Opposite-Spin Energy  =      -0.2616998187587116 [Eh]
	 SCS Correlation Energy    =      -0.2847270296962175 [Eh]
	 SCS Total Energy          =     -76.3386543059034040 [Eh]
	-----------------------------------------------------------


*** tstop() called on ddmfs1 at Tue Jan 23 01:15:00 2024
Module time:
	user time   =      73.98 seconds =       1.23 minutes
	system time =       4.63 seconds =       0.08 minutes
	total time  =         20 seconds =       0.33 minutes
Total time:
	user time   =     362.30 seconds =       6.04 minutes
	system time =      18.72 seconds =       0.31 minutes
	total time  =         40 seconds =       0.67 minutes

    Psi4 stopped on: Tuesday, 23 January 2024 01:15AM
    Psi4 wall time for execution: 0:00:40.93

*** Psi4 exiting successfully. Buy a developer a beer!
