
    -----------------------------------------------------------------------
          Psi4: An Open-Source Ab Initio Electronic Structure Package
                               Psi4 1.8.2 release

                         Git: Rev {} zzzzzzz 


    D. G. A. Smith, L. A. Burns, A. C. Simmonett, R. M. Parrish,
    M. C. Schieber, R. Galvelis, P. Kraus, H. Kruse, R. Di Remigio,
    A. Alenaizan, A. M. James, S. Lehtola, J. P. Misiewicz, M. Scheurer,
    R. A. Shaw, J. B. Schriber, Y. Xie, Z. L. Glick, D. A. Sirianni,
    J. S. O'Brien, J. M. Waldrop, A. Kumar, E. G. Hohenstein,
    B. P. Pritchard, B. R. Brooks, H. F. Schaefer III, A. Yu. Sokolov,
    K. Patkowski, A. E. DePrince III, U. Bozkaya, R. A. King,
    F. A. Evangelista, J. M. Turney, T. D. Crawford, C. D. Sherrill,
    J. Chem. Phys. 152(18) 184108 (2020). https://doi.org/10.1063/5.0006002

                            Additional Code Authors
    E. T. Seidl, C. L. Janssen, E. F. Valeev, M. L. Leininger,
    J. F. Gonthier, R. M. Richard, H. R. McAlexander, M. Saitow, X. Wang,
    P. Verma, M. H. Lechner, A. Jiang, S. Behnle, A. G. Heide,
    M. F. Herbst, and D. L. Poole

             Previous Authors, Complete List of Code Contributors,
                       and Citations for Specific Modules
    https://github.com/psi4/psi4/blob/master/codemeta.json
    https://github.com/psi4/psi4/graphs/contributors
    http://psicode.org/psi4manual/master/introduction.html#citing-psifour

    -----------------------------------------------------------------------


    Psi4 started on: Tuesday, 23 January 2024 01:23AM

    Process ID: 123929
    Host:       ddmfs1
    PSIDATADIR: /ddmfs1b/softs/psi4conda/share/psi4
    Memory:     500.0 MiB
    Threads:    20
    
  ==> Input File <==

--------------------------------------------------------------------------
MEMORY 60 GB

molecule dimer {
0 1
Gh(Br)     0.000000     0.000000     0.000000
Gh(O)     -0.589641     1.981122    -2.700950
Gh(H)     -0.352083     1.498565    -1.927478
Gh(H)      0.291278     2.138304    -3.079812
Gh(O)     -0.614349     3.140419     0.660389
Gh(H)     -1.466447     3.242082     0.197508
Gh(H)     -0.129896     2.300579     0.382244
O          1.920213    -0.518193     2.687699
H          2.197835     0.425939     2.874306
H          1.083802    -0.483503     2.156645
Gh(O)     -1.496158    -2.247040     1.826228
Gh(H)     -1.236232    -1.353537     1.456673
Gh(H)     -0.761899    -2.827253     1.477870
Gh(O)     -0.445692     1.514137     3.176920
Gh(H)     -0.182736     0.818354     3.872867
Gh(H)     -0.524766     1.099695     2.328947
Gh(O)     -3.061657     0.895335    -0.093977
Gh(H)     -2.099177     0.663244     0.089351
Gh(H)     -3.264239     0.403587    -0.926203

units ang
no_reorient
no_com
symmetry c1
}

set {
basis        aug-cc-pVTZ
scf_type     df
}

energy("mp2")
--------------------------------------------------------------------------

  Memory set to  55.879 GiB by Python driver.

Scratch directory: /ddmfs1a/scratch/
   => Libint2 <=

    Primary   basis highest AM E, G, H:  5, 4, 3
    Auxiliary basis highest AM E, G, H:  6, 5, 4
    Onebody   basis highest AM E, G, H:  6, 5, 4
    Solid Harmonics ordering:            gaussian

*** tstart() called on ddmfs1
*** at Tue Jan 23 01:23:38 2024

   => Loading Basis Set <=

    Name: AUG-CC-PVTZ
    Role: ORBITAL
    Keyword: BASIS
    atoms 1                                   entry BR         line  4208 file /ddmfs1b/softs/psi4conda/share/psi4/basis/aug-cc-pvtz.gbs 
    atoms 2, 5, 8, 11, 14, 17                 entry O          line   331 file /ddmfs1b/softs/psi4conda/share/psi4/basis/aug-cc-pvtz.gbs 
    atoms 3-4, 6-7, 9-10, 12-13, 15-16, 18-19 entry H          line    40 file /ddmfs1b/softs/psi4conda/share/psi4/basis/aug-cc-pvtz.gbs 


         ---------------------------------------------------------
                                   SCF
               by Justin Turney, Rob Parrish, Andy Simmonett
                          and Daniel G. A. Smith
                              RHF Reference
                       20 Threads,  57220 MiB Core
         ---------------------------------------------------------

  ==> Geometry <==

    Molecular point group: c1
    Full point group: C1

    Geometry (in Angstrom), charge = 0, multiplicity = 1:

       Center              X                  Y                   Z               Mass       
    ------------   -----------------  -----------------  -----------------  -----------------
      Gh(BR)          0.000000000000     0.000000000000     0.000000000000    78.918337600000
      Gh(O)          -0.589641000000     1.981122000000    -2.700950000000    15.994914619570
      Gh(H)          -0.352083000000     1.498565000000    -1.927478000000     1.007825032230
      Gh(H)           0.291278000000     2.138304000000    -3.079812000000     1.007825032230
      Gh(O)          -0.614349000000     3.140419000000     0.660389000000    15.994914619570
      Gh(H)          -1.466447000000     3.242082000000     0.197508000000     1.007825032230
      Gh(H)          -0.129896000000     2.300579000000     0.382244000000     1.007825032230
         O            1.920213000000    -0.518193000000     2.687699000000    15.994914619570
         H            2.197835000000     0.425939000000     2.874306000000     1.007825032230
         H            1.083802000000    -0.483503000000     2.156645000000     1.007825032230
      Gh(O)          -1.496158000000    -2.247040000000     1.826228000000    15.994914619570
      Gh(H)          -1.236232000000    -1.353537000000     1.456673000000     1.007825032230
      Gh(H)          -0.761899000000    -2.827253000000     1.477870000000     1.007825032230
      Gh(O)          -0.445692000000     1.514137000000     3.176920000000    15.994914619570
      Gh(H)          -0.182736000000     0.818354000000     3.872867000000     1.007825032230
      Gh(H)          -0.524766000000     1.099695000000     2.328947000000     1.007825032230
      Gh(O)          -3.061657000000     0.895335000000    -0.093977000000    15.994914619570
      Gh(H)          -2.099177000000     0.663244000000     0.089351000000     1.007825032230
      Gh(H)          -3.264239000000     0.403587000000    -0.926203000000     1.007825032230

  Running in c1 symmetry.

  Rotational constants: A =      0.02714  B =      0.02078  C =      0.01807 [cm^-1]
  Rotational constants: A =    813.49469  B =    622.93906  C =    541.78313 [MHz]
  Nuclear repulsion =    8.826027231360341

  Charge       = 0
  Multiplicity = 1
  Electrons    = 10
  Nalpha       = 5
  Nbeta        = 5

  ==> Algorithm <==

  SCF Algorithm Type is DF.
  DIIS enabled.
  MOM disabled.
  Fractional occupation disabled.
  Guess Type is SAD.
  Energy threshold   = 1.00e-08
  Density threshold  = 1.00e-08
  Integral threshold = 1.00e-12

  ==> Primary Basis <==

  Basis Set: AUG-CC-PVTZ
    Blend: AUG-CC-PVTZ
    Number of shells: 211
    Number of basis functions: 611
    Number of Cartesian functions: 699
    Spherical Harmonics?: true
    Max angular momentum: 3

   => Loading Basis Set <=

    Name: (AUG-CC-PVTZ AUX)
    Role: JKFIT
    Keyword: DF_BASIS_SCF
    atoms 1                                   entry BR         line  1492 file /ddmfs1b/softs/psi4conda/share/psi4/basis/aug-cc-pvtz-jkfit.gbs 
    atoms 2, 5, 8, 11, 14, 17                 entry O          line   286 file /ddmfs1b/softs/psi4conda/share/psi4/basis/aug-cc-pvtz-jkfit.gbs 
    atoms 3-4, 6-7, 9-10, 12-13, 15-16, 18-19 entry H          line    70 file /ddmfs1b/softs/psi4conda/share/psi4/basis/aug-cc-pvtz-jkfit.gbs 

  ==> Integral Setup <==

  DFHelper Memory: AOs need 3.627 GiB; user supplied 41.910 GiB. 
  Using in-core AOs.

  ==> MemDFJK: Density-Fitted J/K Matrices <==

    J tasked:                   Yes
    K tasked:                   Yes
    wK tasked:                   No
    OpenMP threads:              20
    Memory [MiB]:             42915
    Algorithm:                 Core
    Schwarz Cutoff:           1E-12
    Mask sparsity (%):      12.1145
    Fitting Condition:        1E-10

   => Auxiliary Basis Set <=

  Basis Set: (AUG-CC-PVTZ AUX)
    Blend: AUG-CC-PVTZ-JKFIT
    Number of shells: 406
    Number of basis functions: 1424
    Number of Cartesian functions: 1775
    Spherical Harmonics?: true
    Max angular momentum: 4

  Minimum eigenvalue in the overlap matrix is 8.4070165670E-05.
  Reciprocal condition number of the overlap matrix is 5.5379247142E-06.
    Using symmetric orthogonalization.

  ==> Pre-Iterations <==

  SCF Guess: Superposition of Atomic Densities via on-the-fly atomic UHF (no occupation information).

   -------------------------
    Irrep   Nso     Nmo    
   -------------------------
     A        611     611 
   -------------------------
    Total     611     611
   -------------------------

  ==> Iterations <==

                           Total Energy        Delta E     RMS |[F,P]|

   @DF-RHF iter SAD:   -75.42892773050198   -7.54289e+01   0.00000e+00 
   @DF-RHF iter   1:   -75.96916373119191   -5.40236e-01   7.62631e-04 DIIS/ADIIS
   @DF-RHF iter   2:   -76.02037667373901   -5.12129e-02   5.40496e-04 DIIS/ADIIS
   @DF-RHF iter   3:   -76.05457786039476   -3.42012e-02   3.69851e-05 DIIS
   @DF-RHF iter   4:   -76.05502712293216   -4.49263e-04   9.59128e-06 DIIS
   @DF-RHF iter   5:   -76.05506064084040   -3.35179e-05   2.24325e-06 DIIS
   @DF-RHF iter   6:   -76.05506354146641   -2.90063e-06   4.99531e-07 DIIS
   @DF-RHF iter   7:   -76.05506369738032   -1.55914e-07   9.09850e-08 DIIS
   @DF-RHF iter   8:   -76.05506370185759   -4.47727e-09   1.61144e-08 DIIS
   @DF-RHF iter   9:   -76.05506370197506   -1.17467e-10   4.30681e-09 DIIS
  Energy and wave function converged.


  ==> Post-Iterations <==

    Orbital Energies [Eh]
    ---------------------

    Doubly Occupied:                                                      

       1A    -20.572400     2A     -1.332227     3A     -0.702010  
       4A     -0.571625     5A     -0.506290  

    Virtual:                                                              

       6A      0.013584     7A      0.031533     8A      0.033282  
       9A      0.037961    10A      0.051467    11A      0.053280  
      12A      0.056948    13A      0.064069    14A      0.071024  
      15A      0.077420    16A      0.082568    17A      0.087037  
      18A      0.089321    19A      0.102583    20A      0.115327  
      21A      0.125339    22A      0.134082    23A      0.139384  
      24A      0.142558    25A      0.147335    26A      0.150016  
      27A      0.156587    28A      0.160645    29A      0.166116  
      30A      0.175238    31A      0.181154    32A      0.186747  
      33A      0.192103    34A      0.195502    35A      0.197746  
      36A      0.204210    37A      0.206162    38A      0.208825  
      39A      0.213523    40A      0.226887    41A      0.229429  
      42A      0.232499    43A      0.239871    44A      0.250227  
      45A      0.255444    46A      0.258835    47A      0.273734  
      48A      0.282755    49A      0.285922    50A      0.295420  
      51A      0.304100    52A      0.312684    53A      0.314536  
      54A      0.321874    55A      0.327874    56A      0.329604  
      57A      0.332281    58A      0.337991    59A      0.345523  
      60A      0.357307    61A      0.360699    62A      0.365774  
      63A      0.368133    64A      0.373249    65A      0.384742  
      66A      0.388896    67A      0.396189    68A      0.399176  
      69A      0.402066    70A      0.412295    71A      0.413607  
      72A      0.418596    73A      0.423011    74A      0.429450  
      75A      0.434050    76A      0.437604    77A      0.448304  
      78A      0.455383    79A      0.460363    80A      0.466443  
      81A      0.473446    82A      0.484612    83A      0.488238  
      84A      0.492599    85A      0.499767    86A      0.505310  
      87A      0.513638    88A      0.525560    89A      0.529713  
      90A      0.547672    91A      0.552329    92A      0.561069  
      93A      0.574518    94A      0.582407    95A      0.604840  
      96A      0.608258    97A      0.624467    98A      0.633590  
      99A      0.650811   100A      0.654274   101A      0.657563  
     102A      0.674442   103A      0.695219   104A      0.700686  
     105A      0.715937   106A      0.723984   107A      0.732677  
     108A      0.733538   109A      0.741072   110A      0.744590  
     111A      0.757667   112A      0.765753   113A      0.773368  
     114A      0.782543   115A      0.787858   116A      0.794303  
     117A      0.802757   118A      0.805194   119A      0.809852  
     120A      0.812813   121A      0.815210   122A      0.825770  
     123A      0.830755   124A      0.838098   125A      0.846412  
     126A      0.849741   127A      0.853817   128A      0.856623  
     129A      0.872656   130A      0.875150   131A      0.879145  
     132A      0.882634   133A      0.890169   134A      0.897416  
     135A      0.907728   136A      0.914319   137A      0.921445  
     138A      0.925712   139A      0.930918   140A      0.933962  
     141A      0.936789   142A      0.941626   143A      0.949397  
     144A      0.962266   145A      0.965468   146A      0.969488  
     147A      0.978797   148A      0.984022   149A      0.987094  
     150A      0.998264   151A      0.999007   152A      1.005663  
     153A      1.009234   154A      1.012959   155A      1.020023  
     156A      1.022825   157A      1.036926   158A      1.041929  
     159A      1.046439   160A      1.057897   161A      1.064344  
     162A      1.066995   163A      1.075954   164A      1.082696  
     165A      1.089807   166A      1.093209   167A      1.099002  
     168A      1.108579   169A      1.112365   170A      1.120003  
     171A      1.128093   172A      1.133099   173A      1.141763  
     174A      1.143385   175A      1.153162   176A      1.162166  
     177A      1.169327   178A      1.172547   179A      1.183162  
     180A      1.189171   181A      1.202807   182A      1.205932  
     183A      1.213061   184A      1.222350   185A      1.234084  
     186A      1.240998   187A      1.255010   188A      1.260629  
     189A      1.268078   190A      1.275598   191A      1.276312  
     192A      1.294100   193A      1.299490   194A      1.308894  
     195A      1.319994   196A      1.322217   197A      1.326807  
     198A      1.337299   199A      1.351912   200A      1.355907  
     201A      1.363760   202A      1.380135   203A      1.386792  
     204A      1.399785   205A      1.414585   206A      1.418624  
     207A      1.427120   208A      1.441705   209A      1.453465  
     210A      1.461700   211A      1.468081   212A      1.472134  
     213A      1.497946   214A      1.504962   215A      1.515287  
     216A      1.518821   217A      1.531582   218A      1.543010  
     219A      1.548636   220A      1.552236   221A      1.567781  
     222A      1.587468   223A      1.599251   224A      1.611463  
     225A      1.614020   226A      1.631024   227A      1.632418  
     228A      1.637583   229A      1.652277   230A      1.666011  
     231A      1.681797   232A      1.687630   233A      1.694090  
     234A      1.702932   235A      1.731929   236A      1.739354  
     237A      1.742713   238A      1.760554   239A      1.765632  
     240A      1.775525   241A      1.779196   242A      1.781164  
     243A      1.791445   244A      1.794425   245A      1.820616  
     246A      1.832765   247A      1.843347   248A      1.849192  
     249A      1.862946   250A      1.878797   251A      1.882919  
     252A      1.884652   253A      1.890924   254A      1.894912  
     255A      1.901560   256A      1.918219   257A      1.928631  
     258A      1.949290   259A      1.966161   260A      1.971940  
     261A      1.984751   262A      1.989992   263A      2.001527  
     264A      2.020551   265A      2.023490   266A      2.033321  
     267A      2.039484   268A      2.068393   269A      2.073416  
     270A      2.087836   271A      2.096144   272A      2.129575  
     273A      2.135172   274A      2.158517   275A      2.163403  
     276A      2.183097   277A      2.210024   278A      2.300504  
     279A      2.340934   280A      2.384983   281A      2.452190  
     282A      2.465399   283A      2.479447   284A      2.492679  
     285A      2.494297   286A      2.499057   287A      2.524605  
     288A      2.526782   289A      2.534079   290A      2.550898  
     291A      2.557414   292A      2.562956   293A      2.572998  
     294A      2.580654   295A      2.581026   296A      2.600170  
     297A      2.608290   298A      2.623885   299A      2.637512  
     300A      2.640650   301A      2.655092   302A      2.665139  
     303A      2.686007   304A      2.689018   305A      2.704277  
     306A      2.708118   307A      2.716276   308A      2.733334  
     309A      2.734920   310A      2.747091   311A      2.755839  
     312A      2.766207   313A      2.769115   314A      2.789497  
     315A      2.792165   316A      2.800359   317A      2.809915  
     318A      2.819626   319A      2.825052   320A      2.855559  
     321A      2.867416   322A      2.871880   323A      2.888860  
     324A      2.899536   325A      2.906679   326A      2.928195  
     327A      2.949672   328A      2.965733   329A      2.973582  
     330A      2.985686   331A      3.003363   332A      3.007498  
     333A      3.032835   334A      3.044540   335A      3.076997  
     336A      3.083381   337A      3.118537   338A      3.164093  
     339A      3.185299   340A      3.195373   341A      3.203538  
     342A      3.206596   343A      3.221352   344A      3.229701  
     345A      3.237228   346A      3.248550   347A      3.262281  
     348A      3.281085   349A      3.291108   350A      3.300468  
     351A      3.314848   352A      3.331951   353A      3.354968  
     354A      3.381809   355A      3.393173   356A      3.407609  
     357A      3.418191   358A      3.433824   359A      3.472082  
     360A      3.487726   361A      3.498937   362A      3.524792  
     363A      3.528821   364A      3.560367   365A      3.571154  
     366A      3.576064   367A      3.582560   368A      3.589997  
     369A      3.621305   370A      3.629670   371A      3.653091  
     372A      3.656645   373A      3.680431   374A      3.697850  
     375A      3.721399   376A      3.758144   377A      3.762063  
     378A      3.795381   379A      3.804874   380A      3.823038  
     381A      3.841378   382A      3.846946   383A      3.878686  
     384A      3.890494   385A      3.907431   386A      3.968790  
     387A      3.997406   388A      4.022008   389A      4.055531  
     390A      4.134030   391A      4.235560   392A      4.287800  
     393A      4.307008   394A      4.359034   395A      4.397125  
     396A      4.409800   397A      4.427588   398A      4.432441  
     399A      4.460129   400A      4.468562   401A      4.478099  
     402A      4.485863   403A      4.495139   404A      4.499379  
     405A      4.513986   406A      4.528162   407A      4.534356  
     408A      4.560320   409A      4.565201   410A      4.587715  
     411A      4.597869   412A      4.608690   413A      4.619641  
     414A      4.639559   415A      4.647798   416A      4.655133  
     417A      4.658885   418A      4.693914   419A      4.705911  
     420A      4.715158   421A      4.735920   422A      4.757448  
     423A      4.771344   424A      4.786207   425A      4.822428  
     426A      4.847801   427A      4.855206   428A      4.866943  
     429A      4.908573   430A      4.912061   431A      4.927055  
     432A      4.930824   433A      4.946915   434A      4.955860  
     435A      4.966263   436A      4.998102   437A      5.000706  
     438A      5.018314   439A      5.055687   440A      5.065649  
     441A      5.067544   442A      5.085253   443A      5.117862  
     444A      5.144384   445A      5.177147   446A      5.195829  
     447A      5.227561   448A      5.234208   449A      5.257972  
     450A      5.300911   451A      5.315767   452A      5.323753  
     453A      5.355012   454A      5.391213   455A      5.400661  
     456A      5.427248   457A      5.450498   458A      5.459053  
     459A      5.476177   460A      5.480948   461A      5.514688  
     462A      5.530501   463A      5.551340   464A      5.561540  
     465A      5.574359   466A      5.584905   467A      5.619040  
     468A      5.642387   469A      5.686438   470A      5.721878  
     471A      5.737487   472A      5.746511   473A      5.756799  
     474A      5.824894   475A      5.850983   476A      5.896323  
     477A      5.997254   478A      6.150857   479A      6.172007  
     480A      6.189879   481A      6.219680   482A      6.250776  
     483A      6.254430   484A      6.287953   485A      6.348386  
     486A      6.403491   487A      6.432569   488A      6.480536  
     489A      6.506798   490A      6.602365   491A      6.609940  
     492A      6.723662   493A      6.741327   494A      6.762504  
     495A      6.828406   496A      6.907449   497A      6.930464  
     498A      6.970069   499A      7.018110   500A      7.108707  
     501A      7.177150   502A      7.192374   503A      7.263601  
     504A      7.328610   505A      7.350865   506A      7.429023  
     507A      7.515362   508A      7.694629   509A      7.717444  
     510A      7.742768   511A      7.770775   512A      7.773948  
     513A      7.792173   514A      7.813556   515A      7.847742  
     516A      7.859546   517A      7.868603   518A      7.890681  
     519A      7.927358   520A      7.995500   521A      8.039557  
     522A      8.055815   523A      8.064188   524A      8.132688  
     525A      8.149881   526A      8.164768   527A      8.175095  
     528A      8.204645   529A      8.248632   530A      8.258642  
     531A      8.272332   532A      8.277871   533A      8.290391  
     534A      8.325094   535A      8.354830   536A      8.617534  
     537A      8.619748   538A      8.659831   539A      8.693273  
     540A      8.730052   541A      8.786034   542A      8.809975  
     543A      8.845046   544A      8.883726   545A      9.048917  
     546A      9.084194   547A      9.737143   548A      9.749275  
     549A      9.762426   550A      9.791931   551A      9.833993  
     552A      9.896943   553A      9.905335   554A      9.915383  
     555A      9.943024   556A      9.949889   557A     10.082170  
     558A     10.089328   559A     10.096392   560A     10.110601  
     561A     10.162464   562A     10.263429   563A     10.312426  
     564A     10.330605   565A     10.357091   566A     10.405875  
     567A     10.954167   568A     10.974300   569A     11.025333  
     570A     11.039116   571A     11.281777   572A     11.640536  
     573A     11.722687   574A     11.765448   575A     11.782968  
     576A     11.799865   577A     11.827987   578A     11.870945  
     579A     11.936359   580A     12.015222   581A     12.186853  
     582A     12.354830   583A     13.435224   584A     13.463955  
     585A     13.522050   586A     13.572910   587A     13.716757  
     588A     13.954537   589A     13.976611   590A     13.979591  
     591A     13.998526   592A     14.052228   593A     14.087253  
     594A     14.214395   595A     14.278450   596A     15.562701  
     597A     26.410586   598A     26.547834   599A     26.584106  
     600A     26.758611   601A     26.824487   602A     47.081952  
     603A     64.210907   604A     64.687742   605A     65.163207  
     606A     66.021885   607A     67.163507   608A    139.219352  
     609A    139.463471   610A    139.668479   611A    713.605879  

    Final Occupation by Irrep:
              A 
    DOCC [     5 ]
    NA   [     5 ]
    NB   [     5 ]

  @DF-RHF Final Energy:   -76.05506370197506

   => Energetics <=

    Nuclear Repulsion Energy =              8.8260272313603405
    One-Electron Energy =                -122.3930736812674382
    Two-Electron Energy =                  37.5119827479320378
    Total Energy =                        -76.0550637019750582

Computation Completed


Properties will be evaluated at   0.000000,   0.000000,   0.000000 [a0]

Properties computed using the SCF density matrix


 Multipole Moments:

 ------------------------------------------------------------------------------------
     Multipole            Electronic (a.u.)      Nuclear  (a.u.)        Total (a.u.)
 ------------------------------------------------------------------------------------

 L = 1.  Multiply by 2.5417464519 to convert [e a0] to [Debye]
 Dipole X            :        -35.5981939           35.2308086           -0.3673854
 Dipole Y            :          8.5826281           -7.9427230            0.6399051
 Dipole Z            :        -50.3656804           50.1392397           -0.2264408
 Magnitude           :                                                    0.7718328

 ------------------------------------------------------------------------------------

*** tstop() called on ddmfs1 at Tue Jan 23 01:23:49 2024
Module time:
	user time   =     149.29 seconds =       2.49 minutes
	system time =       8.86 seconds =       0.15 minutes
	total time  =         11 seconds =       0.18 minutes
Total time:
	user time   =     149.29 seconds =       2.49 minutes
	system time =       8.86 seconds =       0.15 minutes
	total time  =         11 seconds =       0.18 minutes

*** tstart() called on ddmfs1
*** at Tue Jan 23 01:23:49 2024


  //>>>>>>>>>>>>>>>>>>>>>>>>>>>>>>>>>>>//
  //               DFMP2               //
  //<<<<<<<<<<<<<<<<<<<<<<<<<<<<<<<<<<<//

   => Loading Basis Set <=

    Name: (AUG-CC-PVTZ AUX)
    Role: RIFIT
    Keyword: DF_BASIS_MP2
    atoms 1                                   entry BR         line  1248 file /ddmfs1b/softs/psi4conda/share/psi4/basis/aug-cc-pvtz-ri.gbs 
    atoms 2, 5, 8, 11, 14, 17                 entry O          line   264 file /ddmfs1b/softs/psi4conda/share/psi4/basis/aug-cc-pvtz-ri.gbs 
    atoms 3-4, 6-7, 9-10, 12-13, 15-16, 18-19 entry H          line    30 file /ddmfs1b/softs/psi4conda/share/psi4/basis/aug-cc-pvtz-ri.gbs 

	 --------------------------------------------------------
	                          DF-MP2                         
	      2nd-Order Density-Fitted Moller-Plesset Theory     
	              RMP2 Wavefunction,  20 Threads             
	                                                         
	        Rob Parrish, Justin Turney, Andy Simmonett,      
	           Ed Hohenstein, and C. David Sherrill          
	 --------------------------------------------------------

   => Auxiliary Basis Set <=

  Basis Set: (AUG-CC-PVTZ AUX)
    Blend: AUG-CC-PVTZ-RI
    Number of shells: 379
    Number of basis functions: 1379
    Number of Cartesian functions: 1737
    Spherical Harmonics?: true
    Max angular momentum: 5

	 --------------------------------------------------------
	                 NBF =   611, NAUX =  1379
	 --------------------------------------------------------
	   CLASS    FOCC     OCC    AOCC    AVIR     VIR    FVIR
	   PAIRS       0       5       5     606     606       0
	 --------------------------------------------------------

	-----------------------------------------------------------
	 ==================> DF-MP2 Energies <==================== 
	-----------------------------------------------------------
	 Reference Energy          =     -76.0550637019750582 [Eh]
	 Singles Energy            =      -0.0000000000000000 [Eh]
	 Same-Spin Energy          =      -0.0690383911793105 [Eh]
	 Opposite-Spin Energy      =      -0.2179164431841167 [Eh]
	 Correlation Energy        =      -0.2869548343634272 [Eh]
	 Total Energy              =     -76.3420185363384860 [Eh]
	-----------------------------------------------------------
	 ================> DF-SCS-MP2 Energies <================== 
	-----------------------------------------------------------
	 SCS Same-Spin Scale       =       0.3333333333333333 [-]
	 SCS Opposite-Spin Scale   =       1.2000000000000000 [-]
	 SCS Same-Spin Energy      =      -0.0230127970597702 [Eh]
	 SCS Opposite-Spin Energy  =      -0.2614997318209401 [Eh]
	 SCS Correlation Energy    =      -0.2845125288807102 [Eh]
	 SCS Total Energy          =     -76.3395762308557693 [Eh]
	-----------------------------------------------------------


*** tstop() called on ddmfs1 at Tue Jan 23 01:24:03 2024
Module time:
	user time   =      44.63 seconds =       0.74 minutes
	system time =       2.98 seconds =       0.05 minutes
	total time  =         14 seconds =       0.23 minutes
Total time:
	user time   =     193.94 seconds =       3.23 minutes
	system time =      11.84 seconds =       0.20 minutes
	total time  =         25 seconds =       0.42 minutes

    Psi4 stopped on: Tuesday, 23 January 2024 01:24AM
    Psi4 wall time for execution: 0:00:25.26

*** Psi4 exiting successfully. Buy a developer a beer!
