
    -----------------------------------------------------------------------
          Psi4: An Open-Source Ab Initio Electronic Structure Package
                               Psi4 1.8.2 release

                         Git: Rev {} zzzzzzz 


    D. G. A. Smith, L. A. Burns, A. C. Simmonett, R. M. Parrish,
    M. C. Schieber, R. Galvelis, P. Kraus, H. Kruse, R. Di Remigio,
    A. Alenaizan, A. M. James, S. Lehtola, J. P. Misiewicz, M. Scheurer,
    R. A. Shaw, J. B. Schriber, Y. Xie, Z. L. Glick, D. A. Sirianni,
    J. S. O'Brien, J. M. Waldrop, A. Kumar, E. G. Hohenstein,
    B. P. Pritchard, B. R. Brooks, H. F. Schaefer III, A. Yu. Sokolov,
    K. Patkowski, A. E. DePrince III, U. Bozkaya, R. A. King,
    F. A. Evangelista, J. M. Turney, T. D. Crawford, C. D. Sherrill,
    J. Chem. Phys. 152(18) 184108 (2020). https://doi.org/10.1063/5.0006002

                            Additional Code Authors
    E. T. Seidl, C. L. Janssen, E. F. Valeev, M. L. Leininger,
    J. F. Gonthier, R. M. Richard, H. R. McAlexander, M. Saitow, X. Wang,
    P. Verma, M. H. Lechner, A. Jiang, S. Behnle, A. G. Heide,
    M. F. Herbst, and D. L. Poole

             Previous Authors, Complete List of Code Contributors,
                       and Citations for Specific Modules
    https://github.com/psi4/psi4/blob/master/codemeta.json
    https://github.com/psi4/psi4/graphs/contributors
    http://psicode.org/psi4manual/master/introduction.html#citing-psifour

    -----------------------------------------------------------------------


    Psi4 started on: Monday, 22 January 2024 11:58PM

    Process ID: 119013
    Host:       ddmfs1
    PSIDATADIR: /ddmfs1b/softs/psi4conda/share/psi4
    Memory:     500.0 MiB
    Threads:    20
    
  ==> Input File <==

--------------------------------------------------------------------------
MEMORY 60 GB

molecule dimer {
-1 1
Br         0.000000     0.000000     0.000000
O          1.214755     2.032402     2.352565
H          0.843379     1.290858     1.788319
H          2.176535     2.115299     2.233161
O         -1.899098     2.893105     0.263373
H         -2.377616     3.120026    -0.530168
H         -1.651951     1.952131     0.230723
O          1.184394     2.722133    -1.786102
H          0.888960     1.954533    -1.303810
H          0.985690     3.441294    -1.194986
O         -3.316529    -1.099441    -0.081057
H         -2.506499    -0.600404    -0.183707
H         -3.485828    -1.108557     0.900656

units ang
no_reorient
no_com
symmetry c1
}

set {
basis        aug-cc-pVTZ
scf_type     df
}

energy("mp2")
--------------------------------------------------------------------------

  Memory set to  55.879 GiB by Python driver.

Scratch directory: /ddmfs1a/scratch/
   => Libint2 <=

    Primary   basis highest AM E, G, H:  5, 4, 3
    Auxiliary basis highest AM E, G, H:  6, 5, 4
    Onebody   basis highest AM E, G, H:  6, 5, 4
    Solid Harmonics ordering:            gaussian

*** tstart() called on ddmfs1
*** at Mon Jan 22 23:58:55 2024

   => Loading Basis Set <=

    Name: AUG-CC-PVTZ
    Role: ORBITAL
    Keyword: BASIS
    atoms 1                     entry BR         line  4208 file /ddmfs1b/softs/psi4conda/share/psi4/basis/aug-cc-pvtz.gbs 
    atoms 2, 5, 8, 11           entry O          line   331 file /ddmfs1b/softs/psi4conda/share/psi4/basis/aug-cc-pvtz.gbs 
    atoms 3-4, 6-7, 9-10, 12-13 entry H          line    40 file /ddmfs1b/softs/psi4conda/share/psi4/basis/aug-cc-pvtz.gbs 


         ---------------------------------------------------------
                                   SCF
               by Justin Turney, Rob Parrish, Andy Simmonett
                          and Daniel G. A. Smith
                              RHF Reference
                       20 Threads,  57220 MiB Core
         ---------------------------------------------------------

  ==> Geometry <==

    Molecular point group: c1
    Full point group: C1

    Geometry (in Angstrom), charge = -1, multiplicity = 1:

       Center              X                  Y                   Z               Mass       
    ------------   -----------------  -----------------  -----------------  -----------------
         BR           0.000000000000     0.000000000000     0.000000000000    78.918337600000
         O            1.214755000000     2.032402000000     2.352565000000    15.994914619570
         H            0.843379000000     1.290858000000     1.788319000000     1.007825032230
         H            2.176535000000     2.115299000000     2.233161000000     1.007825032230
         O           -1.899098000000     2.893105000000     0.263373000000    15.994914619570
         H           -2.377616000000     3.120026000000    -0.530168000000     1.007825032230
         H           -1.651951000000     1.952131000000     0.230723000000     1.007825032230
         O            1.184394000000     2.722133000000    -1.786102000000    15.994914619570
         H            0.888960000000     1.954533000000    -1.303810000000     1.007825032230
         H            0.985690000000     3.441294000000    -1.194986000000     1.007825032230
         O           -3.316529000000    -1.099441000000    -0.081057000000    15.994914619570
         H           -2.506499000000    -0.600404000000    -0.183707000000     1.007825032230
         H           -3.485828000000    -1.108557000000     0.900656000000     1.007825032230

  Running in c1 symmetry.

  Rotational constants: A =      0.03982  B =      0.02950  C =      0.02444 [cm^-1]
  Rotational constants: A =   1193.80127  B =    884.32381  C =    732.58324 [MHz]
  Nuclear repulsion =  329.453429297341359

  Charge       = -1
  Multiplicity = 1
  Electrons    = 76
  Nalpha       = 38
  Nbeta        = 38

  ==> Algorithm <==

  SCF Algorithm Type is DF.
  DIIS enabled.
  MOM disabled.
  Fractional occupation disabled.
  Guess Type is SAD.
  Energy threshold   = 1.00e-08
  Density threshold  = 1.00e-08
  Integral threshold = 1.00e-12

  ==> Primary Basis <==

  Basis Set: AUG-CC-PVTZ
    Blend: AUG-CC-PVTZ
    Number of shells: 147
    Number of basis functions: 427
    Number of Cartesian functions: 489
    Spherical Harmonics?: true
    Max angular momentum: 3

   => Loading Basis Set <=

    Name: (AUG-CC-PVTZ AUX)
    Role: JKFIT
    Keyword: DF_BASIS_SCF
    atoms 1                     entry BR         line  1492 file /ddmfs1b/softs/psi4conda/share/psi4/basis/aug-cc-pvtz-jkfit.gbs 
    atoms 2, 5, 8, 11           entry O          line   286 file /ddmfs1b/softs/psi4conda/share/psi4/basis/aug-cc-pvtz-jkfit.gbs 
    atoms 3-4, 6-7, 9-10, 12-13 entry H          line    70 file /ddmfs1b/softs/psi4conda/share/psi4/basis/aug-cc-pvtz-jkfit.gbs 

  ==> Integral Setup <==

  DFHelper Memory: AOs need 1.324 GiB; user supplied 41.910 GiB. 
  Using in-core AOs.

  ==> MemDFJK: Density-Fitted J/K Matrices <==

    J tasked:                   Yes
    K tasked:                   Yes
    wK tasked:                   No
    OpenMP threads:              20
    Memory [MiB]:             42915
    Algorithm:                 Core
    Schwarz Cutoff:           1E-12
    Mask sparsity (%):      10.6829
    Fitting Condition:        1E-10

   => Auxiliary Basis Set <=

  Basis Set: (AUG-CC-PVTZ AUX)
    Blend: AUG-CC-PVTZ-JKFIT
    Number of shells: 290
    Number of basis functions: 1032
    Number of Cartesian functions: 1293
    Spherical Harmonics?: true
    Max angular momentum: 4

  Minimum eigenvalue in the overlap matrix is 2.0385118005E-04.
  Reciprocal condition number of the overlap matrix is 1.7909142806E-05.
    Using symmetric orthogonalization.

  ==> Pre-Iterations <==

  SCF Guess: Superposition of Atomic Densities via on-the-fly atomic UHF (no occupation information).

   -------------------------
    Irrep   Nso     Nmo    
   -------------------------
     A        427     427 
   -------------------------
    Total     427     427
   -------------------------

  ==> Iterations <==

                           Total Energy        Delta E     RMS |[F,P]|

   @DF-RHF iter SAD: -2872.51379733240310   -2.87251e+03   0.00000e+00 
   @DF-RHF iter   1: -2876.27273441614852   -3.75894e+00   3.24572e-03 ADIIS/DIIS
   @DF-RHF iter   2: -2876.64876206652980   -3.76028e-01   1.91088e-03 ADIIS/DIIS
   @DF-RHF iter   3: -2876.81368552779622   -1.64923e-01   1.49603e-04 ADIIS/DIIS
   @DF-RHF iter   4: -2876.81566395826258   -1.97843e-03   7.17984e-05 DIIS
   @DF-RHF iter   5: -2876.81606909041193   -4.05132e-04   1.05316e-05 DIIS
   @DF-RHF iter   6: -2876.81609352456053   -2.44341e-05   2.84011e-06 DIIS
   @DF-RHF iter   7: -2876.81609536745918   -1.84290e-06   1.17690e-06 DIIS
   @DF-RHF iter   8: -2876.81609556791682   -2.00458e-07   3.83658e-07 DIIS
   @DF-RHF iter   9: -2876.81609559624349   -2.83267e-08   6.30216e-08 DIIS
   @DF-RHF iter  10: -2876.81609559720346   -9.59972e-10   1.36645e-08 DIIS
   @DF-RHF iter  11: -2876.81609559723984   -3.63798e-11   6.30142e-09 DIIS
  Energy and wave function converged.


  ==> Post-Iterations <==

    Orbital Energies [Eh]
    ---------------------

    Doubly Occupied:                                                      

       1A   -489.786101     2A    -64.926473     3A    -58.280987  
       4A    -58.280964     5A    -58.280930     6A    -20.429458  
       7A    -20.421697     8A    -20.411960     9A    -20.411788  
      10A     -9.598795    11A     -7.206399    12A     -7.206246  
      13A     -7.206138    14A     -2.948055    15A     -2.948021  
      16A     -2.947860    17A     -2.947674    18A     -2.947653  
      19A     -1.205646    20A     -1.205136    21A     -1.204135  
      22A     -1.181397    23A     -0.763490    24A     -0.581571  
      25A     -0.570427    26A     -0.566352    27A     -0.560880  
      28A     -0.446361    29A     -0.441040    30A     -0.435218  
      31A     -0.417955    32A     -0.371575    33A     -0.368400  
      34A     -0.359324    35A     -0.352846    36A     -0.213705  
      37A     -0.211318    38A     -0.210642  

    Virtual:                                                              

      39A      0.121311    40A      0.127327    41A      0.130390  
      42A      0.146760    43A      0.158687    44A      0.169323  
      45A      0.174066    46A      0.187757    47A      0.222685  
      48A      0.242144    49A      0.248370    50A      0.257587  
      51A      0.261957    52A      0.270697    53A      0.275390  
      54A      0.282597    55A      0.289224    56A      0.296094  
      57A      0.297514    58A      0.305609    59A      0.316297  
      60A      0.325405    61A      0.336511    62A      0.341302  
      63A      0.347125    64A      0.355624    65A      0.358507  
      66A      0.359518    67A      0.372013    68A      0.384054  
      69A      0.389588    70A      0.396960    71A      0.408704  
      72A      0.420007    73A      0.434183    74A      0.440698  
      75A      0.447851    76A      0.449650    77A      0.462487  
      78A      0.473856    79A      0.483840    80A      0.490392  
      81A      0.506518    82A      0.514876    83A      0.516655  
      84A      0.532201    85A      0.537120    86A      0.548403  
      87A      0.558536    88A      0.565626    89A      0.567280  
      90A      0.577525    91A      0.582575    92A      0.594597  
      93A      0.599949    94A      0.616738    95A      0.630825  
      96A      0.632450    97A      0.645202    98A      0.665181  
      99A      0.671520   100A      0.684906   101A      0.710460  
     102A      0.727752   103A      0.738939   104A      0.774568  
     105A      0.790915   106A      0.807464   107A      0.813289  
     108A      0.829585   109A      0.834841   110A      0.843776  
     111A      0.848692   112A      0.853373   113A      0.859390  
     114A      0.863668   115A      0.873205   116A      0.874063  
     117A      0.883432   118A      0.891062   119A      0.897015  
     120A      0.899427   121A      0.909595   122A      0.912779  
     123A      0.914529   124A      0.928566   125A      0.945299  
     126A      0.949452   127A      0.957095   128A      0.964013  
     129A      0.983981   130A      0.995330   131A      1.008262  
     132A      1.012743   133A      1.029512   134A      1.039215  
     135A      1.039711   136A      1.052343   137A      1.054992  
     138A      1.067413   139A      1.077577   140A      1.078892  
     141A      1.082278   142A      1.085718   143A      1.094654  
     144A      1.107174   145A      1.112399   146A      1.115566  
     147A      1.122866   148A      1.128294   149A      1.132282  
     150A      1.143554   151A      1.153224   152A      1.162962  
     153A      1.169251   154A      1.176565   155A      1.180293  
     156A      1.182780   157A      1.191904   158A      1.208758  
     159A      1.212243   160A      1.225298   161A      1.233111  
     162A      1.250557   163A      1.261661   164A      1.266261  
     165A      1.281040   166A      1.287286   167A      1.295548  
     168A      1.303720   169A      1.314920   170A      1.329791  
     171A      1.347975   172A      1.352095   173A      1.369660  
     174A      1.376937   175A      1.404339   176A      1.408741  
     177A      1.411192   178A      1.426012   179A      1.428028  
     180A      1.447800   181A      1.451121   182A      1.461101  
     183A      1.465353   184A      1.489351   185A      1.501494  
     186A      1.512425   187A      1.537634   188A      1.564989  
     189A      1.597919   190A      1.599096   191A      1.605199  
     192A      1.638582   193A      1.654095   194A      1.668729  
     195A      1.673388   196A      1.679780   197A      1.689249  
     198A      1.701610   199A      1.712313   200A      1.726031  
     201A      1.735322   202A      1.757082   203A      1.789057  
     204A      1.807013   205A      1.819158   206A      1.841255  
     207A      1.855246   208A      1.868718   209A      1.888363  
     210A      1.931907   211A      1.952928   212A      1.981734  
     213A      2.010149   214A      2.025776   215A      2.048050  
     216A      2.057610   217A      2.075271   218A      2.088792  
     219A      2.106037   220A      2.127785   221A      2.193474  
     222A      2.202679   223A      2.205514   224A      2.398064  
     225A      2.412506   226A      2.420868   227A      2.425873  
     228A      2.442110   229A      2.450610   230A      2.467730  
     231A      2.477757   232A      2.494065   233A      2.502434  
     234A      2.509711   235A      2.521052   236A      2.538012  
     237A      2.540067   238A      2.553387   239A      2.567476  
     240A      2.574412   241A      2.578853   242A      2.589529  
     243A      2.602990   244A      2.610826   245A      2.621730  
     246A      2.625878   247A      2.629734   248A      2.648459  
     249A      2.652401   250A      2.662189   251A      2.673772  
     252A      2.688801   253A      2.701753   254A      2.717406  
     255A      2.719379   256A      2.729136   257A      2.749106  
     258A      2.766092   259A      2.784821   260A      2.796271  
     261A      2.811182   262A      2.828587   263A      2.838730  
     264A      2.860833   265A      2.876448   266A      2.888559  
     267A      2.892049   268A      2.898955   269A      2.912302  
     270A      2.926303   271A      2.945786   272A      2.958510  
     273A      2.976888   274A      2.980588   275A      2.990548  
     276A      2.996133   277A      3.023581   278A      3.055948  
     279A      3.065360   280A      3.082439   281A      3.098234  
     282A      3.120739   283A      3.126600   284A      3.138014  
     285A      3.157885   286A      3.192521   287A      3.219330  
     288A      3.227388   289A      3.244189   290A      3.302687  
     291A      3.808428   292A      3.847829   293A      3.890796  
     294A      3.900304   295A      4.007778   296A      4.049997  
     297A      4.081783   298A      4.093375   299A      4.180707  
     300A      4.203163   301A      4.219401   302A      4.261275  
     303A      4.335949   304A      4.341419   305A      4.364562  
     306A      4.371667   307A      4.384658   308A      4.390696  
     309A      4.399321   310A      4.405736   311A      4.437409  
     312A      4.443264   313A      4.451512   314A      4.455244  
     315A      4.466267   316A      4.488937   317A      4.515578  
     318A      4.525912   319A      4.540486   320A      4.557489  
     321A      4.566529   322A      4.582592   323A      4.586796  
     324A      4.594606   325A      4.607635   326A      4.618917  
     327A      4.642060   328A      4.663629   329A      4.683937  
     330A      4.692004   331A      4.718956   332A      4.729462  
     333A      4.741881   334A      4.761327   335A      4.872021  
     336A      4.874624   337A      4.943359   338A      4.954845  
     339A      4.988062   340A      5.028161   341A      5.056747  
     342A      5.160566   343A      5.240933   344A      5.260134  
     345A      5.268638   346A      5.269342   347A      5.301386  
     348A      5.327247   349A      5.346409   350A      5.366705  
     351A      5.403004   352A      5.428588   353A      5.460340  
     354A      5.485977   355A      5.489792   356A      5.516866  
     357A      5.525364   358A      5.556716   359A      5.588283  
     360A      5.607617   361A      5.637672   362A      5.667910  
     363A      5.726719   364A      5.829656   365A      5.883048  
     366A      5.911398   367A      5.951605   368A      6.267367  
     369A      6.324266   370A      6.328918   371A      6.435280  
     372A      6.685036   373A      6.693911   374A      6.721082  
     375A      6.753399   376A      6.892685   377A      6.897817  
     378A      6.942388   379A      6.949422   380A      6.988577  
     381A      7.028544   382A      7.048984   383A      7.136715  
     384A      7.253142   385A      7.297521   386A      7.317597  
     387A      7.322801   388A      7.396878   389A      7.412190  
     390A      7.440180   391A      7.443506   392A      7.451755  
     393A      7.458996   394A      7.469703   395A      7.475741  
     396A      7.477635   397A      7.504499   398A      7.508189  
     399A      7.511141   400A      7.531983   401A      7.548722  
     402A      7.560564   403A      7.571936   404A      7.598537  
     405A      7.603940   406A      7.622070   407A      7.677996  
     408A      7.808320   409A      7.816648   410A      7.860893  
     411A      7.912309   412A      7.990090   413A      8.052486  
     414A      8.055866   415A      8.098008   416A      8.115775  
     417A      8.135742   418A      8.166797   419A      8.176467  
     420A      8.794433   421A      8.872562   422A      8.922706  
     423A      9.043442   424A     15.789611   425A     16.132640  
     426A     16.438971   427A     17.051516  

    Final Occupation by Irrep:
              A 
    DOCC [    38 ]
    NA   [    38 ]
    NB   [    38 ]

  @DF-RHF Final Energy: -2876.81609559723984

   => Energetics <=

    Nuclear Repulsion Energy =            329.4534292973413585
    One-Electron Energy =               -4674.8298134748329176
    Two-Electron Energy =                1468.5602885802513811
    Total Energy =                      -2876.8160955972402917

Computation Completed


Properties will be evaluated at   0.000000,   0.000000,   0.000000 [a0]

Properties computed using the SCF density matrix


 Multipole Moments:

 ------------------------------------------------------------------------------------
     Multipole            Electronic (a.u.)      Nuclear  (a.u.)        Total (a.u.)
 ------------------------------------------------------------------------------------

 L = 1.  Multiply by 2.5417464519 to convert [e a0] to [Debye]
 Dipole X            :         52.8314500          -52.2682259            0.5632241
 Dipole Y            :       -123.2824981          121.9832803           -1.2992179
 Dipole Z            :        -14.8643010           14.9863219            0.1220208
 Magnitude           :                                                    1.4212943

 ------------------------------------------------------------------------------------

*** tstop() called on ddmfs1 at Mon Jan 22 23:59:04 2024
Module time:
	user time   =     120.11 seconds =       2.00 minutes
	system time =      11.32 seconds =       0.19 minutes
	total time  =          9 seconds =       0.15 minutes
Total time:
	user time   =     120.11 seconds =       2.00 minutes
	system time =      11.32 seconds =       0.19 minutes
	total time  =          9 seconds =       0.15 minutes

*** tstart() called on ddmfs1
*** at Mon Jan 22 23:59:04 2024


  //>>>>>>>>>>>>>>>>>>>>>>>>>>>>>>>>>>>//
  //               DFMP2               //
  //<<<<<<<<<<<<<<<<<<<<<<<<<<<<<<<<<<<//

   => Loading Basis Set <=

    Name: (AUG-CC-PVTZ AUX)
    Role: RIFIT
    Keyword: DF_BASIS_MP2
    atoms 1                     entry BR         line  1248 file /ddmfs1b/softs/psi4conda/share/psi4/basis/aug-cc-pvtz-ri.gbs 
    atoms 2, 5, 8, 11           entry O          line   264 file /ddmfs1b/softs/psi4conda/share/psi4/basis/aug-cc-pvtz-ri.gbs 
    atoms 3-4, 6-7, 9-10, 12-13 entry H          line    30 file /ddmfs1b/softs/psi4conda/share/psi4/basis/aug-cc-pvtz-ri.gbs 

	 --------------------------------------------------------
	                          DF-MP2                         
	      2nd-Order Density-Fitted Moller-Plesset Theory     
	              RMP2 Wavefunction,  20 Threads             
	                                                         
	        Rob Parrish, Justin Turney, Andy Simmonett,      
	           Ed Hohenstein, and C. David Sherrill          
	 --------------------------------------------------------

   => Auxiliary Basis Set <=

  Basis Set: (AUG-CC-PVTZ AUX)
    Blend: AUG-CC-PVTZ-RI
    Number of shells: 267
    Number of basis functions: 983
    Number of Cartesian functions: 1245
    Spherical Harmonics?: true
    Max angular momentum: 5

	 --------------------------------------------------------
	                 NBF =   427, NAUX =   983
	 --------------------------------------------------------
	   CLASS    FOCC     OCC    AOCC    AVIR     VIR    FVIR
	   PAIRS       0      38      38     389     389       0
	 --------------------------------------------------------

	-----------------------------------------------------------
	 ==================> DF-MP2 Energies <==================== 
	-----------------------------------------------------------
	 Reference Energy          =   -2876.8160955972398369 [Eh]
	 Singles Energy            =      -0.0000000000000000 [Eh]
	 Same-Spin Energy          =      -0.3731072736124684 [Eh]
	 Opposite-Spin Energy      =      -1.0821657720604809 [Eh]
	 Correlation Energy        =      -1.4552730456729492 [Eh]
	 Total Energy              =   -2878.2713686429128757 [Eh]
	-----------------------------------------------------------
	 ================> DF-SCS-MP2 Energies <================== 
	-----------------------------------------------------------
	 SCS Same-Spin Scale       =       0.3333333333333333 [-]
	 SCS Opposite-Spin Scale   =       1.2000000000000000 [-]
	 SCS Same-Spin Energy      =      -0.1243690912041561 [Eh]
	 SCS Opposite-Spin Energy  =      -1.2985989264725770 [Eh]
	 SCS Correlation Energy    =      -1.4229680176767332 [Eh]
	 SCS Total Energy          =   -2878.2390636149166312 [Eh]
	-----------------------------------------------------------


*** tstop() called on ddmfs1 at Mon Jan 22 23:59:15 2024
Module time:
	user time   =      42.61 seconds =       0.71 minutes
	system time =       2.38 seconds =       0.04 minutes
	total time  =         11 seconds =       0.18 minutes
Total time:
	user time   =     162.74 seconds =       2.71 minutes
	system time =      13.70 seconds =       0.23 minutes
	total time  =         20 seconds =       0.33 minutes

    Psi4 stopped on: Monday, 22 January 2024 11:59PM
    Psi4 wall time for execution: 0:00:19.91

*** Psi4 exiting successfully. Buy a developer a beer!
