
    -----------------------------------------------------------------------
          Psi4: An Open-Source Ab Initio Electronic Structure Package
                               Psi4 1.8.2 release

                         Git: Rev {} zzzzzzz 


    D. G. A. Smith, L. A. Burns, A. C. Simmonett, R. M. Parrish,
    M. C. Schieber, R. Galvelis, P. Kraus, H. Kruse, R. Di Remigio,
    A. Alenaizan, A. M. James, S. Lehtola, J. P. Misiewicz, M. Scheurer,
    R. A. Shaw, J. B. Schriber, Y. Xie, Z. L. Glick, D. A. Sirianni,
    J. S. O'Brien, J. M. Waldrop, A. Kumar, E. G. Hohenstein,
    B. P. Pritchard, B. R. Brooks, H. F. Schaefer III, A. Yu. Sokolov,
    K. Patkowski, A. E. DePrince III, U. Bozkaya, R. A. King,
    F. A. Evangelista, J. M. Turney, T. D. Crawford, C. D. Sherrill,
    J. Chem. Phys. 152(18) 184108 (2020). https://doi.org/10.1063/5.0006002

                            Additional Code Authors
    E. T. Seidl, C. L. Janssen, E. F. Valeev, M. L. Leininger,
    J. F. Gonthier, R. M. Richard, H. R. McAlexander, M. Saitow, X. Wang,
    P. Verma, M. H. Lechner, A. Jiang, S. Behnle, A. G. Heide,
    M. F. Herbst, and D. L. Poole

             Previous Authors, Complete List of Code Contributors,
                       and Citations for Specific Modules
    https://github.com/psi4/psi4/blob/master/codemeta.json
    https://github.com/psi4/psi4/graphs/contributors
    http://psicode.org/psi4manual/master/introduction.html#citing-psifour

    -----------------------------------------------------------------------


    Psi4 started on: Tuesday, 23 January 2024 01:16AM

    Process ID: 123545
    Host:       ddmfs1
    PSIDATADIR: /ddmfs1b/softs/psi4conda/share/psi4
    Memory:     500.0 MiB
    Threads:    20
    
  ==> Input File <==

--------------------------------------------------------------------------
MEMORY 60 GB

molecule dimer {
0 1
Gh(Br)     0.000000     0.000000     0.000000
O          1.877253    -0.925629    -2.503878
H          1.568959    -0.369866    -1.756608
H          1.769866    -1.829815    -2.152507
Gh(O)      0.170065     2.901916    -1.500734
Gh(H)     -0.216467     2.541833    -2.272789
Gh(H)      0.178509     2.130837    -0.924963
Gh(O)      0.283163    -1.282719     3.211734
Gh(H)      0.144151    -0.907789     2.345728
Gh(H)     -0.490220    -1.053040     3.745017
Gh(O)      3.272579    -0.761567     0.566827
Gh(H)      2.477722    -0.224904     0.466952
Gh(H)      2.968580    -1.638178     0.298848
Gh(O)      0.955461     2.446042     2.162195
Gh(H)      0.814632     1.637742     1.624264
Gh(H)      0.875880     2.278959     3.123204
Gh(O)     -1.258581    -1.316716    -3.035756
Gh(H)     -2.002288    -0.752139    -3.089390
Gh(H)     -0.819194    -1.250416    -2.138434

units ang
no_reorient
no_com
symmetry c1
}

set {
basis        aug-cc-pVTZ
scf_type     df
}

energy("mp2")
--------------------------------------------------------------------------

  Memory set to  55.879 GiB by Python driver.

Scratch directory: /ddmfs1a/scratch/
   => Libint2 <=

    Primary   basis highest AM E, G, H:  5, 4, 3
    Auxiliary basis highest AM E, G, H:  6, 5, 4
    Onebody   basis highest AM E, G, H:  6, 5, 4
    Solid Harmonics ordering:            gaussian

*** tstart() called on ddmfs1
*** at Tue Jan 23 01:16:33 2024

   => Loading Basis Set <=

    Name: AUG-CC-PVTZ
    Role: ORBITAL
    Keyword: BASIS
    atoms 1                                   entry BR         line  4208 file /ddmfs1b/softs/psi4conda/share/psi4/basis/aug-cc-pvtz.gbs 
    atoms 2, 5, 8, 11, 14, 17                 entry O          line   331 file /ddmfs1b/softs/psi4conda/share/psi4/basis/aug-cc-pvtz.gbs 
    atoms 3-4, 6-7, 9-10, 12-13, 15-16, 18-19 entry H          line    40 file /ddmfs1b/softs/psi4conda/share/psi4/basis/aug-cc-pvtz.gbs 


         ---------------------------------------------------------
                                   SCF
               by Justin Turney, Rob Parrish, Andy Simmonett
                          and Daniel G. A. Smith
                              RHF Reference
                       20 Threads,  57220 MiB Core
         ---------------------------------------------------------

  ==> Geometry <==

    Molecular point group: c1
    Full point group: C1

    Geometry (in Angstrom), charge = 0, multiplicity = 1:

       Center              X                  Y                   Z               Mass       
    ------------   -----------------  -----------------  -----------------  -----------------
      Gh(BR)          0.000000000000     0.000000000000     0.000000000000    78.918337600000
         O            1.877253000000    -0.925629000000    -2.503878000000    15.994914619570
         H            1.568959000000    -0.369866000000    -1.756608000000     1.007825032230
         H            1.769866000000    -1.829815000000    -2.152507000000     1.007825032230
      Gh(O)           0.170065000000     2.901916000000    -1.500734000000    15.994914619570
      Gh(H)          -0.216467000000     2.541833000000    -2.272789000000     1.007825032230
      Gh(H)           0.178509000000     2.130837000000    -0.924963000000     1.007825032230
      Gh(O)           0.283163000000    -1.282719000000     3.211734000000    15.994914619570
      Gh(H)           0.144151000000    -0.907789000000     2.345728000000     1.007825032230
      Gh(H)          -0.490220000000    -1.053040000000     3.745017000000     1.007825032230
      Gh(O)           3.272579000000    -0.761567000000     0.566827000000    15.994914619570
      Gh(H)           2.477722000000    -0.224904000000     0.466952000000     1.007825032230
      Gh(H)           2.968580000000    -1.638178000000     0.298848000000     1.007825032230
      Gh(O)           0.955461000000     2.446042000000     2.162195000000    15.994914619570
      Gh(H)           0.814632000000     1.637742000000     1.624264000000     1.007825032230
      Gh(H)           0.875880000000     2.278959000000     3.123204000000     1.007825032230
      Gh(O)          -1.258581000000    -1.316716000000    -3.035756000000    15.994914619570
      Gh(H)          -2.002288000000    -0.752139000000    -3.089390000000     1.007825032230
      Gh(H)          -0.819194000000    -1.250416000000    -2.138434000000     1.007825032230

  Running in c1 symmetry.

  Rotational constants: A =      0.02756  B =      0.01896  C =      0.01785 [cm^-1]
  Rotational constants: A =    826.27114  B =    568.31351  C =    535.25326 [MHz]
  Nuclear repulsion =    8.999849747219525

  Charge       = 0
  Multiplicity = 1
  Electrons    = 10
  Nalpha       = 5
  Nbeta        = 5

  ==> Algorithm <==

  SCF Algorithm Type is DF.
  DIIS enabled.
  MOM disabled.
  Fractional occupation disabled.
  Guess Type is SAD.
  Energy threshold   = 1.00e-08
  Density threshold  = 1.00e-08
  Integral threshold = 1.00e-12

  ==> Primary Basis <==

  Basis Set: AUG-CC-PVTZ
    Blend: AUG-CC-PVTZ
    Number of shells: 211
    Number of basis functions: 611
    Number of Cartesian functions: 699
    Spherical Harmonics?: true
    Max angular momentum: 3

   => Loading Basis Set <=

    Name: (AUG-CC-PVTZ AUX)
    Role: JKFIT
    Keyword: DF_BASIS_SCF
    atoms 1                                   entry BR         line  1492 file /ddmfs1b/softs/psi4conda/share/psi4/basis/aug-cc-pvtz-jkfit.gbs 
    atoms 2, 5, 8, 11, 14, 17                 entry O          line   286 file /ddmfs1b/softs/psi4conda/share/psi4/basis/aug-cc-pvtz-jkfit.gbs 
    atoms 3-4, 6-7, 9-10, 12-13, 15-16, 18-19 entry H          line    70 file /ddmfs1b/softs/psi4conda/share/psi4/basis/aug-cc-pvtz-jkfit.gbs 

  ==> Integral Setup <==

  DFHelper Memory: AOs need 3.504 GiB; user supplied 41.910 GiB. 
  Using in-core AOs.

  ==> MemDFJK: Density-Fitted J/K Matrices <==

    J tasked:                   Yes
    K tasked:                   Yes
    wK tasked:                   No
    OpenMP threads:              20
    Memory [MiB]:             42915
    Algorithm:                 Core
    Schwarz Cutoff:           1E-12
    Mask sparsity (%):      15.2148
    Fitting Condition:        1E-10

   => Auxiliary Basis Set <=

  Basis Set: (AUG-CC-PVTZ AUX)
    Blend: AUG-CC-PVTZ-JKFIT
    Number of shells: 406
    Number of basis functions: 1424
    Number of Cartesian functions: 1775
    Spherical Harmonics?: true
    Max angular momentum: 4

  Minimum eigenvalue in the overlap matrix is 9.7934083083E-05.
  Reciprocal condition number of the overlap matrix is 7.1585344804E-06.
    Using symmetric orthogonalization.

  ==> Pre-Iterations <==

  SCF Guess: Superposition of Atomic Densities via on-the-fly atomic UHF (no occupation information).

   -------------------------
    Irrep   Nso     Nmo    
   -------------------------
     A        611     611 
   -------------------------
    Total     611     611
   -------------------------

  ==> Iterations <==

                           Total Energy        Delta E     RMS |[F,P]|

   @DF-RHF iter SAD:   -75.45539615007320   -7.54554e+01   0.00000e+00 
   @DF-RHF iter   1:   -75.97285491551837   -5.17459e-01   7.64384e-04 DIIS/ADIIS
   @DF-RHF iter   2:   -76.02477949072873   -5.19246e-02   5.33428e-04 DIIS/ADIIS
   @DF-RHF iter   3:   -76.05785803234005   -3.30785e-02   3.63268e-05 DIIS
   @DF-RHF iter   4:   -76.05827280703399   -4.14775e-04   9.07027e-06 DIIS
   @DF-RHF iter   5:   -76.05830154604133   -2.87390e-05   2.10808e-06 DIIS
   @DF-RHF iter   6:   -76.05830397796151   -2.43192e-06   4.59898e-07 DIIS
   @DF-RHF iter   7:   -76.05830410321236   -1.25251e-07   7.97692e-08 DIIS
   @DF-RHF iter   8:   -76.05830410646593   -3.25356e-09   1.36467e-08 DIIS
   @DF-RHF iter   9:   -76.05830410654170   -7.57723e-11   3.41767e-09 DIIS
  Energy and wave function converged.


  ==> Post-Iterations <==

    Orbital Energies [Eh]
    ---------------------

    Doubly Occupied:                                                      

       1A    -20.571701     2A     -1.344222     3A     -0.702410  
       4A     -0.584741     5A     -0.509232  

    Virtual:                                                              

       6A      0.013685     7A      0.031197     8A      0.032637  
       9A      0.038444    10A      0.049798    11A      0.054748  
      12A      0.056864    13A      0.062949    14A      0.069785  
      15A      0.077287    16A      0.081995    17A      0.090760  
      18A      0.096149    19A      0.099115    20A      0.110542  
      21A      0.119543    22A      0.128986    23A      0.132884  
      24A      0.139059    25A      0.148923    26A      0.155259  
      27A      0.158941    28A      0.162278    29A      0.163658  
      30A      0.169700    31A      0.171912    32A      0.179502  
      33A      0.183314    34A      0.186044    35A      0.193052  
      36A      0.204841    37A      0.207369    38A      0.213273  
      39A      0.214007    40A      0.221386    41A      0.227524  
      42A      0.232532    43A      0.234491    44A      0.248984  
      45A      0.251059    46A      0.254196    47A      0.261481  
      48A      0.271255    49A      0.278015    50A      0.287702  
      51A      0.293444    52A      0.302168    53A      0.309502  
      54A      0.318199    55A      0.321621    56A      0.323120  
      57A      0.327156    58A      0.332928    59A      0.340061  
      60A      0.342768    61A      0.350186    62A      0.353474  
      63A      0.368445    64A      0.370649    65A      0.377093  
      66A      0.380578    67A      0.384048    68A      0.385481  
      69A      0.394975    70A      0.399263    71A      0.406158  
      72A      0.409754    73A      0.416368    74A      0.428705  
      75A      0.432122    76A      0.434264    77A      0.437419  
      78A      0.444117    79A      0.449270    80A      0.451484  
      81A      0.457053    82A      0.463235    83A      0.469000  
      84A      0.490398    85A      0.497832    86A      0.506700  
      87A      0.510270    88A      0.515362    89A      0.526753  
      90A      0.537514    91A      0.550730    92A      0.558482  
      93A      0.566245    94A      0.576638    95A      0.583057  
      96A      0.599462    97A      0.608577    98A      0.622236  
      99A      0.630338   100A      0.643295   101A      0.649275  
     102A      0.674164   103A      0.689131   104A      0.693738  
     105A      0.701363   106A      0.711042   107A      0.716218  
     108A      0.722181   109A      0.733267   110A      0.741891  
     111A      0.754010   112A      0.759778   113A      0.767914  
     114A      0.768428   115A      0.777421   116A      0.784975  
     117A      0.788579   118A      0.796824   119A      0.799351  
     120A      0.805860   121A      0.815935   122A      0.817339  
     123A      0.820156   124A      0.826307   125A      0.830027  
     126A      0.838670   127A      0.843556   128A      0.847171  
     129A      0.851256   130A      0.855617   131A      0.862492  
     132A      0.869086   133A      0.875224   134A      0.880215  
     135A      0.887057   136A      0.896283   137A      0.897154  
     138A      0.902640   139A      0.904810   140A      0.907007  
     141A      0.921064   142A      0.923906   143A      0.929910  
     144A      0.939193   145A      0.945900   146A      0.950801  
     147A      0.956156   148A      0.957004   149A      0.964546  
     150A      0.967298   151A      0.970413   152A      0.976770  
     153A      0.988714   154A      0.990445   155A      0.996479  
     156A      1.000498   157A      1.008314   158A      1.011635  
     159A      1.016881   160A      1.021847   161A      1.030775  
     162A      1.034321   163A      1.041320   164A      1.047060  
     165A      1.051507   166A      1.059312   167A      1.062405  
     168A      1.072821   169A      1.075961   170A      1.078764  
     171A      1.085935   172A      1.092475   173A      1.100770  
     174A      1.106672   175A      1.110838   176A      1.119247  
     177A      1.124522   178A      1.131049   179A      1.142595  
     180A      1.152454   181A      1.162995   182A      1.168667  
     183A      1.173025   184A      1.177536   185A      1.188678  
     186A      1.203755   187A      1.209187   188A      1.216120  
     189A      1.229837   190A      1.231238   191A      1.242640  
     192A      1.251789   193A      1.258661   194A      1.264239  
     195A      1.276337   196A      1.280395   197A      1.288863  
     198A      1.298020   199A      1.301249   200A      1.322414  
     201A      1.325393   202A      1.330167   203A      1.347651  
     204A      1.361162   205A      1.364185   206A      1.368668  
     207A      1.377546   208A      1.387929   209A      1.411852  
     210A      1.420723   211A      1.425016   212A      1.434718  
     213A      1.444697   214A      1.450349   215A      1.458046  
     216A      1.466511   217A      1.477887   218A      1.492800  
     219A      1.497966   220A      1.505558   221A      1.519306  
     222A      1.532439   223A      1.542374   224A      1.549878  
     225A      1.557891   226A      1.569872   227A      1.574917  
     228A      1.589560   229A      1.621701   230A      1.632131  
     231A      1.640912   232A      1.651494   233A      1.663279  
     234A      1.681630   235A      1.705181   236A      1.714652  
     237A      1.724682   238A      1.727730   239A      1.741200  
     240A      1.747993   241A      1.761350   242A      1.768689  
     243A      1.784080   244A      1.791684   245A      1.795328  
     246A      1.808280   247A      1.810266   248A      1.820575  
     249A      1.825806   250A      1.834502   251A      1.840734  
     252A      1.854036   253A      1.862304   254A      1.868120  
     255A      1.873713   256A      1.889401   257A      1.897823  
     258A      1.902180   259A      1.912779   260A      1.928031  
     261A      1.935589   262A      1.940652   263A      1.957985  
     264A      1.965561   265A      1.975928   266A      1.995239  
     267A      2.000566   268A      2.021646   269A      2.041773  
     270A      2.045997   271A      2.058592   272A      2.077121  
     273A      2.098485   274A      2.102645   275A      2.109048  
     276A      2.178242   277A      2.192586   278A      2.232739  
     279A      2.318431   280A      2.387682   281A      2.429253  
     282A      2.432088   283A      2.459162   284A      2.466786  
     285A      2.472159   286A      2.478133   287A      2.480616  
     288A      2.487415   289A      2.504142   290A      2.513460  
     291A      2.523847   292A      2.534264   293A      2.557267  
     294A      2.562452   295A      2.566004   296A      2.584501  
     297A      2.589400   298A      2.601881   299A      2.608349  
     300A      2.609995   301A      2.624882   302A      2.630006  
     303A      2.640022   304A      2.652108   305A      2.656654  
     306A      2.660028   307A      2.669413   308A      2.676930  
     309A      2.684507   310A      2.688633   311A      2.696622  
     312A      2.706529   313A      2.718186   314A      2.722249  
     315A      2.726123   316A      2.739846   317A      2.750886  
     318A      2.767075   319A      2.774803   320A      2.781017  
     321A      2.801904   322A      2.813665   323A      2.830730  
     324A      2.835785   325A      2.849316   326A      2.865455  
     327A      2.884986   328A      2.896235   329A      2.897938  
     330A      2.940174   331A      2.959130   332A      2.989680  
     333A      3.018104   334A      3.026056   335A      3.042816  
     336A      3.059021   337A      3.076589   338A      3.162634  
     339A      3.174114   340A      3.185467   341A      3.201234  
     342A      3.208404   343A      3.213010   344A      3.226443  
     345A      3.228880   346A      3.245234   347A      3.250326  
     348A      3.257982   349A      3.275127   350A      3.278529  
     351A      3.287881   352A      3.305423   353A      3.320130  
     354A      3.335916   355A      3.359026   356A      3.386753  
     357A      3.400440   358A      3.415788   359A      3.429592  
     360A      3.453674   361A      3.460579   362A      3.464754  
     363A      3.490685   364A      3.501310   365A      3.539423  
     366A      3.547069   367A      3.562121   368A      3.578072  
     369A      3.581293   370A      3.611762   371A      3.619345  
     372A      3.622769   373A      3.655116   374A      3.668879  
     375A      3.695944   376A      3.711084   377A      3.728236  
     378A      3.735806   379A      3.763159   380A      3.789426  
     381A      3.805384   382A      3.828105   383A      3.849286  
     384A      3.871172   385A      3.887841   386A      3.900880  
     387A      3.938142   388A      3.977422   389A      4.071364  
     390A      4.188357   391A      4.241421   392A      4.282141  
     393A      4.296583   394A      4.338960   395A      4.364072  
     396A      4.367151   397A      4.407440   398A      4.416386  
     399A      4.444437   400A      4.470227   401A      4.473657  
     402A      4.484995   403A      4.493499   404A      4.506220  
     405A      4.509548   406A      4.516787   407A      4.529508  
     408A      4.546362   409A      4.566610   410A      4.571634  
     411A      4.587410   412A      4.601643   413A      4.605839  
     414A      4.614291   415A      4.623157   416A      4.628926  
     417A      4.641599   418A      4.669404   419A      4.683570  
     420A      4.703998   421A      4.711792   422A      4.723331  
     423A      4.736450   424A      4.748519   425A      4.790299  
     426A      4.817202   427A      4.829649   428A      4.858332  
     429A      4.876865   430A      4.881289   431A      4.894717  
     432A      4.899198   433A      4.914283   434A      4.923205  
     435A      4.932350   436A      4.941336   437A      4.951490  
     438A      4.966675   439A      4.973808   440A      4.994466  
     441A      5.027222   442A      5.045040   443A      5.049741  
     444A      5.062838   445A      5.132641   446A      5.158743  
     447A      5.175259   448A      5.188551   449A      5.223544  
     450A      5.230972   451A      5.260688   452A      5.289954  
     453A      5.348387   454A      5.364381   455A      5.377410  
     456A      5.467510   457A      5.495992   458A      5.513778  
     459A      5.525417   460A      5.540326   461A      5.568812  
     462A      5.588111   463A      5.616283   464A      5.637677  
     465A      5.652748   466A      5.655448   467A      5.667076  
     468A      5.671366   469A      5.688781   470A      5.699386  
     471A      5.730203   472A      5.754188   473A      5.771328  
     474A      5.810683   475A      5.881143   476A      5.892775  
     477A      5.981948   478A      6.149273   479A      6.154309  
     480A      6.164699   481A      6.173337   482A      6.199034  
     483A      6.331719   484A      6.342179   485A      6.388525  
     486A      6.460376   487A      6.466298   488A      6.483257  
     489A      6.580859   490A      6.653089   491A      6.752912  
     492A      6.765147   493A      6.771533   494A      6.847319  
     495A      6.857936   496A      6.981742   497A      7.032400  
     498A      7.093089   499A      7.119213   500A      7.130804  
     501A      7.187691   502A      7.209452   503A      7.305604  
     504A      7.323613   505A      7.361052   506A      7.471022  
     507A      7.493806   508A      7.658090   509A      7.675486  
     510A      7.722536   511A      7.735714   512A      7.750220  
     513A      7.771257   514A      7.785039   515A      7.796118  
     516A      7.821162   517A      7.896604   518A      7.946745  
     519A      7.968547   520A      7.981775   521A      8.070706  
     522A      8.077597   523A      8.098577   524A      8.116071  
     525A      8.135802   526A      8.219584   527A      8.224182  
     528A      8.236308   529A      8.245815   530A      8.289829  
     531A      8.291769   532A      8.314210   533A      8.338740  
     534A      8.342869   535A      8.352302   536A      8.705284  
     537A      8.767361   538A      8.778871   539A      8.784723  
     540A      8.808045   541A      8.891282   542A      8.922546  
     543A      8.931245   544A      8.963144   545A      9.033404  
     546A      9.060648   547A      9.694898   548A      9.716276  
     549A      9.731067   550A      9.753617   551A      9.798347  
     552A      9.852330   553A      9.876138   554A      9.885588  
     555A      9.908295   556A      9.931546   557A     10.059198  
     558A     10.071232   559A     10.079101   560A     10.094992  
     561A     10.121918   562A     10.247999   563A     10.265415  
     564A     10.275574   565A     10.364169   566A     10.377486  
     567A     11.031935   568A     11.056078   569A     11.205393  
     570A     11.222636   571A     11.352552   572A     11.495063  
     573A     11.704308   574A     11.747495   575A     11.772234  
     576A     11.793133   577A     11.804874   578A     12.027637  
     579A     12.156573   580A     12.204362   581A     12.227663  
     582A     12.356641   583A     13.492099   584A     13.590030  
     585A     13.627088   586A     13.653143   587A     13.731072  
     588A     13.901950   589A     13.916225   590A     13.943204  
     591A     13.954906   592A     13.995626   593A     14.036766  
     594A     14.096107   595A     14.216331   596A     16.102996  
     597A     26.358105   598A     26.484179   599A     26.588803  
     600A     26.656762   601A     26.752709   602A     46.822132  
     603A     65.353960   604A     65.640268   605A     66.131825  
     606A     66.520852   607A     67.457229   608A    139.123475  
     609A    139.282451   610A    139.541289   611A    712.810349  

    Final Occupation by Irrep:
              A 
    DOCC [     5 ]
    NA   [     5 ]
    NB   [     5 ]

  @DF-RHF Final Energy:   -76.05830410654170

   => Energetics <=

    Nuclear Repulsion Energy =              8.9998497472195247
    One-Electron Energy =                -122.6916902540580736
    Two-Electron Energy =                  37.6335364002968475
    Total Energy =                        -76.0583041065416978

Computation Completed


Properties will be evaluated at   0.000000,   0.000000,   0.000000 [a0]

Properties computed using the SCF density matrix


 Multipole Moments:

 ------------------------------------------------------------------------------------
     Multipole            Electronic (a.u.)      Nuclear  (a.u.)        Total (a.u.)
 ------------------------------------------------------------------------------------

 L = 1.  Multiply by 2.5417464519 to convert [e a0] to [Debye]
 Dipole X            :        -34.9604743           34.6894171           -0.2710571
 Dipole Y            :         17.9223190          -18.1502771           -0.2279581
 Dipole Z            :         45.9572053          -45.2403061            0.7168992
 Magnitude           :                                                    0.7996132

 ------------------------------------------------------------------------------------

*** tstop() called on ddmfs1 at Tue Jan 23 01:16:44 2024
Module time:
	user time   =     149.20 seconds =       2.49 minutes
	system time =       8.72 seconds =       0.15 minutes
	total time  =         11 seconds =       0.18 minutes
Total time:
	user time   =     149.20 seconds =       2.49 minutes
	system time =       8.72 seconds =       0.15 minutes
	total time  =         11 seconds =       0.18 minutes

*** tstart() called on ddmfs1
*** at Tue Jan 23 01:16:44 2024


  //>>>>>>>>>>>>>>>>>>>>>>>>>>>>>>>>>>>//
  //               DFMP2               //
  //<<<<<<<<<<<<<<<<<<<<<<<<<<<<<<<<<<<//

   => Loading Basis Set <=

    Name: (AUG-CC-PVTZ AUX)
    Role: RIFIT
    Keyword: DF_BASIS_MP2
    atoms 1                                   entry BR         line  1248 file /ddmfs1b/softs/psi4conda/share/psi4/basis/aug-cc-pvtz-ri.gbs 
    atoms 2, 5, 8, 11, 14, 17                 entry O          line   264 file /ddmfs1b/softs/psi4conda/share/psi4/basis/aug-cc-pvtz-ri.gbs 
    atoms 3-4, 6-7, 9-10, 12-13, 15-16, 18-19 entry H          line    30 file /ddmfs1b/softs/psi4conda/share/psi4/basis/aug-cc-pvtz-ri.gbs 

	 --------------------------------------------------------
	                          DF-MP2                         
	      2nd-Order Density-Fitted Moller-Plesset Theory     
	              RMP2 Wavefunction,  20 Threads             
	                                                         
	        Rob Parrish, Justin Turney, Andy Simmonett,      
	           Ed Hohenstein, and C. David Sherrill          
	 --------------------------------------------------------

   => Auxiliary Basis Set <=

  Basis Set: (AUG-CC-PVTZ AUX)
    Blend: AUG-CC-PVTZ-RI
    Number of shells: 379
    Number of basis functions: 1379
    Number of Cartesian functions: 1737
    Spherical Harmonics?: true
    Max angular momentum: 5

	 --------------------------------------------------------
	                 NBF =   611, NAUX =  1379
	 --------------------------------------------------------
	   CLASS    FOCC     OCC    AOCC    AVIR     VIR    FVIR
	   PAIRS       0       5       5     606     606       0
	 --------------------------------------------------------

	-----------------------------------------------------------
	 ==================> DF-MP2 Energies <==================== 
	-----------------------------------------------------------
	 Reference Energy          =     -76.0583041065416978 [Eh]
	 Singles Energy            =      -0.0000000000000000 [Eh]
	 Same-Spin Energy          =      -0.0688253900064849 [Eh]
	 Opposite-Spin Energy      =      -0.2172294357599832 [Eh]
	 Correlation Energy        =      -0.2860548257664681 [Eh]
	 Total Energy              =     -76.3443589323081682 [Eh]
	-----------------------------------------------------------
	 ================> DF-SCS-MP2 Energies <================== 
	-----------------------------------------------------------
	 SCS Same-Spin Scale       =       0.3333333333333333 [-]
	 SCS Opposite-Spin Scale   =       1.2000000000000000 [-]
	 SCS Same-Spin Energy      =      -0.0229417966688283 [Eh]
	 SCS Opposite-Spin Energy  =      -0.2606753229119798 [Eh]
	 SCS Correlation Energy    =      -0.2836171195808080 [Eh]
	 SCS Total Energy          =     -76.3419212261225084 [Eh]
	-----------------------------------------------------------


*** tstop() called on ddmfs1 at Tue Jan 23 01:16:58 2024
Module time:
	user time   =      44.12 seconds =       0.74 minutes
	system time =       3.14 seconds =       0.05 minutes
	total time  =         14 seconds =       0.23 minutes
Total time:
	user time   =     193.33 seconds =       3.22 minutes
	system time =      11.86 seconds =       0.20 minutes
	total time  =         25 seconds =       0.42 minutes

    Psi4 stopped on: Tuesday, 23 January 2024 01:16AM
    Psi4 wall time for execution: 0:00:25.30

*** Psi4 exiting successfully. Buy a developer a beer!
