
    -----------------------------------------------------------------------
          Psi4: An Open-Source Ab Initio Electronic Structure Package
                               Psi4 1.8.2 release

                         Git: Rev {} zzzzzzz 


    D. G. A. Smith, L. A. Burns, A. C. Simmonett, R. M. Parrish,
    M. C. Schieber, R. Galvelis, P. Kraus, H. Kruse, R. Di Remigio,
    A. Alenaizan, A. M. James, S. Lehtola, J. P. Misiewicz, M. Scheurer,
    R. A. Shaw, J. B. Schriber, Y. Xie, Z. L. Glick, D. A. Sirianni,
    J. S. O'Brien, J. M. Waldrop, A. Kumar, E. G. Hohenstein,
    B. P. Pritchard, B. R. Brooks, H. F. Schaefer III, A. Yu. Sokolov,
    K. Patkowski, A. E. DePrince III, U. Bozkaya, R. A. King,
    F. A. Evangelista, J. M. Turney, T. D. Crawford, C. D. Sherrill,
    J. Chem. Phys. 152(18) 184108 (2020). https://doi.org/10.1063/5.0006002

                            Additional Code Authors
    E. T. Seidl, C. L. Janssen, E. F. Valeev, M. L. Leininger,
    J. F. Gonthier, R. M. Richard, H. R. McAlexander, M. Saitow, X. Wang,
    P. Verma, M. H. Lechner, A. Jiang, S. Behnle, A. G. Heide,
    M. F. Herbst, and D. L. Poole

             Previous Authors, Complete List of Code Contributors,
                       and Citations for Specific Modules
    https://github.com/psi4/psi4/blob/master/codemeta.json
    https://github.com/psi4/psi4/graphs/contributors
    http://psicode.org/psi4manual/master/introduction.html#citing-psifour

    -----------------------------------------------------------------------


    Psi4 started on: Monday, 22 January 2024 11:58PM

    Process ID: 118947
    Host:       ddmfs1
    PSIDATADIR: /ddmfs1b/softs/psi4conda/share/psi4
    Memory:     500.0 MiB
    Threads:    20
    
  ==> Input File <==

--------------------------------------------------------------------------
MEMORY 60 GB

molecule dimer {
0 1
Gh(Br)     0.000000     0.000000     0.000000
Gh(O)      1.214755     2.032402     2.352565
Gh(H)      0.843379     1.290858     1.788319
Gh(H)      2.176535     2.115299     2.233161
O         -1.899098     2.893105     0.263373
H         -2.377616     3.120026    -0.530168
H         -1.651951     1.952131     0.230723
Gh(O)      1.184394     2.722133    -1.786102
Gh(H)      0.888960     1.954533    -1.303810
Gh(H)      0.985690     3.441294    -1.194986
Gh(O)     -3.316529    -1.099441    -0.081057
Gh(H)     -2.506499    -0.600404    -0.183707
Gh(H)     -3.485828    -1.108557     0.900656

units ang
no_reorient
no_com
symmetry c1
}

set {
basis        aug-cc-pVTZ
scf_type     df
}

energy("mp2")
--------------------------------------------------------------------------

  Memory set to  55.879 GiB by Python driver.

Scratch directory: /ddmfs1a/scratch/
   => Libint2 <=

    Primary   basis highest AM E, G, H:  5, 4, 3
    Auxiliary basis highest AM E, G, H:  6, 5, 4
    Onebody   basis highest AM E, G, H:  6, 5, 4
    Solid Harmonics ordering:            gaussian

*** tstart() called on ddmfs1
*** at Mon Jan 22 23:58:06 2024

   => Loading Basis Set <=

    Name: AUG-CC-PVTZ
    Role: ORBITAL
    Keyword: BASIS
    atoms 1                     entry BR         line  4208 file /ddmfs1b/softs/psi4conda/share/psi4/basis/aug-cc-pvtz.gbs 
    atoms 2, 5, 8, 11           entry O          line   331 file /ddmfs1b/softs/psi4conda/share/psi4/basis/aug-cc-pvtz.gbs 
    atoms 3-4, 6-7, 9-10, 12-13 entry H          line    40 file /ddmfs1b/softs/psi4conda/share/psi4/basis/aug-cc-pvtz.gbs 


         ---------------------------------------------------------
                                   SCF
               by Justin Turney, Rob Parrish, Andy Simmonett
                          and Daniel G. A. Smith
                              RHF Reference
                       20 Threads,  57220 MiB Core
         ---------------------------------------------------------

  ==> Geometry <==

    Molecular point group: c1
    Full point group: C1

    Geometry (in Angstrom), charge = 0, multiplicity = 1:

       Center              X                  Y                   Z               Mass       
    ------------   -----------------  -----------------  -----------------  -----------------
      Gh(BR)          0.000000000000     0.000000000000     0.000000000000    78.918337600000
      Gh(O)           1.214755000000     2.032402000000     2.352565000000    15.994914619570
      Gh(H)           0.843379000000     1.290858000000     1.788319000000     1.007825032230
      Gh(H)           2.176535000000     2.115299000000     2.233161000000     1.007825032230
         O           -1.899098000000     2.893105000000     0.263373000000    15.994914619570
         H           -2.377616000000     3.120026000000    -0.530168000000     1.007825032230
         H           -1.651951000000     1.952131000000     0.230723000000     1.007825032230
      Gh(O)           1.184394000000     2.722133000000    -1.786102000000    15.994914619570
      Gh(H)           0.888960000000     1.954533000000    -1.303810000000     1.007825032230
      Gh(H)           0.985690000000     3.441294000000    -1.194986000000     1.007825032230
      Gh(O)          -3.316529000000    -1.099441000000    -0.081057000000    15.994914619570
      Gh(H)          -2.506499000000    -0.600404000000    -0.183707000000     1.007825032230
      Gh(H)          -3.485828000000    -1.108557000000     0.900656000000     1.007825032230

  Running in c1 symmetry.

  Rotational constants: A =      0.03982  B =      0.02950  C =      0.02444 [cm^-1]
  Rotational constants: A =   1193.80127  B =    884.32381  C =    732.58324 [MHz]
  Nuclear repulsion =    9.123066983718626

  Charge       = 0
  Multiplicity = 1
  Electrons    = 10
  Nalpha       = 5
  Nbeta        = 5

  ==> Algorithm <==

  SCF Algorithm Type is DF.
  DIIS enabled.
  MOM disabled.
  Fractional occupation disabled.
  Guess Type is SAD.
  Energy threshold   = 1.00e-08
  Density threshold  = 1.00e-08
  Integral threshold = 1.00e-12

  ==> Primary Basis <==

  Basis Set: AUG-CC-PVTZ
    Blend: AUG-CC-PVTZ
    Number of shells: 147
    Number of basis functions: 427
    Number of Cartesian functions: 489
    Spherical Harmonics?: true
    Max angular momentum: 3

   => Loading Basis Set <=

    Name: (AUG-CC-PVTZ AUX)
    Role: JKFIT
    Keyword: DF_BASIS_SCF
    atoms 1                     entry BR         line  1492 file /ddmfs1b/softs/psi4conda/share/psi4/basis/aug-cc-pvtz-jkfit.gbs 
    atoms 2, 5, 8, 11           entry O          line   286 file /ddmfs1b/softs/psi4conda/share/psi4/basis/aug-cc-pvtz-jkfit.gbs 
    atoms 3-4, 6-7, 9-10, 12-13 entry H          line    70 file /ddmfs1b/softs/psi4conda/share/psi4/basis/aug-cc-pvtz-jkfit.gbs 

  ==> Integral Setup <==

  DFHelper Memory: AOs need 1.324 GiB; user supplied 41.910 GiB. 
  Using in-core AOs.

  ==> MemDFJK: Density-Fitted J/K Matrices <==

    J tasked:                   Yes
    K tasked:                   Yes
    wK tasked:                   No
    OpenMP threads:              20
    Memory [MiB]:             42915
    Algorithm:                 Core
    Schwarz Cutoff:           1E-12
    Mask sparsity (%):      10.6829
    Fitting Condition:        1E-10

   => Auxiliary Basis Set <=

  Basis Set: (AUG-CC-PVTZ AUX)
    Blend: AUG-CC-PVTZ-JKFIT
    Number of shells: 290
    Number of basis functions: 1032
    Number of Cartesian functions: 1293
    Spherical Harmonics?: true
    Max angular momentum: 4

  Minimum eigenvalue in the overlap matrix is 2.0385118005E-04.
  Reciprocal condition number of the overlap matrix is 1.7909142806E-05.
    Using symmetric orthogonalization.

  ==> Pre-Iterations <==

  SCF Guess: Superposition of Atomic Densities via on-the-fly atomic UHF (no occupation information).

   -------------------------
    Irrep   Nso     Nmo    
   -------------------------
     A        427     427 
   -------------------------
    Total     427     427
   -------------------------

  ==> Iterations <==

                           Total Energy        Delta E     RMS |[F,P]|

   @DF-RHF iter SAD:   -75.46590302057865   -7.54659e+01   0.00000e+00 
   @DF-RHF iter   1:   -75.97558180190907   -5.09679e-01   1.09653e-03 ADIIS/DIIS
   @DF-RHF iter   2:   -76.02779086573163   -5.22091e-02   7.47843e-04 ADIIS/DIIS
   @DF-RHF iter   3:   -76.05923771364789   -3.14468e-02   5.09001e-05 DIIS
   @DF-RHF iter   4:   -76.05963847239835   -4.00759e-04   1.23274e-05 DIIS
   @DF-RHF iter   5:   -76.05966397866767   -2.55063e-05   2.80386e-06 DIIS
   @DF-RHF iter   6:   -76.05966610287820   -2.12421e-06   6.28893e-07 DIIS
   @DF-RHF iter   7:   -76.05966622150012   -1.18622e-07   1.18987e-07 DIIS
   @DF-RHF iter   8:   -76.05966622524602   -3.74590e-09   1.97884e-08 DIIS
   @DF-RHF iter   9:   -76.05966622532918   -8.31619e-11   5.00739e-09 DIIS
  Energy and wave function converged.


  ==> Post-Iterations <==

    Orbital Energies [Eh]
    ---------------------

    Doubly Occupied:                                                      

       1A    -20.566071     2A     -1.347005     3A     -0.723008  
       4A     -0.574460     5A     -0.508381  

    Virtual:                                                              

       6A      0.017318     7A      0.034950     8A      0.037762  
       9A      0.044046    10A      0.055494    11A      0.058710  
      12A      0.068333    13A      0.074921    14A      0.091014  
      15A      0.100694    16A      0.106862    17A      0.113167  
      18A      0.130117    19A      0.140594    20A      0.147747  
      21A      0.150982    22A      0.156942    23A      0.163889  
      24A      0.165172    25A      0.172943    26A      0.177215  
      27A      0.183842    28A      0.187369    29A      0.204294  
      30A      0.206223    31A      0.218307    32A      0.224432  
      33A      0.241516    34A      0.247786    35A      0.258878  
      36A      0.267791    37A      0.285428    38A      0.289332  
      39A      0.291057    40A      0.298949    41A      0.310193  
      42A      0.315870    43A      0.323396    44A      0.328172  
      45A      0.333274    46A      0.342782    47A      0.350136  
      48A      0.355264    49A      0.359646    50A      0.377799  
      51A      0.378911    52A      0.388027    53A      0.398840  
      54A      0.403423    55A      0.404020    56A      0.412326  
      57A      0.415833    58A      0.434845    59A      0.440015  
      60A      0.447114    61A      0.460360    62A      0.467480  
      63A      0.473187    64A      0.486503    65A      0.494015  
      66A      0.511428    67A      0.522638    68A      0.537943  
      69A      0.556819    70A      0.564662    71A      0.574727  
      72A      0.582019    73A      0.597745    74A      0.613267  
      75A      0.669240    76A      0.683050    77A      0.701459  
      78A      0.720242    79A      0.735519    80A      0.736582  
      81A      0.742901    82A      0.747563    83A      0.757787  
      84A      0.762590    85A      0.781893    86A      0.790229  
      87A      0.793520    88A      0.796277    89A      0.811407  
      90A      0.812383    91A      0.816135    92A      0.818495  
      93A      0.825963    94A      0.828316    95A      0.844350  
      96A      0.852925    97A      0.861679    98A      0.867897  
      99A      0.875139   100A      0.883746   101A      0.888886  
     102A      0.894863   103A      0.898768   104A      0.913331  
     105A      0.917759   106A      0.926814   107A      0.935828  
     108A      0.946900   109A      0.951936   110A      0.955700  
     111A      0.963783   112A      0.970829   113A      0.985899  
     114A      0.987963   115A      0.990908   116A      1.005039  
     117A      1.010232   118A      1.013751   119A      1.021067  
     120A      1.027805   121A      1.035430   122A      1.043619  
     123A      1.056613   124A      1.060265   125A      1.071824  
     126A      1.074994   127A      1.087908   128A      1.102054  
     129A      1.113147   130A      1.118313   131A      1.125058  
     132A      1.130114   133A      1.131278   134A      1.153344  
     135A      1.161418   136A      1.179564   137A      1.183680  
     138A      1.190879   139A      1.213456   140A      1.215782  
     141A      1.232497   142A      1.237956   143A      1.249163  
     144A      1.259250   145A      1.271644   146A      1.288789  
     147A      1.308695   148A      1.328088   149A      1.339823  
     150A      1.347167   151A      1.355250   152A      1.362076  
     153A      1.387985   154A      1.389882   155A      1.411233  
     156A      1.433060   157A      1.454885   158A      1.456432  
     159A      1.477224   160A      1.489045   161A      1.497064  
     162A      1.513522   163A      1.530747   164A      1.553830  
     165A      1.560623   166A      1.605898   167A      1.611831  
     168A      1.642646   169A      1.661637   170A      1.665602  
     171A      1.689134   172A      1.696578   173A      1.716614  
     174A      1.751063   175A      1.754536   176A      1.760715  
     177A      1.775000   178A      1.782223   179A      1.798422  
     180A      1.815886   181A      1.827952   182A      1.842969  
     183A      1.858302   184A      1.865164   185A      1.887298  
     186A      1.904709   187A      1.914084   188A      1.918725  
     189A      1.932639   190A      1.947260   191A      1.964548  
     192A      1.974374   193A      2.010202   194A      2.079687  
     195A      2.098607   196A      2.111483   197A      2.157557  
     198A      2.326727   199A      2.372183   200A      2.401569  
     201A      2.437670   202A      2.443933   203A      2.466368  
     204A      2.470542   205A      2.479533   206A      2.496190  
     207A      2.503938   208A      2.504920   209A      2.521623  
     210A      2.530427   211A      2.562382   212A      2.572430  
     213A      2.587300   214A      2.593143   215A      2.612425  
     216A      2.626636   217A      2.634828   218A      2.646301  
     219A      2.659945   220A      2.660816   221A      2.669351  
     222A      2.678391   223A      2.686258   224A      2.691719  
     225A      2.712248   226A      2.736553   227A      2.748448  
     228A      2.763728   229A      2.780513   230A      2.822768  
     231A      2.829757   232A      2.884775   233A      2.911646  
     234A      2.949773   235A      2.975631   236A      2.991395  
     237A      3.033939   238A      3.087997   239A      3.121058  
     240A      3.160173   241A      3.167752   242A      3.175318  
     243A      3.193326   244A      3.200645   245A      3.214730  
     246A      3.229463   247A      3.250593   248A      3.269950  
     249A      3.293807   250A      3.315221   251A      3.328260  
     252A      3.342626   253A      3.365177   254A      3.387223  
     255A      3.400947   256A      3.409842   257A      3.429905  
     258A      3.431942   259A      3.452620   260A      3.493897  
     261A      3.511906   262A      3.525900   263A      3.541074  
     264A      3.575146   265A      3.593238   266A      3.638524  
     267A      3.650915   268A      3.656480   269A      3.682471  
     270A      3.722956   271A      3.779502   272A      3.808391  
     273A      3.834049   274A      3.876210   275A      3.930450  
     276A      3.984721   277A      4.093154   278A      4.260577  
     279A      4.267710   280A      4.305321   281A      4.362408  
     282A      4.379596   283A      4.422210   284A      4.428721  
     285A      4.431762   286A      4.454682   287A      4.479214  
     288A      4.489630   289A      4.490829   290A      4.499043  
     291A      4.525960   292A      4.537886   293A      4.544379  
     294A      4.574614   295A      4.594391   296A      4.628339  
     297A      4.638713   298A      4.646305   299A      4.655188  
     300A      4.712374   301A      4.727110   302A      4.788096  
     303A      4.820054   304A      4.831092   305A      4.879715  
     306A      4.886757   307A      4.907176   308A      4.913602  
     309A      4.920301   310A      4.942358   311A      4.955987  
     312A      4.980568   313A      5.001969   314A      5.126880  
     315A      5.152199   316A      5.169708   317A      5.182968  
     318A      5.228127   319A      5.259140   320A      5.373023  
     321A      5.387581   322A      5.418927   323A      5.473439  
     324A      5.496175   325A      5.510066   326A      5.522272  
     327A      5.607518   328A      5.625109   329A      5.669839  
     330A      5.672388   331A      5.688916   332A      5.736616  
     333A      5.796722   334A      5.809695   335A      5.917192  
     336A      6.130360   337A      6.145746   338A      6.154264  
     339A      6.183806   340A      6.275622   341A      6.358395  
     342A      6.466341   343A      6.575617   344A      6.590881  
     345A      6.715469   346A      6.727734   347A      6.799752  
     348A      6.885369   349A      6.994638   350A      7.049875  
     351A      7.157583   352A      7.182659   353A      7.314568  
     354A      7.328161   355A      7.376680   356A      7.422799  
     357A      7.510169   358A      7.676851   359A      7.693348  
     360A      7.722050   361A      7.742330   362A      7.765061  
     363A      7.809979   364A      7.886427   365A      7.912905  
     366A      8.004947   367A      8.034855   368A      8.077800  
     369A      8.103535   370A      8.159833   371A      8.217242  
     372A      8.227995   373A      8.248996   374A      8.257791  
     375A      8.320972   376A      8.666131   377A      8.701937  
     378A      8.777599   379A      8.816146   380A      8.855170  
     381A      8.886265   382A      9.042598   383A      9.675345  
     384A      9.688973   385A      9.745068   386A      9.858572  
     387A      9.867608   388A      9.884833   389A     10.058387  
     390A     10.063420   391A     10.084018   392A     10.223295  
     393A     10.272695   394A     10.310397   395A     10.752604  
     396A     10.994785   397A     11.082133   398A     11.308691  
     399A     11.715431   400A     11.730202   401A     11.750371  
     402A     11.926145   403A     12.025742   404A     12.266174  
     405A     13.408631   406A     13.470458   407A     13.655743  
     408A     13.753417   409A     13.778677   410A     13.898162  
     411A     13.944656   412A     14.022228   413A     14.048806  
     414A     16.301266   415A     26.264367   416A     26.314216  
     417A     26.400811   418A     26.512597   419A     26.545262  
     420A     46.306048   421A     64.562760   422A     65.270176  
     423A     67.031711   424A    138.867792   425A    138.965450  
     426A    139.228962   427A    711.163906  

    Final Occupation by Irrep:
              A 
    DOCC [     5 ]
    NA   [     5 ]
    NB   [     5 ]

  @DF-RHF Final Energy:   -76.05966622532918

   => Energetics <=

    Nuclear Repulsion Energy =              9.1230669837186262
    One-Electron Energy =                -122.9276132207283752
    Two-Electron Energy =                  37.7448800116805643
    Total Energy =                        -76.0596662253291811

Computation Completed


Properties will be evaluated at   0.000000,   0.000000,   0.000000 [a0]

Properties computed using the SCF density matrix


 Multipole Moments:

 ------------------------------------------------------------------------------------
     Multipole            Electronic (a.u.)      Nuclear  (a.u.)        Total (a.u.)
 ------------------------------------------------------------------------------------

 L = 1.  Multiply by 2.5417464519 to convert [e a0] to [Debye]
 Dipole X            :         36.1678229          -36.3249789           -0.1571559
 Dipole Y            :        -53.8006784           53.3223964           -0.4782820
 Dipole Z            :         -3.9724751            3.4157537           -0.5567214
 Magnitude           :                                                    0.7505933

 ------------------------------------------------------------------------------------

*** tstop() called on ddmfs1 at Mon Jan 22 23:58:12 2024
Module time:
	user time   =      70.29 seconds =       1.17 minutes
	system time =       5.83 seconds =       0.10 minutes
	total time  =          6 seconds =       0.10 minutes
Total time:
	user time   =      70.29 seconds =       1.17 minutes
	system time =       5.83 seconds =       0.10 minutes
	total time  =          6 seconds =       0.10 minutes

*** tstart() called on ddmfs1
*** at Mon Jan 22 23:58:12 2024


  //>>>>>>>>>>>>>>>>>>>>>>>>>>>>>>>>>>>//
  //               DFMP2               //
  //<<<<<<<<<<<<<<<<<<<<<<<<<<<<<<<<<<<//

   => Loading Basis Set <=

    Name: (AUG-CC-PVTZ AUX)
    Role: RIFIT
    Keyword: DF_BASIS_MP2
    atoms 1                     entry BR         line  1248 file /ddmfs1b/softs/psi4conda/share/psi4/basis/aug-cc-pvtz-ri.gbs 
    atoms 2, 5, 8, 11           entry O          line   264 file /ddmfs1b/softs/psi4conda/share/psi4/basis/aug-cc-pvtz-ri.gbs 
    atoms 3-4, 6-7, 9-10, 12-13 entry H          line    30 file /ddmfs1b/softs/psi4conda/share/psi4/basis/aug-cc-pvtz-ri.gbs 

	 --------------------------------------------------------
	                          DF-MP2                         
	      2nd-Order Density-Fitted Moller-Plesset Theory     
	              RMP2 Wavefunction,  20 Threads             
	                                                         
	        Rob Parrish, Justin Turney, Andy Simmonett,      
	           Ed Hohenstein, and C. David Sherrill          
	 --------------------------------------------------------

   => Auxiliary Basis Set <=

  Basis Set: (AUG-CC-PVTZ AUX)
    Blend: AUG-CC-PVTZ-RI
    Number of shells: 267
    Number of basis functions: 983
    Number of Cartesian functions: 1245
    Spherical Harmonics?: true
    Max angular momentum: 5

	 --------------------------------------------------------
	                 NBF =   427, NAUX =   983
	 --------------------------------------------------------
	   CLASS    FOCC     OCC    AOCC    AVIR     VIR    FVIR
	   PAIRS       0       5       5     422     422       0
	 --------------------------------------------------------

	-----------------------------------------------------------
	 ==================> DF-MP2 Energies <==================== 
	-----------------------------------------------------------
	 Reference Energy          =     -76.0596662253291811 [Eh]
	 Singles Energy            =      -0.0000000000000000 [Eh]
	 Same-Spin Energy          =      -0.0684349147853510 [Eh]
	 Opposite-Spin Energy      =      -0.2158614902292115 [Eh]
	 Correlation Energy        =      -0.2842964050145624 [Eh]
	 Total Energy              =     -76.3439626303437393 [Eh]
	-----------------------------------------------------------
	 ================> DF-SCS-MP2 Energies <================== 
	-----------------------------------------------------------
	 SCS Same-Spin Scale       =       0.3333333333333333 [-]
	 SCS Opposite-Spin Scale   =       1.2000000000000000 [-]
	 SCS Same-Spin Energy      =      -0.0228116382617837 [Eh]
	 SCS Opposite-Spin Energy  =      -0.2590337882750537 [Eh]
	 SCS Correlation Energy    =      -0.2818454265368374 [Eh]
	 SCS Total Energy          =     -76.3415116518660142 [Eh]
	-----------------------------------------------------------


*** tstop() called on ddmfs1 at Mon Jan 22 23:58:22 2024
Module time:
	user time   =      26.52 seconds =       0.44 minutes
	system time =       1.96 seconds =       0.03 minutes
	total time  =         10 seconds =       0.17 minutes
Total time:
	user time   =      96.82 seconds =       1.61 minutes
	system time =       7.80 seconds =       0.13 minutes
	total time  =         16 seconds =       0.27 minutes

    Psi4 stopped on: Monday, 22 January 2024 11:58PM
    Psi4 wall time for execution: 0:00:15.47

*** Psi4 exiting successfully. Buy a developer a beer!
