
    -----------------------------------------------------------------------
          Psi4: An Open-Source Ab Initio Electronic Structure Package
                               Psi4 1.8.2 release

                         Git: Rev {} zzzzzzz 


    D. G. A. Smith, L. A. Burns, A. C. Simmonett, R. M. Parrish,
    M. C. Schieber, R. Galvelis, P. Kraus, H. Kruse, R. Di Remigio,
    A. Alenaizan, A. M. James, S. Lehtola, J. P. Misiewicz, M. Scheurer,
    R. A. Shaw, J. B. Schriber, Y. Xie, Z. L. Glick, D. A. Sirianni,
    J. S. O'Brien, J. M. Waldrop, A. Kumar, E. G. Hohenstein,
    B. P. Pritchard, B. R. Brooks, H. F. Schaefer III, A. Yu. Sokolov,
    K. Patkowski, A. E. DePrince III, U. Bozkaya, R. A. King,
    F. A. Evangelista, J. M. Turney, T. D. Crawford, C. D. Sherrill,
    J. Chem. Phys. 152(18) 184108 (2020). https://doi.org/10.1063/5.0006002

                            Additional Code Authors
    E. T. Seidl, C. L. Janssen, E. F. Valeev, M. L. Leininger,
    J. F. Gonthier, R. M. Richard, H. R. McAlexander, M. Saitow, X. Wang,
    P. Verma, M. H. Lechner, A. Jiang, S. Behnle, A. G. Heide,
    M. F. Herbst, and D. L. Poole

             Previous Authors, Complete List of Code Contributors,
                       and Citations for Specific Modules
    https://github.com/psi4/psi4/blob/master/codemeta.json
    https://github.com/psi4/psi4/graphs/contributors
    http://psicode.org/psi4manual/master/introduction.html#citing-psifour

    -----------------------------------------------------------------------


    Psi4 started on: Monday, 22 January 2024 10:48PM

    Process ID: 114599
    Host:       ddmfs1
    PSIDATADIR: /ddmfs1b/softs/psi4conda/share/psi4
    Memory:     500.0 MiB
    Threads:    20
    
  ==> Input File <==

--------------------------------------------------------------------------
MEMORY 60 GB

molecule dimer {
0 1
Gh(Br)     0.000000     0.000000     0.000000
Gh(O)     -2.781824     0.954914     1.546349
Gh(H)     -2.079798     0.629798     0.983421
Gh(H)     -2.569173     1.860935     1.801428
Gh(O)      0.417110     1.164103     2.920605
Gh(H)     -0.279275     0.933093     3.573898
Gh(H)      0.289615     0.628287     2.138627
O         -1.161290     3.255151    -0.272712
H         -0.718022     2.402898    -0.139574
H         -0.489651     3.796101    -0.744628
Gh(O)      3.058295     1.334047    -0.433045
Gh(H)      2.146353     1.140968    -0.250352
Gh(H)      3.046948     2.024410    -1.133360
Gh(O)     -1.361860     1.474861    -2.856186
Gh(H)     -1.202291     1.027410    -1.978617
Gh(H)     -0.871594     2.343189    -2.876970

units ang
no_reorient
no_com
symmetry c1
}

set {
basis        aug-cc-pVTZ
scf_type     df
}

energy("mp2")
--------------------------------------------------------------------------

  Memory set to  55.879 GiB by Python driver.

Scratch directory: /ddmfs1a/scratch/
   => Libint2 <=

    Primary   basis highest AM E, G, H:  5, 4, 3
    Auxiliary basis highest AM E, G, H:  6, 5, 4
    Onebody   basis highest AM E, G, H:  6, 5, 4
    Solid Harmonics ordering:            gaussian

*** tstart() called on ddmfs1
*** at Mon Jan 22 22:48:26 2024

   => Loading Basis Set <=

    Name: AUG-CC-PVTZ
    Role: ORBITAL
    Keyword: BASIS
    atoms 1                            entry BR         line  4208 file /ddmfs1b/softs/psi4conda/share/psi4/basis/aug-cc-pvtz.gbs 
    atoms 2, 5, 8, 11, 14              entry O          line   331 file /ddmfs1b/softs/psi4conda/share/psi4/basis/aug-cc-pvtz.gbs 
    atoms 3-4, 6-7, 9-10, 12-13, 15-16 entry H          line    40 file /ddmfs1b/softs/psi4conda/share/psi4/basis/aug-cc-pvtz.gbs 


         ---------------------------------------------------------
                                   SCF
               by Justin Turney, Rob Parrish, Andy Simmonett
                          and Daniel G. A. Smith
                              RHF Reference
                       20 Threads,  57220 MiB Core
         ---------------------------------------------------------

  ==> Geometry <==

    Molecular point group: c1
    Full point group: C1

    Geometry (in Angstrom), charge = 0, multiplicity = 1:

       Center              X                  Y                   Z               Mass       
    ------------   -----------------  -----------------  -----------------  -----------------
      Gh(BR)          0.000000000000     0.000000000000     0.000000000000    78.918337600000
      Gh(O)          -2.781824000000     0.954914000000     1.546349000000    15.994914619570
      Gh(H)          -2.079798000000     0.629798000000     0.983421000000     1.007825032230
      Gh(H)          -2.569173000000     1.860935000000     1.801428000000     1.007825032230
      Gh(O)           0.417110000000     1.164103000000     2.920605000000    15.994914619570
      Gh(H)          -0.279275000000     0.933093000000     3.573898000000     1.007825032230
      Gh(H)           0.289615000000     0.628287000000     2.138627000000     1.007825032230
         O           -1.161290000000     3.255151000000    -0.272712000000    15.994914619570
         H           -0.718022000000     2.402898000000    -0.139574000000     1.007825032230
         H           -0.489651000000     3.796101000000    -0.744628000000     1.007825032230
      Gh(O)           3.058295000000     1.334047000000    -0.433045000000    15.994914619570
      Gh(H)           2.146353000000     1.140968000000    -0.250352000000     1.007825032230
      Gh(H)           3.046948000000     2.024410000000    -1.133360000000     1.007825032230
      Gh(O)          -1.361860000000     1.474861000000    -2.856186000000    15.994914619570
      Gh(H)          -1.202291000000     1.027410000000    -1.978617000000     1.007825032230
      Gh(H)          -0.871594000000     2.343189000000    -2.876970000000     1.007825032230

  Running in c1 symmetry.

  Rotational constants: A =      0.02785  B =      0.02563  C =      0.02242 [cm^-1]
  Rotational constants: A =    834.95939  B =    768.47674  C =    672.12655 [MHz]
  Nuclear repulsion =    9.016000218983510

  Charge       = 0
  Multiplicity = 1
  Electrons    = 10
  Nalpha       = 5
  Nbeta        = 5

  ==> Algorithm <==

  SCF Algorithm Type is DF.
  DIIS enabled.
  MOM disabled.
  Fractional occupation disabled.
  Guess Type is SAD.
  Energy threshold   = 1.00e-08
  Density threshold  = 1.00e-08
  Integral threshold = 1.00e-12

  ==> Primary Basis <==

  Basis Set: AUG-CC-PVTZ
    Blend: AUG-CC-PVTZ
    Number of shells: 179
    Number of basis functions: 519
    Number of Cartesian functions: 594
    Spherical Harmonics?: true
    Max angular momentum: 3

   => Loading Basis Set <=

    Name: (AUG-CC-PVTZ AUX)
    Role: JKFIT
    Keyword: DF_BASIS_SCF
    atoms 1                            entry BR         line  1492 file /ddmfs1b/softs/psi4conda/share/psi4/basis/aug-cc-pvtz-jkfit.gbs 
    atoms 2, 5, 8, 11, 14              entry O          line   286 file /ddmfs1b/softs/psi4conda/share/psi4/basis/aug-cc-pvtz-jkfit.gbs 
    atoms 3-4, 6-7, 9-10, 12-13, 15-16 entry H          line    70 file /ddmfs1b/softs/psi4conda/share/psi4/basis/aug-cc-pvtz-jkfit.gbs 

  ==> Integral Setup <==

  DFHelper Memory: AOs need 2.310 GiB; user supplied 41.910 GiB. 
  Using in-core AOs.

  ==> MemDFJK: Density-Fitted J/K Matrices <==

    J tasked:                   Yes
    K tasked:                   Yes
    wK tasked:                   No
    OpenMP threads:              20
    Memory [MiB]:             42915
    Algorithm:                 Core
    Schwarz Cutoff:           1E-12
    Mask sparsity (%):      10.5605
    Fitting Condition:        1E-10

   => Auxiliary Basis Set <=

  Basis Set: (AUG-CC-PVTZ AUX)
    Blend: AUG-CC-PVTZ-JKFIT
    Number of shells: 348
    Number of basis functions: 1228
    Number of Cartesian functions: 1534
    Spherical Harmonics?: true
    Max angular momentum: 4

  Minimum eigenvalue in the overlap matrix is 1.1779209781E-04.
  Reciprocal condition number of the overlap matrix is 8.5854675213E-06.
    Using symmetric orthogonalization.

  ==> Pre-Iterations <==

  SCF Guess: Superposition of Atomic Densities via on-the-fly atomic UHF (no occupation information).

   -------------------------
    Irrep   Nso     Nmo    
   -------------------------
     A        519     519 
   -------------------------
    Total     519     519
   -------------------------

  ==> Iterations <==

                           Total Energy        Delta E     RMS |[F,P]|

   @DF-RHF iter SAD:   -75.45647226650172   -7.54565e+01   0.00000e+00 
   @DF-RHF iter   1:   -75.97342034185644   -5.16948e-01   9.00145e-04 ADIIS/DIIS
   @DF-RHF iter   2:   -76.02538824822655   -5.19679e-02   6.25947e-04 ADIIS/DIIS
   @DF-RHF iter   3:   -76.05820314886842   -3.28149e-02   4.26486e-05 DIIS
   @DF-RHF iter   4:   -76.05861663149460   -4.13483e-04   1.05966e-05 DIIS
   @DF-RHF iter   5:   -76.05864486832134   -2.82368e-05   2.45264e-06 DIIS
   @DF-RHF iter   6:   -76.05864724879009   -2.38047e-06   5.37875e-07 DIIS
   @DF-RHF iter   7:   -76.05864737332422   -1.24534e-07   9.49784e-08 DIIS
   @DF-RHF iter   8:   -76.05864737669080   -3.36658e-09   1.62350e-08 DIIS
   @DF-RHF iter   9:   -76.05864737676995   -7.91545e-11   4.11364e-09 DIIS
  Energy and wave function converged.


  ==> Post-Iterations <==

    Orbital Energies [Eh]
    ---------------------

    Doubly Occupied:                                                      

       1A    -20.570799     2A     -1.344398     3A     -0.705881  
       4A     -0.582704     5A     -0.509015  

    Virtual:                                                              

       6A      0.015178     7A      0.032829     8A      0.038577  
       9A      0.041461    10A      0.055577    11A      0.056658  
      12A      0.062163    13A      0.070086    14A      0.074280  
      15A      0.081340    16A      0.088041    17A      0.110416  
      18A      0.116806    19A      0.119995    20A      0.126868  
      21A      0.130638    22A      0.137609    23A      0.153247  
      24A      0.155797    25A      0.163115    26A      0.163997  
      27A      0.169788    28A      0.173169    29A      0.183251  
      30A      0.188199    31A      0.191344    32A      0.194704  
      33A      0.200652    34A      0.207605    35A      0.209491  
      36A      0.218570    37A      0.226138    38A      0.238789  
      39A      0.251196    40A      0.257812    41A      0.272407  
      42A      0.281601    43A      0.284267    44A      0.296231  
      45A      0.301946    46A      0.306645    47A      0.310322  
      48A      0.315566    49A      0.321330    50A      0.331672  
      51A      0.334606    52A      0.341236    53A      0.353900  
      54A      0.359326    55A      0.365359    56A      0.375480  
      57A      0.379233    58A      0.382396    59A      0.391739  
      60A      0.395793    61A      0.397276    62A      0.409052  
      63A      0.411359    64A      0.417268    65A      0.430816  
      66A      0.436157    67A      0.440080    68A      0.448032  
      69A      0.453937    70A      0.456544    71A      0.465714  
      72A      0.471114    73A      0.479578    74A      0.489696  
      75A      0.500170    76A      0.511173    77A      0.524569  
      78A      0.530479    79A      0.544939    80A      0.562404  
      81A      0.574542    82A      0.583932    83A      0.589320  
      84A      0.601020    85A      0.605216    86A      0.607717  
      87A      0.622733    88A      0.647024    89A      0.665706  
      90A      0.688878    91A      0.703933    92A      0.712300  
      93A      0.716931    94A      0.729000    95A      0.740027  
      96A      0.750026    97A      0.760512    98A      0.766983  
      99A      0.769963   100A      0.780522   101A      0.785609  
     102A      0.791272   103A      0.794405   104A      0.803722  
     105A      0.811032   106A      0.813479   107A      0.824031  
     108A      0.829490   109A      0.833225   110A      0.838508  
     111A      0.853481   112A      0.859072   113A      0.860559  
     114A      0.875495   115A      0.881662   116A      0.882907  
     117A      0.889807   118A      0.900947   119A      0.903720  
     120A      0.911444   121A      0.919084   122A      0.924600  
     123A      0.932064   124A      0.937197   125A      0.944896  
     126A      0.950837   127A      0.957309   128A      0.959091  
     129A      0.963143   130A      0.981098   131A      0.985599  
     132A      0.990871   133A      1.000917   134A      1.006591  
     135A      1.009342   136A      1.020535   137A      1.023252  
     138A      1.026990   139A      1.032042   140A      1.043652  
     141A      1.048837   142A      1.054441   143A      1.070691  
     144A      1.076890   145A      1.078719   146A      1.086979  
     147A      1.099545   148A      1.106028   149A      1.112339  
     150A      1.124796   151A      1.134268   152A      1.141267  
     153A      1.143860   154A      1.152079   155A      1.156897  
     156A      1.160408   157A      1.172575   158A      1.187045  
     159A      1.202377   160A      1.204386   161A      1.215376  
     162A      1.216116   163A      1.229163   164A      1.241753  
     165A      1.258927   166A      1.271617   167A      1.281164  
     168A      1.291911   169A      1.297878   170A      1.311338  
     171A      1.325145   172A      1.336915   173A      1.358401  
     174A      1.362177   175A      1.365985   176A      1.379124  
     177A      1.385363   178A      1.393184   179A      1.404885  
     180A      1.414432   181A      1.424516   182A      1.428273  
     183A      1.449743   184A      1.456363   185A      1.470384  
     186A      1.479666   187A      1.485139   188A      1.501597  
     189A      1.520677   190A      1.536988   191A      1.550038  
     192A      1.559542   193A      1.568240   194A      1.589636  
     195A      1.601821   196A      1.628391   197A      1.634914  
     198A      1.646801   199A      1.659808   200A      1.675592  
     201A      1.678842   202A      1.693215   203A      1.707579  
     204A      1.715364   205A      1.729446   206A      1.736972  
     207A      1.754471   208A      1.764592   209A      1.776714  
     210A      1.778947   211A      1.786343   212A      1.801388  
     213A      1.813771   214A      1.822457   215A      1.839464  
     216A      1.846673   217A      1.861593   218A      1.877665  
     219A      1.879268   220A      1.893225   221A      1.914364  
     222A      1.918673   223A      1.926534   224A      1.933367  
     225A      1.951538   226A      1.974153   227A      1.983781  
     228A      2.020529   229A      2.028626   230A      2.035936  
     231A      2.050145   232A      2.054214   233A      2.083314  
     234A      2.094334   235A      2.112965   236A      2.126167  
     237A      2.159923   238A      2.231186   239A      2.357323  
     240A      2.434677   241A      2.461936   242A      2.468889  
     243A      2.486041   244A      2.493091   245A      2.500820  
     246A      2.503162   247A      2.511544   248A      2.524440  
     249A      2.536690   250A      2.544316   251A      2.547800  
     252A      2.559206   253A      2.582571   254A      2.588362  
     255A      2.604975   256A      2.619270   257A      2.634829  
     258A      2.642565   259A      2.658212   260A      2.667192  
     261A      2.672457   262A      2.680429   263A      2.686858  
     264A      2.698653   265A      2.704733   266A      2.718883  
     267A      2.730992   268A      2.733287   269A      2.753628  
     270A      2.767874   271A      2.769065   272A      2.787584  
     273A      2.793751   274A      2.818017   275A      2.828525  
     276A      2.863422   277A      2.877401   278A      2.887307  
     279A      2.902973   280A      2.921003   281A      2.941009  
     282A      2.967321   283A      3.003861   284A      3.023591  
     285A      3.038225   286A      3.060413   287A      3.064584  
     288A      3.156896   289A      3.168745   290A      3.179339  
     291A      3.197296   292A      3.204505   293A      3.218575  
     294A      3.224200   295A      3.232396   296A      3.243240  
     297A      3.251833   298A      3.262106   299A      3.292747  
     300A      3.316942   301A      3.322931   302A      3.360726  
     303A      3.369195   304A      3.377140   305A      3.380733  
     306A      3.397156   307A      3.404462   308A      3.448863  
     309A      3.466201   310A      3.474404   311A      3.508812  
     312A      3.526277   313A      3.540761   314A      3.555565  
     315A      3.564995   316A      3.591073   317A      3.596809  
     318A      3.622692   319A      3.633532   320A      3.661232  
     321A      3.675288   322A      3.693193   323A      3.705920  
     324A      3.737132   325A      3.772296   326A      3.820213  
     327A      3.828806   328A      3.842863   329A      3.888062  
     330A      3.898433   331A      4.003906   332A      4.074610  
     333A      4.088258   334A      4.152404   335A      4.278736  
     336A      4.308088   337A      4.354090   338A      4.364046  
     339A      4.392667   340A      4.397926   341A      4.408364  
     342A      4.443504   343A      4.449836   344A      4.484312  
     345A      4.491512   346A      4.512062   347A      4.528361  
     348A      4.547379   349A      4.548928   350A      4.565621  
     351A      4.588918   352A      4.595670   353A      4.604731  
     354A      4.614513   355A      4.634526   356A      4.636765  
     357A      4.666218   358A      4.669569   359A      4.698340  
     360A      4.709949   361A      4.748832   362A      4.756669  
     363A      4.784573   364A      4.820977   365A      4.839933  
     366A      4.871397   367A      4.890025   368A      4.910222  
     369A      4.911464   370A      4.932173   371A      4.952586  
     372A      4.967801   373A      4.979913   374A      5.000281  
     375A      5.026205   376A      5.037893   377A      5.069921  
     378A      5.095148   379A      5.121819   380A      5.171060  
     381A      5.208843   382A      5.214361   383A      5.238616  
     384A      5.260846   385A      5.273359   386A      5.293978  
     387A      5.360646   388A      5.394036   389A      5.433993  
     390A      5.491884   391A      5.497433   392A      5.510065  
     393A      5.537571   394A      5.555098   395A      5.562181  
     396A      5.580308   397A      5.603316   398A      5.626062  
     399A      5.682453   400A      5.693299   401A      5.716621  
     402A      5.738218   403A      5.756264   404A      5.844329  
     405A      5.851254   406A      5.859193   407A      6.142981  
     408A      6.152968   409A      6.166176   410A      6.183212  
     411A      6.275880   412A      6.340828   413A      6.418637  
     414A      6.443900   415A      6.496716   416A      6.628689  
     417A      6.651930   418A      6.668162   419A      6.754225  
     420A      6.775870   421A      6.810358   422A      6.954343  
     423A      7.024362   424A      7.096109   425A      7.102488  
     426A      7.148963   427A      7.167076   428A      7.321855  
     429A      7.326274   430A      7.393074   431A      7.478393  
     432A      7.486816   433A      7.697799   434A      7.723444  
     435A      7.732707   436A      7.735689   437A      7.777138  
     438A      7.787225   439A      7.815386   440A      7.828909  
     441A      7.847501   442A      7.954625   443A      7.986779  
     444A      8.047349   445A      8.104333   446A      8.129900  
     447A      8.197251   448A      8.201255   449A      8.213528  
     450A      8.248198   451A      8.264101   452A      8.279295  
     453A      8.288945   454A      8.309236   455A      8.330079  
     456A      8.643766   457A      8.759957   458A      8.764800  
     459A      8.768821   460A      8.809214   461A      8.831426  
     462A      8.982861   463A      8.997041   464A      9.069125  
     465A      9.690504   466A      9.731896   467A      9.750709  
     468A      9.827114   469A      9.847907   470A      9.875367  
     471A      9.889619   472A      9.913188   473A     10.062067  
     474A     10.065480   475A     10.092481   476A     10.112217  
     477A     10.267278   478A     10.282500   479A     10.301432  
     480A     10.347576   481A     10.961385   482A     11.123088  
     483A     11.147509   484A     11.181226   485A     11.204935  
     486A     11.681088   487A     11.731176   488A     11.773579  
     489A     11.801838   490A     11.853144   491A     12.130047  
     492A     12.147465   493A     12.232102   494A     13.391919  
     495A     13.555234   496A     13.573943   497A     13.736167  
     498A     13.860118   499A     13.938838   500A     13.965037  
     501A     13.976584   502A     14.001001   503A     14.111858  
     504A     14.149288   505A     16.233435   506A     26.357051  
     507A     26.401594   508A     26.469609   509A     26.577616  
     510A     26.811542   511A     46.615657   512A     64.358148  
     513A     65.914068   514A     66.172936   515A     67.186337  
     516A    139.046232   517A    139.333495   518A    139.399889  
     519A    712.122859  

    Final Occupation by Irrep:
              A 
    DOCC [     5 ]
    NA   [     5 ]
    NB   [     5 ]

  @DF-RHF Final Energy:   -76.05864737676995

   => Energetics <=

    Nuclear Repulsion Energy =              9.0160002189835105
    One-Electron Energy =                -122.7236968409359861
    Two-Electron Energy =                  37.6490492451825247
    Total Energy =                        -76.0586473767699545

Computation Completed


Properties will be evaluated at   0.000000,   0.000000,   0.000000 [a0]

Properties computed using the SCF density matrix


 Multipole Moments:

 ------------------------------------------------------------------------------------
     Multipole            Electronic (a.u.)      Nuclear  (a.u.)        Total (a.u.)
 ------------------------------------------------------------------------------------

 L = 1.  Multiply by 2.5417464519 to convert [e a0] to [Debye]
 Dipole X            :         20.5692654          -19.8383316            0.7309338
 Dipole Y            :        -61.1316441           60.9251615           -0.2064826
 Dipole Z            :          5.5725835           -5.7937075           -0.2211240
 Magnitude           :                                                    0.7910721

 ------------------------------------------------------------------------------------

*** tstop() called on ddmfs1 at Mon Jan 22 22:48:35 2024
Module time:
	user time   =     104.43 seconds =       1.74 minutes
	system time =       6.84 seconds =       0.11 minutes
	total time  =          9 seconds =       0.15 minutes
Total time:
	user time   =     104.43 seconds =       1.74 minutes
	system time =       6.84 seconds =       0.11 minutes
	total time  =          9 seconds =       0.15 minutes

*** tstart() called on ddmfs1
*** at Mon Jan 22 22:48:35 2024


  //>>>>>>>>>>>>>>>>>>>>>>>>>>>>>>>>>>>//
  //               DFMP2               //
  //<<<<<<<<<<<<<<<<<<<<<<<<<<<<<<<<<<<//

   => Loading Basis Set <=

    Name: (AUG-CC-PVTZ AUX)
    Role: RIFIT
    Keyword: DF_BASIS_MP2
    atoms 1                            entry BR         line  1248 file /ddmfs1b/softs/psi4conda/share/psi4/basis/aug-cc-pvtz-ri.gbs 
    atoms 2, 5, 8, 11, 14              entry O          line   264 file /ddmfs1b/softs/psi4conda/share/psi4/basis/aug-cc-pvtz-ri.gbs 
    atoms 3-4, 6-7, 9-10, 12-13, 15-16 entry H          line    30 file /ddmfs1b/softs/psi4conda/share/psi4/basis/aug-cc-pvtz-ri.gbs 

	 --------------------------------------------------------
	                          DF-MP2                         
	      2nd-Order Density-Fitted Moller-Plesset Theory     
	              RMP2 Wavefunction,  20 Threads             
	                                                         
	        Rob Parrish, Justin Turney, Andy Simmonett,      
	           Ed Hohenstein, and C. David Sherrill          
	 --------------------------------------------------------

   => Auxiliary Basis Set <=

  Basis Set: (AUG-CC-PVTZ AUX)
    Blend: AUG-CC-PVTZ-RI
    Number of shells: 323
    Number of basis functions: 1181
    Number of Cartesian functions: 1491
    Spherical Harmonics?: true
    Max angular momentum: 5

	 --------------------------------------------------------
	                 NBF =   519, NAUX =  1181
	 --------------------------------------------------------
	   CLASS    FOCC     OCC    AOCC    AVIR     VIR    FVIR
	   PAIRS       0       5       5     514     514       0
	 --------------------------------------------------------

	-----------------------------------------------------------
	 ==================> DF-MP2 Energies <==================== 
	-----------------------------------------------------------
	 Reference Energy          =     -76.0586473767699545 [Eh]
	 Singles Energy            =      -0.0000000000000000 [Eh]
	 Same-Spin Energy          =      -0.0687638932591633 [Eh]
	 Opposite-Spin Energy      =      -0.2171013242061734 [Eh]
	 Correlation Energy        =      -0.2858652174653367 [Eh]
	 Total Energy              =     -76.3445125942352973 [Eh]
	-----------------------------------------------------------
	 ================> DF-SCS-MP2 Energies <================== 
	-----------------------------------------------------------
	 SCS Same-Spin Scale       =       0.3333333333333333 [-]
	 SCS Opposite-Spin Scale   =       1.2000000000000000 [-]
	 SCS Same-Spin Energy      =      -0.0229212977530544 [Eh]
	 SCS Opposite-Spin Energy  =      -0.2605215890474081 [Eh]
	 SCS Correlation Energy    =      -0.2834428868004625 [Eh]
	 SCS Total Energy          =     -76.3420902635704124 [Eh]
	-----------------------------------------------------------


*** tstop() called on ddmfs1 at Mon Jan 22 22:48:46 2024
Module time:
	user time   =      33.94 seconds =       0.57 minutes
	system time =       2.52 seconds =       0.04 minutes
	total time  =         11 seconds =       0.18 minutes
Total time:
	user time   =     138.39 seconds =       2.31 minutes
	system time =       9.36 seconds =       0.16 minutes
	total time  =         20 seconds =       0.33 minutes

    Psi4 stopped on: Monday, 22 January 2024 10:48PM
    Psi4 wall time for execution: 0:00:19.75

*** Psi4 exiting successfully. Buy a developer a beer!
