
    -----------------------------------------------------------------------
          Psi4: An Open-Source Ab Initio Electronic Structure Package
                               Psi4 1.8.2 release

                         Git: Rev {} zzzzzzz 


    D. G. A. Smith, L. A. Burns, A. C. Simmonett, R. M. Parrish,
    M. C. Schieber, R. Galvelis, P. Kraus, H. Kruse, R. Di Remigio,
    A. Alenaizan, A. M. James, S. Lehtola, J. P. Misiewicz, M. Scheurer,
    R. A. Shaw, J. B. Schriber, Y. Xie, Z. L. Glick, D. A. Sirianni,
    J. S. O'Brien, J. M. Waldrop, A. Kumar, E. G. Hohenstein,
    B. P. Pritchard, B. R. Brooks, H. F. Schaefer III, A. Yu. Sokolov,
    K. Patkowski, A. E. DePrince III, U. Bozkaya, R. A. King,
    F. A. Evangelista, J. M. Turney, T. D. Crawford, C. D. Sherrill,
    J. Chem. Phys. 152(18) 184108 (2020). https://doi.org/10.1063/5.0006002

                            Additional Code Authors
    E. T. Seidl, C. L. Janssen, E. F. Valeev, M. L. Leininger,
    J. F. Gonthier, R. M. Richard, H. R. McAlexander, M. Saitow, X. Wang,
    P. Verma, M. H. Lechner, A. Jiang, S. Behnle, A. G. Heide,
    M. F. Herbst, and D. L. Poole

             Previous Authors, Complete List of Code Contributors,
                       and Citations for Specific Modules
    https://github.com/psi4/psi4/blob/master/codemeta.json
    https://github.com/psi4/psi4/graphs/contributors
    http://psicode.org/psi4manual/master/introduction.html#citing-psifour

    -----------------------------------------------------------------------


    Psi4 started on: Monday, 22 January 2024 11:34PM

    Process ID: 117475
    Host:       ddmfs1
    PSIDATADIR: /ddmfs1b/softs/psi4conda/share/psi4
    Memory:     500.0 MiB
    Threads:    20
    
  ==> Input File <==

--------------------------------------------------------------------------
MEMORY 60 GB

molecule dimer {
0 1
Gh(Br)     0.000000     0.000000     0.000000
Gh(O)      1.943362     2.492757     1.142910
Gh(H)      2.853656     2.365277     0.915650
Gh(H)      1.414503     1.767381     0.739501
Gh(O)      2.828599    -1.316138    -0.243498
Gh(H)      1.991575    -1.027562     0.115147
Gh(H)      2.923425    -0.868601    -1.085454
O         -1.187233    -3.096829    -0.068719
H         -1.015863    -2.191810     0.131593
H         -0.434378    -3.240086    -0.566381
Gh(O)     -1.630611     1.500183     2.569503
Gh(H)     -1.143522     1.019930     1.833037
Gh(H)     -1.089551     2.321043     2.728925
Gh(O)      0.795952     1.602190    -3.133141
Gh(H)      1.463263     0.954500    -2.826078
Gh(H)     -0.107599     1.347855    -3.018310

units ang
no_reorient
no_com
symmetry c1
}

set {
basis        aug-cc-pVTZ
scf_type     df
}

energy("mp2")
--------------------------------------------------------------------------

  Memory set to  55.879 GiB by Python driver.

Scratch directory: /ddmfs1a/scratch/
   => Libint2 <=

    Primary   basis highest AM E, G, H:  5, 4, 3
    Auxiliary basis highest AM E, G, H:  6, 5, 4
    Onebody   basis highest AM E, G, H:  6, 5, 4
    Solid Harmonics ordering:            gaussian

*** tstart() called on ddmfs1
*** at Mon Jan 22 23:34:47 2024

   => Loading Basis Set <=

    Name: AUG-CC-PVTZ
    Role: ORBITAL
    Keyword: BASIS
    atoms 1                            entry BR         line  4208 file /ddmfs1b/softs/psi4conda/share/psi4/basis/aug-cc-pvtz.gbs 
    atoms 2, 5, 8, 11, 14              entry O          line   331 file /ddmfs1b/softs/psi4conda/share/psi4/basis/aug-cc-pvtz.gbs 
    atoms 3-4, 6-7, 9-10, 12-13, 15-16 entry H          line    40 file /ddmfs1b/softs/psi4conda/share/psi4/basis/aug-cc-pvtz.gbs 


         ---------------------------------------------------------
                                   SCF
               by Justin Turney, Rob Parrish, Andy Simmonett
                          and Daniel G. A. Smith
                              RHF Reference
                       20 Threads,  57220 MiB Core
         ---------------------------------------------------------

  ==> Geometry <==

    Molecular point group: c1
    Full point group: C1

    Geometry (in Angstrom), charge = 0, multiplicity = 1:

       Center              X                  Y                   Z               Mass       
    ------------   -----------------  -----------------  -----------------  -----------------
      Gh(BR)          0.000000000000     0.000000000000     0.000000000000    78.918337600000
      Gh(O)           1.943362000000     2.492757000000     1.142910000000    15.994914619570
      Gh(H)           2.853656000000     2.365277000000     0.915650000000     1.007825032230
      Gh(H)           1.414503000000     1.767381000000     0.739501000000     1.007825032230
      Gh(O)           2.828599000000    -1.316138000000    -0.243498000000    15.994914619570
      Gh(H)           1.991575000000    -1.027562000000     0.115147000000     1.007825032230
      Gh(H)           2.923425000000    -0.868601000000    -1.085454000000     1.007825032230
         O           -1.187233000000    -3.096829000000    -0.068719000000    15.994914619570
         H           -1.015863000000    -2.191810000000     0.131593000000     1.007825032230
         H           -0.434378000000    -3.240086000000    -0.566381000000     1.007825032230
      Gh(O)          -1.630611000000     1.500183000000     2.569503000000    15.994914619570
      Gh(H)          -1.143522000000     1.019930000000     1.833037000000     1.007825032230
      Gh(H)          -1.089551000000     2.321043000000     2.728925000000     1.007825032230
      Gh(O)           0.795952000000     1.602190000000    -3.133141000000    15.994914619570
      Gh(H)           1.463263000000     0.954500000000    -2.826078000000     1.007825032230
      Gh(H)          -0.107599000000     1.347855000000    -3.018310000000     1.007825032230

  Running in c1 symmetry.

  Rotational constants: A =      0.02922  B =      0.02765  C =      0.02069 [cm^-1]
  Rotational constants: A =    876.07245  B =    828.88453  C =    620.16645 [MHz]
  Nuclear repulsion =    9.505454737533418

  Charge       = 0
  Multiplicity = 1
  Electrons    = 10
  Nalpha       = 5
  Nbeta        = 5

  ==> Algorithm <==

  SCF Algorithm Type is DF.
  DIIS enabled.
  MOM disabled.
  Fractional occupation disabled.
  Guess Type is SAD.
  Energy threshold   = 1.00e-08
  Density threshold  = 1.00e-08
  Integral threshold = 1.00e-12

  ==> Primary Basis <==

  Basis Set: AUG-CC-PVTZ
    Blend: AUG-CC-PVTZ
    Number of shells: 179
    Number of basis functions: 519
    Number of Cartesian functions: 594
    Spherical Harmonics?: true
    Max angular momentum: 3

   => Loading Basis Set <=

    Name: (AUG-CC-PVTZ AUX)
    Role: JKFIT
    Keyword: DF_BASIS_SCF
    atoms 1                            entry BR         line  1492 file /ddmfs1b/softs/psi4conda/share/psi4/basis/aug-cc-pvtz-jkfit.gbs 
    atoms 2, 5, 8, 11, 14              entry O          line   286 file /ddmfs1b/softs/psi4conda/share/psi4/basis/aug-cc-pvtz-jkfit.gbs 
    atoms 3-4, 6-7, 9-10, 12-13, 15-16 entry H          line    70 file /ddmfs1b/softs/psi4conda/share/psi4/basis/aug-cc-pvtz-jkfit.gbs 

  ==> Integral Setup <==

  DFHelper Memory: AOs need 2.207 GiB; user supplied 41.910 GiB. 
  Using in-core AOs.

  ==> MemDFJK: Density-Fitted J/K Matrices <==

    J tasked:                   Yes
    K tasked:                   Yes
    wK tasked:                   No
    OpenMP threads:              20
    Memory [MiB]:             42915
    Algorithm:                 Core
    Schwarz Cutoff:           1E-12
    Mask sparsity (%):      14.7326
    Fitting Condition:        1E-10

   => Auxiliary Basis Set <=

  Basis Set: (AUG-CC-PVTZ AUX)
    Blend: AUG-CC-PVTZ-JKFIT
    Number of shells: 348
    Number of basis functions: 1228
    Number of Cartesian functions: 1534
    Spherical Harmonics?: true
    Max angular momentum: 4

  Minimum eigenvalue in the overlap matrix is 1.5702057749E-04.
  Reciprocal condition number of the overlap matrix is 1.3382356699E-05.
    Using symmetric orthogonalization.

  ==> Pre-Iterations <==

  SCF Guess: Superposition of Atomic Densities via on-the-fly atomic UHF (no occupation information).

   -------------------------
    Irrep   Nso     Nmo    
   -------------------------
     A        519     519 
   -------------------------
    Total     519     519
   -------------------------

  ==> Iterations <==

                           Total Energy        Delta E     RMS |[F,P]|

   @DF-RHF iter SAD:   -75.51891644350354   -7.55189e+01   0.00000e+00 
   @DF-RHF iter   1:   -75.97320732683086   -4.54291e-01   9.11710e-04 DIIS/ADIIS
   @DF-RHF iter   2:   -76.02718704794515   -5.39797e-02   6.04927e-04 DIIS/ADIIS
   @DF-RHF iter   3:   -76.05716334789915   -2.99763e-02   4.05983e-05 DIIS
   @DF-RHF iter   4:   -76.05750807356252   -3.44726e-04   9.12443e-06 DIIS
   @DF-RHF iter   5:   -76.05752705874377   -1.89852e-05   2.07550e-06 DIIS
   @DF-RHF iter   6:   -76.05752858885448   -1.53011e-06   4.41733e-07 DIIS
   @DF-RHF iter   7:   -76.05752866488294   -7.60285e-08   7.61332e-08 DIIS
   @DF-RHF iter   8:   -76.05752866688923   -2.00629e-09   1.22840e-08 DIIS
   @DF-RHF iter   9:   -76.05752866692671   -3.74882e-11   2.57607e-09 DIIS
  Energy and wave function converged.


  ==> Post-Iterations <==

    Orbital Energies [Eh]
    ---------------------

    Doubly Occupied:                                                      

       1A    -20.564903     2A     -1.375775     3A     -0.717183  
       4A     -0.606154     5A     -0.514992  

    Virtual:                                                              

       6A      0.013146     7A      0.030440     8A      0.036022  
       9A      0.037081    10A      0.053164    11A      0.056536  
      12A      0.061643    13A      0.063704    14A      0.068497  
      15A      0.084876    16A      0.091460    17A      0.101355  
      18A      0.109912    19A      0.118847    20A      0.120215  
      21A      0.131450    22A      0.139736    23A      0.149983  
      24A      0.152842    25A      0.156645    26A      0.159114  
      27A      0.163700    28A      0.171697    29A      0.178505  
      30A      0.184332    31A      0.189422    32A      0.194216  
      33A      0.199942    34A      0.204636    35A      0.210912  
      36A      0.213778    37A      0.216683    38A      0.227129  
      39A      0.233527    40A      0.247558    41A      0.264007  
      42A      0.267464    43A      0.276304    44A      0.280839  
      45A      0.282047    46A      0.291192    47A      0.299498  
      48A      0.306258    49A      0.311347    50A      0.324821  
      51A      0.327633    52A      0.333279    53A      0.338641  
      54A      0.341382    55A      0.345877    56A      0.349668  
      57A      0.358290    58A      0.369403    59A      0.370560  
      60A      0.371637    61A      0.376206    62A      0.387826  
      63A      0.394296    64A      0.400829    65A      0.406351  
      66A      0.423148    67A      0.427075    68A      0.435820  
      69A      0.441560    70A      0.442411    71A      0.450300  
      72A      0.466962    73A      0.470494    74A      0.475044  
      75A      0.489387    76A      0.490854    77A      0.507467  
      78A      0.511607    79A      0.532673    80A      0.551859  
      81A      0.558789    82A      0.567257    83A      0.579624  
      84A      0.593513    85A      0.610873    86A      0.624929  
      87A      0.631232    88A      0.640887    89A      0.677936  
      90A      0.694103    91A      0.707687    92A      0.712373  
      93A      0.716646    94A      0.724741    95A      0.727994  
      96A      0.736471    97A      0.748434    98A      0.754818  
      99A      0.757160   100A      0.767458   101A      0.771512  
     102A      0.775388   103A      0.781685   104A      0.785119  
     105A      0.795609   106A      0.803014   107A      0.808784  
     108A      0.813372   109A      0.824044   110A      0.831487  
     111A      0.836063   112A      0.840366   113A      0.848036  
     114A      0.851213   115A      0.856075   116A      0.858293  
     117A      0.871248   118A      0.874000   119A      0.878059  
     120A      0.889992   121A      0.896536   122A      0.900483  
     123A      0.905450   124A      0.915360   125A      0.927244  
     126A      0.930780   127A      0.931225   128A      0.938023  
     129A      0.944568   130A      0.947383   131A      0.954777  
     132A      0.964044   133A      0.969415   134A      0.972497  
     135A      0.979686   136A      0.989177   137A      1.002180  
     138A      1.004399   139A      1.006372   140A      1.013162  
     141A      1.020628   142A      1.021438   143A      1.024830  
     144A      1.031382   145A      1.040516   146A      1.042781  
     147A      1.048633   148A      1.059308   149A      1.060433  
     150A      1.069555   151A      1.078948   152A      1.083254  
     153A      1.087733   154A      1.109345   155A      1.114311  
     156A      1.120810   157A      1.131542   158A      1.143347  
     159A      1.158125   160A      1.165288   161A      1.169640  
     162A      1.180297   163A      1.188458   164A      1.191841  
     165A      1.204836   166A      1.205737   167A      1.211587  
     168A      1.225902   169A      1.232067   170A      1.241766  
     171A      1.261429   172A      1.265034   173A      1.267728  
     174A      1.279784   175A      1.289775   176A      1.297111  
     177A      1.319501   178A      1.324081   179A      1.328199  
     180A      1.342619   181A      1.353888   182A      1.359302  
     183A      1.367821   184A      1.392515   185A      1.404481  
     186A      1.431365   187A      1.438734   188A      1.463220  
     189A      1.481833   190A      1.498378   191A      1.510388  
     192A      1.512909   193A      1.522540   194A      1.535868  
     195A      1.550829   196A      1.567698   197A      1.575289  
     198A      1.576538   199A      1.599987   200A      1.620325  
     201A      1.645110   202A      1.647001   203A      1.662103  
     204A      1.679753   205A      1.692207   206A      1.703415  
     207A      1.718252   208A      1.733778   209A      1.738754  
     210A      1.758697   211A      1.764342   212A      1.772867  
     213A      1.781775   214A      1.786401   215A      1.805489  
     216A      1.810010   217A      1.819717   218A      1.828724  
     219A      1.845711   220A      1.853052   221A      1.881660  
     222A      1.889019   223A      1.902778   224A      1.913940  
     225A      1.924110   226A      1.941739   227A      1.946059  
     228A      1.975395   229A      1.979054   230A      1.987738  
     231A      1.993784   232A      2.022978   233A      2.054649  
     234A      2.083310   235A      2.102348   236A      2.125258  
     237A      2.141250   238A      2.200982   239A      2.310831  
     240A      2.360014   241A      2.408211   242A      2.411241  
     243A      2.452112   244A      2.456056   245A      2.469095  
     246A      2.476211   247A      2.492896   248A      2.496683  
     249A      2.501524   250A      2.517751   251A      2.520993  
     252A      2.533258   253A      2.536423   254A      2.539485  
     255A      2.552017   256A      2.569767   257A      2.577681  
     258A      2.583830   259A      2.588868   260A      2.613972  
     261A      2.617511   262A      2.631426   263A      2.646748  
     264A      2.655088   265A      2.660925   266A      2.667812  
     267A      2.675274   268A      2.679628   269A      2.688951  
     270A      2.701166   271A      2.714679   272A      2.723554  
     273A      2.741829   274A      2.754319   275A      2.768584  
     276A      2.774293   277A      2.788066   278A      2.822103  
     279A      2.837421   280A      2.863018   281A      2.884991  
     282A      2.952775   283A      2.970095   284A      2.983402  
     285A      2.997683   286A      3.027855   287A      3.042472  
     288A      3.137266   289A      3.162417   290A      3.168492  
     291A      3.175055   292A      3.185696   293A      3.206966  
     294A      3.208718   295A      3.229584   296A      3.239427  
     297A      3.244454   298A      3.251303   299A      3.273154  
     300A      3.286367   301A      3.312351   302A      3.335067  
     303A      3.343926   304A      3.366572   305A      3.381305  
     306A      3.395850   307A      3.398541   308A      3.411006  
     309A      3.417338   310A      3.439142   311A      3.454565  
     312A      3.474010   313A      3.491615   314A      3.512424  
     315A      3.528847   316A      3.548767   317A      3.566068  
     318A      3.584733   319A      3.611997   320A      3.641480  
     321A      3.649867   322A      3.670086   323A      3.685645  
     324A      3.714756   325A      3.761073   326A      3.774884  
     327A      3.783761   328A      3.802610   329A      3.815898  
     330A      3.829974   331A      3.850736   332A      4.046411  
     333A      4.114623   334A      4.143649   335A      4.159440  
     336A      4.203798   337A      4.265523   338A      4.337195  
     339A      4.379385   340A      4.386134   341A      4.401116  
     342A      4.409868   343A      4.424876   344A      4.444400  
     345A      4.452108   346A      4.477400   347A      4.486125  
     348A      4.496493   349A      4.504552   350A      4.513782  
     351A      4.525983   352A      4.546601   353A      4.552577  
     354A      4.570605   355A      4.624409   356A      4.639378  
     357A      4.647185   358A      4.659082   359A      4.668269  
     360A      4.672115   361A      4.705375   362A      4.731134  
     363A      4.755232   364A      4.800274   365A      4.826094  
     366A      4.870955   367A      4.880852   368A      4.887912  
     369A      4.892338   370A      4.911730   371A      4.915600  
     372A      4.921393   373A      4.953972   374A      4.961830  
     375A      4.978360   376A      5.005454   377A      5.025354  
     378A      5.049689   379A      5.098989   380A      5.105945  
     381A      5.176292   382A      5.216265   383A      5.231203  
     384A      5.237324   385A      5.266391   386A      5.280545  
     387A      5.402429   388A      5.412853   389A      5.478399  
     390A      5.493307   391A      5.502536   392A      5.508273  
     393A      5.525836   394A      5.531580   395A      5.559310  
     396A      5.564896   397A      5.628860   398A      5.658704  
     399A      5.680023   400A      5.694360   401A      5.712164  
     402A      5.724852   403A      5.730912   404A      5.781725  
     405A      5.841119   406A      5.863505   407A      6.137398  
     408A      6.149232   409A      6.158510   410A      6.185417  
     411A      6.259956   412A      6.304642   413A      6.326357  
     414A      6.413762   415A      6.474263   416A      6.531068  
     417A      6.542073   418A      6.714119   419A      6.760887  
     420A      6.793755   421A      6.852211   422A      6.927220  
     423A      7.098663   424A      7.109620   425A      7.148021  
     426A      7.159148   427A      7.174179   428A      7.325863  
     429A      7.341180   430A      7.403055   431A      7.468300  
     432A      7.471776   433A      7.664529   434A      7.672414  
     435A      7.707239   436A      7.713671   437A      7.728464  
     438A      7.765356   439A      7.809713   440A      7.818751  
     441A      7.863746   442A      7.919105   443A      7.992143  
     444A      8.065330   445A      8.109924   446A      8.153596  
     447A      8.165136   448A      8.176072   449A      8.196033  
     450A      8.245363   451A      8.271488   452A      8.276389  
     453A      8.302063   454A      8.327655   455A      8.374475  
     456A      8.619185   457A      8.748414   458A      8.778800  
     459A      8.796380   460A      8.835552   461A      8.941043  
     462A      8.984473   463A      8.991266   464A      9.063653  
     465A      9.671409   466A      9.682616   467A      9.739977  
     468A      9.775943   469A      9.839629   470A      9.843401  
     471A      9.868527   472A      9.885352   473A     10.030305  
     474A     10.045190   475A     10.064913   476A     10.085094  
     477A     10.145669   478A     10.276273   479A     10.304557  
     480A     10.369226   481A     10.982058   482A     11.042062  
     483A     11.061467   484A     11.148580   485A     11.245529  
     486A     11.609560   487A     11.665943   488A     11.716381  
     489A     11.733174   490A     11.757976   491A     12.166367  
     492A     12.176541   493A     12.229685   494A     13.390445  
     495A     13.552571   496A     13.589566   497A     13.641348  
     498A     13.808837   499A     13.884326   500A     13.921029  
     501A     13.954672   502A     13.986169   503A     14.112376  
     504A     14.155162   505A     17.611815   506A     26.357792  
     507A     26.397049   508A     26.445008   509A     26.466153  
     510A     26.808470   511A     46.491091   512A     64.209833  
     513A     65.409985   514A     66.235424   515A     67.061019  
     516A    138.952423   517A    139.320055   518A    139.455489  
     519A    711.781248  

    Final Occupation by Irrep:
              A 
    DOCC [     5 ]
    NA   [     5 ]
    NB   [     5 ]

  @DF-RHF Final Energy:   -76.05752866692671

   => Energetics <=

    Nuclear Repulsion Energy =              9.5054547375334177
    One-Electron Energy =                -123.5679523135681279
    Two-Electron Energy =                  38.0049689091079941
    Total Energy =                        -76.0575286669267143

Computation Completed


Properties will be evaluated at   0.000000,   0.000000,   0.000000 [a0]

Properties computed using the SCF density matrix


 Multipole Moments:

 ------------------------------------------------------------------------------------
     Multipole            Electronic (a.u.)      Nuclear  (a.u.)        Total (a.u.)
 ------------------------------------------------------------------------------------

 L = 1.  Multiply by 2.5417464519 to convert [e a0] to [Debye]
 Dipole X            :         21.3043971          -20.6889200            0.6154770
 Dipole Y            :         57.5829188          -57.0820651            0.5008537
 Dipole Z            :          1.6603899           -1.8605110           -0.2001210
 Magnitude           :                                                    0.8183610

 ------------------------------------------------------------------------------------

*** tstop() called on ddmfs1 at Mon Jan 22 23:34:55 2024
Module time:
	user time   =     100.55 seconds =       1.68 minutes
	system time =       6.67 seconds =       0.11 minutes
	total time  =          8 seconds =       0.13 minutes
Total time:
	user time   =     100.55 seconds =       1.68 minutes
	system time =       6.67 seconds =       0.11 minutes
	total time  =          8 seconds =       0.13 minutes

*** tstart() called on ddmfs1
*** at Mon Jan 22 23:34:55 2024


  //>>>>>>>>>>>>>>>>>>>>>>>>>>>>>>>>>>>//
  //               DFMP2               //
  //<<<<<<<<<<<<<<<<<<<<<<<<<<<<<<<<<<<//

   => Loading Basis Set <=

    Name: (AUG-CC-PVTZ AUX)
    Role: RIFIT
    Keyword: DF_BASIS_MP2
    atoms 1                            entry BR         line  1248 file /ddmfs1b/softs/psi4conda/share/psi4/basis/aug-cc-pvtz-ri.gbs 
    atoms 2, 5, 8, 11, 14              entry O          line   264 file /ddmfs1b/softs/psi4conda/share/psi4/basis/aug-cc-pvtz-ri.gbs 
    atoms 3-4, 6-7, 9-10, 12-13, 15-16 entry H          line    30 file /ddmfs1b/softs/psi4conda/share/psi4/basis/aug-cc-pvtz-ri.gbs 

	 --------------------------------------------------------
	                          DF-MP2                         
	      2nd-Order Density-Fitted Moller-Plesset Theory     
	              RMP2 Wavefunction,  20 Threads             
	                                                         
	        Rob Parrish, Justin Turney, Andy Simmonett,      
	           Ed Hohenstein, and C. David Sherrill          
	 --------------------------------------------------------

   => Auxiliary Basis Set <=

  Basis Set: (AUG-CC-PVTZ AUX)
    Blend: AUG-CC-PVTZ-RI
    Number of shells: 323
    Number of basis functions: 1181
    Number of Cartesian functions: 1491
    Spherical Harmonics?: true
    Max angular momentum: 5

	 --------------------------------------------------------
	                 NBF =   519, NAUX =  1181
	 --------------------------------------------------------
	   CLASS    FOCC     OCC    AOCC    AVIR     VIR    FVIR
	   PAIRS       0       5       5     514     514       0
	 --------------------------------------------------------

	-----------------------------------------------------------
	 ==================> DF-MP2 Energies <==================== 
	-----------------------------------------------------------
	 Reference Energy          =     -76.0575286669267143 [Eh]
	 Singles Energy            =      -0.0000000000000000 [Eh]
	 Same-Spin Energy          =      -0.0680798629712995 [Eh]
	 Opposite-Spin Energy      =      -0.2147042755136783 [Eh]
	 Correlation Energy        =      -0.2827841384849777 [Eh]
	 Total Energy              =     -76.3403128054116991 [Eh]
	-----------------------------------------------------------
	 ================> DF-SCS-MP2 Energies <================== 
	-----------------------------------------------------------
	 SCS Same-Spin Scale       =       0.3333333333333333 [-]
	 SCS Opposite-Spin Scale   =       1.2000000000000000 [-]
	 SCS Same-Spin Energy      =      -0.0226932876570998 [Eh]
	 SCS Opposite-Spin Energy  =      -0.2576451306164139 [Eh]
	 SCS Correlation Energy    =      -0.2803384182735137 [Eh]
	 SCS Total Energy          =     -76.3378670852002301 [Eh]
	-----------------------------------------------------------


*** tstop() called on ddmfs1 at Mon Jan 22 23:35:07 2024
Module time:
	user time   =      33.98 seconds =       0.57 minutes
	system time =       2.37 seconds =       0.04 minutes
	total time  =         12 seconds =       0.20 minutes
Total time:
	user time   =     134.55 seconds =       2.24 minutes
	system time =       9.04 seconds =       0.15 minutes
	total time  =         20 seconds =       0.33 minutes

    Psi4 stopped on: Monday, 22 January 2024 11:35PM
    Psi4 wall time for execution: 0:00:19.65

*** Psi4 exiting successfully. Buy a developer a beer!
