
    -----------------------------------------------------------------------
          Psi4: An Open-Source Ab Initio Electronic Structure Package
                               Psi4 1.8.2 release

                         Git: Rev {} zzzzzzz 


    D. G. A. Smith, L. A. Burns, A. C. Simmonett, R. M. Parrish,
    M. C. Schieber, R. Galvelis, P. Kraus, H. Kruse, R. Di Remigio,
    A. Alenaizan, A. M. James, S. Lehtola, J. P. Misiewicz, M. Scheurer,
    R. A. Shaw, J. B. Schriber, Y. Xie, Z. L. Glick, D. A. Sirianni,
    J. S. O'Brien, J. M. Waldrop, A. Kumar, E. G. Hohenstein,
    B. P. Pritchard, B. R. Brooks, H. F. Schaefer III, A. Yu. Sokolov,
    K. Patkowski, A. E. DePrince III, U. Bozkaya, R. A. King,
    F. A. Evangelista, J. M. Turney, T. D. Crawford, C. D. Sherrill,
    J. Chem. Phys. 152(18) 184108 (2020). https://doi.org/10.1063/5.0006002

                            Additional Code Authors
    E. T. Seidl, C. L. Janssen, E. F. Valeev, M. L. Leininger,
    J. F. Gonthier, R. M. Richard, H. R. McAlexander, M. Saitow, X. Wang,
    P. Verma, M. H. Lechner, A. Jiang, S. Behnle, A. G. Heide,
    M. F. Herbst, and D. L. Poole

             Previous Authors, Complete List of Code Contributors,
                       and Citations for Specific Modules
    https://github.com/psi4/psi4/blob/master/codemeta.json
    https://github.com/psi4/psi4/graphs/contributors
    http://psicode.org/psi4manual/master/introduction.html#citing-psifour

    -----------------------------------------------------------------------


    Psi4 started on: Tuesday, 23 January 2024 12:42AM

    Process ID: 121493
    Host:       ddmfs1
    PSIDATADIR: /ddmfs1b/softs/psi4conda/share/psi4
    Memory:     500.0 MiB
    Threads:    20
    
  ==> Input File <==

--------------------------------------------------------------------------
MEMORY 60 GB

molecule dimer {
0 1
Gh(Br)     0.000000     0.000000     0.000000
O          0.621247    -0.253886     3.242490
H          0.234566     0.055975     2.396675
H          0.415263     0.421387     3.885040
Gh(O)     -0.516566     3.494598     0.217594
Gh(H)     -0.532078     2.526620     0.174775
Gh(H)     -1.057899     3.829521    -0.470581
Gh(O)     -2.996306     0.834889     0.610223
Gh(H)     -2.026873     0.813467     0.442268
Gh(H)     -3.320349    -0.026119     0.263152
Gh(O)      2.165559     2.220841    -1.401461
Gh(H)      1.379243     2.086322    -1.915582
Gh(H)      1.950098     2.837132    -0.711281
Gh(O)     -0.802070     1.843563    -2.594464
Gh(H)     -1.311892     2.734430    -2.481891
Gh(H)     -0.751670     1.215067    -1.902978

units ang
no_reorient
no_com
symmetry c1
}

set {
basis        aug-cc-pVTZ
scf_type     df
}

energy("mp2")
--------------------------------------------------------------------------

  Memory set to  55.879 GiB by Python driver.

Scratch directory: /ddmfs1a/scratch/
   => Libint2 <=

    Primary   basis highest AM E, G, H:  5, 4, 3
    Auxiliary basis highest AM E, G, H:  6, 5, 4
    Onebody   basis highest AM E, G, H:  6, 5, 4
    Solid Harmonics ordering:            gaussian

*** tstart() called on ddmfs1
*** at Tue Jan 23 00:42:44 2024

   => Loading Basis Set <=

    Name: AUG-CC-PVTZ
    Role: ORBITAL
    Keyword: BASIS
    atoms 1                            entry BR         line  4208 file /ddmfs1b/softs/psi4conda/share/psi4/basis/aug-cc-pvtz.gbs 
    atoms 2, 5, 8, 11, 14              entry O          line   331 file /ddmfs1b/softs/psi4conda/share/psi4/basis/aug-cc-pvtz.gbs 
    atoms 3-4, 6-7, 9-10, 12-13, 15-16 entry H          line    40 file /ddmfs1b/softs/psi4conda/share/psi4/basis/aug-cc-pvtz.gbs 


         ---------------------------------------------------------
                                   SCF
               by Justin Turney, Rob Parrish, Andy Simmonett
                          and Daniel G. A. Smith
                              RHF Reference
                       20 Threads,  57220 MiB Core
         ---------------------------------------------------------

  ==> Geometry <==

    Molecular point group: c1
    Full point group: C1

    Geometry (in Angstrom), charge = 0, multiplicity = 1:

       Center              X                  Y                   Z               Mass       
    ------------   -----------------  -----------------  -----------------  -----------------
      Gh(BR)          0.000000000000     0.000000000000     0.000000000000    78.918337600000
         O            0.621247000000    -0.253886000000     3.242490000000    15.994914619570
         H            0.234566000000     0.055975000000     2.396675000000     1.007825032230
         H            0.415263000000     0.421387000000     3.885040000000     1.007825032230
      Gh(O)          -0.516566000000     3.494598000000     0.217594000000    15.994914619570
      Gh(H)          -0.532078000000     2.526620000000     0.174775000000     1.007825032230
      Gh(H)          -1.057899000000     3.829521000000    -0.470581000000     1.007825032230
      Gh(O)          -2.996306000000     0.834889000000     0.610223000000    15.994914619570
      Gh(H)          -2.026873000000     0.813467000000     0.442268000000     1.007825032230
      Gh(H)          -3.320349000000    -0.026119000000     0.263152000000     1.007825032230
      Gh(O)           2.165559000000     2.220841000000    -1.401461000000    15.994914619570
      Gh(H)           1.379243000000     2.086322000000    -1.915582000000     1.007825032230
      Gh(H)           1.950098000000     2.837132000000    -0.711281000000     1.007825032230
      Gh(O)          -0.802070000000     1.843563000000    -2.594464000000    15.994914619570
      Gh(H)          -1.311892000000     2.734430000000    -2.481891000000     1.007825032230
      Gh(H)          -0.751670000000     1.215067000000    -1.902978000000     1.007825032230

  Running in c1 symmetry.

  Rotational constants: A =      0.03397  B =      0.02335  C =      0.02166 [cm^-1]
  Rotational constants: A =   1018.35976  B =    700.15280  C =    649.34011 [MHz]
  Nuclear repulsion =    9.096192224553764

  Charge       = 0
  Multiplicity = 1
  Electrons    = 10
  Nalpha       = 5
  Nbeta        = 5

  ==> Algorithm <==

  SCF Algorithm Type is DF.
  DIIS enabled.
  MOM disabled.
  Fractional occupation disabled.
  Guess Type is SAD.
  Energy threshold   = 1.00e-08
  Density threshold  = 1.00e-08
  Integral threshold = 1.00e-12

  ==> Primary Basis <==

  Basis Set: AUG-CC-PVTZ
    Blend: AUG-CC-PVTZ
    Number of shells: 179
    Number of basis functions: 519
    Number of Cartesian functions: 594
    Spherical Harmonics?: true
    Max angular momentum: 3

   => Loading Basis Set <=

    Name: (AUG-CC-PVTZ AUX)
    Role: JKFIT
    Keyword: DF_BASIS_SCF
    atoms 1                            entry BR         line  1492 file /ddmfs1b/softs/psi4conda/share/psi4/basis/aug-cc-pvtz-jkfit.gbs 
    atoms 2, 5, 8, 11, 14              entry O          line   286 file /ddmfs1b/softs/psi4conda/share/psi4/basis/aug-cc-pvtz-jkfit.gbs 
    atoms 3-4, 6-7, 9-10, 12-13, 15-16 entry H          line    70 file /ddmfs1b/softs/psi4conda/share/psi4/basis/aug-cc-pvtz-jkfit.gbs 

  ==> Integral Setup <==

  DFHelper Memory: AOs need 2.309 GiB; user supplied 41.910 GiB. 
  Using in-core AOs.

  ==> MemDFJK: Density-Fitted J/K Matrices <==

    J tasked:                   Yes
    K tasked:                   Yes
    wK tasked:                   No
    OpenMP threads:              20
    Memory [MiB]:             42915
    Algorithm:                 Core
    Schwarz Cutoff:           1E-12
    Mask sparsity (%):      10.5940
    Fitting Condition:        1E-10

   => Auxiliary Basis Set <=

  Basis Set: (AUG-CC-PVTZ AUX)
    Blend: AUG-CC-PVTZ-JKFIT
    Number of shells: 348
    Number of basis functions: 1228
    Number of Cartesian functions: 1534
    Spherical Harmonics?: true
    Max angular momentum: 4

  Minimum eigenvalue in the overlap matrix is 1.0216330564E-04.
  Reciprocal condition number of the overlap matrix is 7.1453071315E-06.
    Using symmetric orthogonalization.

  ==> Pre-Iterations <==

  SCF Guess: Superposition of Atomic Densities via on-the-fly atomic UHF (no occupation information).

   -------------------------
    Irrep   Nso     Nmo    
   -------------------------
     A        519     519 
   -------------------------
    Total     519     519
   -------------------------

  ==> Iterations <==

                           Total Energy        Delta E     RMS |[F,P]|

   @DF-RHF iter SAD:   -75.46480759495975   -7.54648e+01   0.00000e+00 
   @DF-RHF iter   1:   -75.97485743689873   -5.10050e-01   9.01634e-04 DIIS/ADIIS
   @DF-RHF iter   2:   -76.02708656956098   -5.22291e-02   6.19459e-04 DIIS/ADIIS
   @DF-RHF iter   3:   -76.05905960080216   -3.19730e-02   4.21893e-05 DIIS
   @DF-RHF iter   4:   -76.05946303612421   -4.03435e-04   1.02841e-05 DIIS
   @DF-RHF iter   5:   -76.05948926860574   -2.62325e-05   2.35570e-06 DIIS
   @DF-RHF iter   6:   -76.05949145633194   -2.18773e-06   5.21401e-07 DIIS
   @DF-RHF iter   7:   -76.05949157415220   -1.17820e-07   9.49616e-08 DIIS
   @DF-RHF iter   8:   -76.05949157757317   -3.42096e-09   1.60338e-08 DIIS
   @DF-RHF iter   9:   -76.05949157765093   -7.77618e-11   4.06889e-09 DIIS
  Energy and wave function converged.


  ==> Post-Iterations <==

    Orbital Energies [Eh]
    ---------------------

    Doubly Occupied:                                                      

       1A    -20.568363     2A     -1.347617     3A     -0.714704  
       4A     -0.580419     5A     -0.509149  

    Virtual:                                                              

       6A      0.015084     7A      0.033447     8A      0.034837  
       9A      0.040511    10A      0.051844    11A      0.056795  
      12A      0.063625    13A      0.067724    14A      0.069131  
      15A      0.083671    16A      0.094203    17A      0.100106  
      18A      0.106521    19A      0.120255    20A      0.128205  
      21A      0.139609    22A      0.146354    23A      0.152325  
      24A      0.156954    25A      0.159387    26A      0.161081  
      27A      0.171010    28A      0.177610    29A      0.180558  
      30A      0.189218    31A      0.194096    32A      0.201420  
      33A      0.204491    34A      0.208273    35A      0.214193  
      36A      0.228283    37A      0.232431    38A      0.234633  
      39A      0.245752    40A      0.250370    41A      0.261246  
      42A      0.271312    43A      0.277292    44A      0.294249  
      45A      0.296912    46A      0.304406    47A      0.305477  
      48A      0.319738    49A      0.325132    50A      0.328352  
      51A      0.337458    52A      0.342509    53A      0.344508  
      54A      0.354211    55A      0.362391    56A      0.370015  
      57A      0.379412    58A      0.381861    59A      0.389871  
      60A      0.397467    61A      0.401646    62A      0.412235  
      63A      0.415207    64A      0.421632    65A      0.427424  
      66A      0.432871    67A      0.445298    68A      0.452871  
      69A      0.458957    70A      0.465505    71A      0.473676  
      72A      0.481520    73A      0.486561    74A      0.502304  
      75A      0.506728    76A      0.509413    77A      0.523222  
      78A      0.525838    79A      0.530153    80A      0.541542  
      81A      0.556421    82A      0.570798    83A      0.584375  
      84A      0.601177    85A      0.606308    86A      0.625582  
      87A      0.637162    88A      0.652356    89A      0.683481  
      90A      0.703027    91A      0.710154    92A      0.726627  
      93A      0.728210    94A      0.734785    95A      0.742773  
      96A      0.747970    97A      0.754667    98A      0.757336  
      99A      0.772027   100A      0.786063   101A      0.790244  
     102A      0.793509   103A      0.795706   104A      0.803605  
     105A      0.808078   106A      0.821639   107A      0.834749  
     108A      0.838701   109A      0.841640   110A      0.847360  
     111A      0.863510   112A      0.871153   113A      0.872850  
     114A      0.883649   115A      0.886556   116A      0.889868  
     117A      0.903269   118A      0.910183   119A      0.912738  
     120A      0.917083   121A      0.918325   122A      0.919599  
     123A      0.932549   124A      0.938263   125A      0.945340  
     126A      0.949323   127A      0.955561   128A      0.963155  
     129A      0.967074   130A      0.980671   131A      0.987217  
     132A      0.993134   133A      0.996710   134A      1.005429  
     135A      1.012563   136A      1.018629   137A      1.020205  
     138A      1.034774   139A      1.040601   140A      1.041452  
     141A      1.049819   142A      1.058831   143A      1.067476  
     144A      1.082708   145A      1.088185   146A      1.097167  
     147A      1.101570   148A      1.109663   149A      1.114170  
     150A      1.121236   151A      1.133861   152A      1.150201  
     153A      1.155025   154A      1.161738   155A      1.168556  
     156A      1.177060   157A      1.182802   158A      1.189314  
     159A      1.205987   160A      1.214231   161A      1.215890  
     162A      1.239271   163A      1.239370   164A      1.246759  
     165A      1.261195   166A      1.277797   167A      1.279922  
     168A      1.292064   169A      1.304231   170A      1.312669  
     171A      1.321908   172A      1.332333   173A      1.337763  
     174A      1.358209   175A      1.378506   176A      1.383099  
     177A      1.393538   178A      1.409470   179A      1.419739  
     180A      1.427497   181A      1.437680   182A      1.456601  
     183A      1.464636   184A      1.494989   185A      1.500455  
     186A      1.510227   187A      1.520349   188A      1.539883  
     189A      1.547421   190A      1.555016   191A      1.556422  
     192A      1.574297   193A      1.580091   194A      1.603907  
     195A      1.608855   196A      1.611372   197A      1.632629  
     198A      1.644346   199A      1.657640   200A      1.662736  
     201A      1.672897   202A      1.678962   203A      1.697333  
     204A      1.711644   205A      1.734674   206A      1.740441  
     207A      1.755898   208A      1.778402   209A      1.781842  
     210A      1.808674   211A      1.812807   212A      1.816534  
     213A      1.845800   214A      1.848696   215A      1.866085  
     216A      1.878365   217A      1.885426   218A      1.891868  
     219A      1.907748   220A      1.916731   221A      1.934608  
     222A      1.944415   223A      1.975679   224A      1.980165  
     225A      1.987851   226A      1.996928   227A      2.014520  
     228A      2.019055   229A      2.031752   230A      2.048075  
     231A      2.065401   232A      2.100411   233A      2.113174  
     234A      2.130127   235A      2.147877   236A      2.191212  
     237A      2.215606   238A      2.273947   239A      2.305600  
     240A      2.387327   241A      2.423474   242A      2.455410  
     243A      2.468530   244A      2.481689   245A      2.488441  
     246A      2.491406   247A      2.496935   248A      2.504256  
     249A      2.528355   250A      2.532516   251A      2.551990  
     252A      2.569584   253A      2.583399   254A      2.595211  
     255A      2.612803   256A      2.614623   257A      2.633127  
     258A      2.648602   259A      2.676000   260A      2.679285  
     261A      2.691560   262A      2.702370   263A      2.722164  
     264A      2.732734   265A      2.747625   266A      2.750291  
     267A      2.757902   268A      2.762186   269A      2.772808  
     270A      2.788397   271A      2.807134   272A      2.826664  
     273A      2.829131   274A      2.856266   275A      2.877748  
     276A      2.885806   277A      2.896981   278A      2.907782  
     279A      2.938688   280A      2.962818   281A      2.987156  
     282A      2.995926   283A      3.003371   284A      3.040289  
     285A      3.059364   286A      3.096520   287A      3.106788  
     288A      3.147663   289A      3.179248   290A      3.189683  
     291A      3.196122   292A      3.212686   293A      3.232210  
     294A      3.251694   295A      3.268967   296A      3.274657  
     297A      3.282617   298A      3.298894   299A      3.314684  
     300A      3.329681   301A      3.342525   302A      3.360446  
     303A      3.397064   304A      3.399849   305A      3.405029  
     306A      3.431961   307A      3.442096   308A      3.453279  
     309A      3.467196   310A      3.476412   311A      3.490470  
     312A      3.508419   313A      3.525167   314A      3.546162  
     315A      3.557530   316A      3.602737   317A      3.624419  
     318A      3.648260   319A      3.657729   320A      3.692430  
     321A      3.709212   322A      3.724039   323A      3.743384  
     324A      3.769670   325A      3.784838   326A      3.815677  
     327A      3.831386   328A      3.846278   329A      3.878278  
     330A      3.935134   331A      3.951238   332A      4.000108  
     333A      4.072392   334A      4.154136   335A      4.233531  
     336A      4.256224   337A      4.302573   338A      4.348200  
     339A      4.395416   340A      4.412135   341A      4.420816  
     342A      4.431473   343A      4.462820   344A      4.479672  
     345A      4.494234   346A      4.497068   347A      4.521613  
     348A      4.540861   349A      4.569111   350A      4.583197  
     351A      4.590108   352A      4.618730   353A      4.635087  
     354A      4.647364   355A      4.663163   356A      4.681268  
     357A      4.699938   358A      4.717725   359A      4.725272  
     360A      4.734139   361A      4.762556   362A      4.768768  
     363A      4.786964   364A      4.826661   365A      4.892072  
     366A      4.900790   367A      4.919050   368A      4.927230  
     369A      4.938158   370A      4.954743   371A      4.990996  
     372A      5.012895   373A      5.021993   374A      5.051654  
     375A      5.063463   376A      5.072081   377A      5.113273  
     378A      5.142765   379A      5.149481   380A      5.158234  
     381A      5.187473   382A      5.216845   383A      5.274610  
     384A      5.300603   385A      5.320505   386A      5.332479  
     387A      5.426536   388A      5.447365   389A      5.465664  
     390A      5.486542   391A      5.505487   392A      5.560011  
     393A      5.567063   394A      5.570909   395A      5.583384  
     396A      5.608576   397A      5.661552   398A      5.675320  
     399A      5.717555   400A      5.727275   401A      5.744831  
     402A      5.775805   403A      5.843438   404A      5.859268  
     405A      5.883365   406A      5.917204   407A      6.126916  
     408A      6.159924   409A      6.186975   410A      6.213318  
     411A      6.240504   412A      6.359665   413A      6.409894  
     414A      6.513937   415A      6.524181   416A      6.570977  
     417A      6.624011   418A      6.760391   419A      6.778423  
     420A      6.829176   421A      6.856450   422A      6.927273  
     423A      7.019746   424A      7.140450   425A      7.181847  
     426A      7.187252   427A      7.239861   428A      7.285894  
     429A      7.317768   430A      7.353984   431A      7.372316  
     432A      7.452662   433A      7.684745   434A      7.733475  
     435A      7.751224   436A      7.759997   437A      7.787218  
     438A      7.809590   439A      7.846011   440A      7.871356  
     441A      7.890151   442A      7.941234   443A      8.006180  
     444A      8.042405   445A      8.118027   446A      8.165369  
     447A      8.188890   448A      8.217250   449A      8.272451  
     450A      8.316027   451A      8.333403   452A      8.345073  
     453A      8.367392   454A      8.399982   455A      8.435707  
     456A      8.682112   457A      8.705482   458A      8.783705  
     459A      8.866708   460A      8.897663   461A      8.932356  
     462A      9.061858   463A      9.078905   464A      9.107015  
     465A      9.728220   466A      9.776460   467A      9.829971  
     468A      9.880599   469A      9.896273   470A      9.913851  
     471A      9.932272   472A      9.956058   473A     10.081373  
     474A     10.097993   475A     10.124725   476A     10.156599  
     477A     10.235698   478A     10.337723   479A     10.356433  
     480A     10.396697   481A     10.806776   482A     11.102365  
     483A     11.188983   484A     11.237693   485A     11.287629  
     486A     11.763981   487A     11.799248   488A     11.892794  
     489A     11.969950   490A     12.008139   491A     12.294866  
     492A     12.322137   493A     12.381044   494A     13.484183  
     495A     13.505294   496A     13.724369   497A     13.783027  
     498A     13.796028   499A     13.936599   500A     13.963780  
     501A     14.030208   502A     14.080118   503A     14.115741  
     504A     14.192311   505A     16.078491   506A     26.312941  
     507A     26.352268   508A     26.425366   509A     26.515844  
     510A     26.775946   511A     46.621032   512A     65.563719  
     513A     66.576172   514A     67.447852   515A     67.486621  
     516A    138.892857   517A    139.284727   518A    139.429744  
     519A    712.108764  

    Final Occupation by Irrep:
              A 
    DOCC [     5 ]
    NA   [     5 ]
    NB   [     5 ]

  @DF-RHF Final Energy:   -76.05949157765093

   => Energetics <=

    Nuclear Repulsion Energy =              9.0961922245537643
    One-Electron Energy =                -122.8708594584809077
    Two-Electron Energy =                  37.7151756562762230
    Total Energy =                        -76.0594915776509310

Computation Completed


Properties will be evaluated at   0.000000,   0.000000,   0.000000 [a0]

Properties computed using the SCF density matrix


 Multipole Moments:

 ------------------------------------------------------------------------------------
     Multipole            Electronic (a.u.)      Nuclear  (a.u.)        Total (a.u.)
 ------------------------------------------------------------------------------------

 L = 1.  Multiply by 2.5417464519 to convert [e a0] to [Debye]
 Dipole X            :        -11.0131428           10.6198923           -0.3932505
 Dipole Y            :          3.5913483           -2.9361166            0.6552317
 Dipole Z            :        -61.0210567           60.8900655           -0.1309913
 Magnitude           :                                                    0.7753278

 ------------------------------------------------------------------------------------

*** tstop() called on ddmfs1 at Tue Jan 23 00:42:53 2024
Module time:
	user time   =     105.73 seconds =       1.76 minutes
	system time =       7.04 seconds =       0.12 minutes
	total time  =          9 seconds =       0.15 minutes
Total time:
	user time   =     105.73 seconds =       1.76 minutes
	system time =       7.04 seconds =       0.12 minutes
	total time  =          9 seconds =       0.15 minutes

*** tstart() called on ddmfs1
*** at Tue Jan 23 00:42:53 2024


  //>>>>>>>>>>>>>>>>>>>>>>>>>>>>>>>>>>>//
  //               DFMP2               //
  //<<<<<<<<<<<<<<<<<<<<<<<<<<<<<<<<<<<//

   => Loading Basis Set <=

    Name: (AUG-CC-PVTZ AUX)
    Role: RIFIT
    Keyword: DF_BASIS_MP2
    atoms 1                            entry BR         line  1248 file /ddmfs1b/softs/psi4conda/share/psi4/basis/aug-cc-pvtz-ri.gbs 
    atoms 2, 5, 8, 11, 14              entry O          line   264 file /ddmfs1b/softs/psi4conda/share/psi4/basis/aug-cc-pvtz-ri.gbs 
    atoms 3-4, 6-7, 9-10, 12-13, 15-16 entry H          line    30 file /ddmfs1b/softs/psi4conda/share/psi4/basis/aug-cc-pvtz-ri.gbs 

	 --------------------------------------------------------
	                          DF-MP2                         
	      2nd-Order Density-Fitted Moller-Plesset Theory     
	              RMP2 Wavefunction,  20 Threads             
	                                                         
	        Rob Parrish, Justin Turney, Andy Simmonett,      
	           Ed Hohenstein, and C. David Sherrill          
	 --------------------------------------------------------

   => Auxiliary Basis Set <=

  Basis Set: (AUG-CC-PVTZ AUX)
    Blend: AUG-CC-PVTZ-RI
    Number of shells: 323
    Number of basis functions: 1181
    Number of Cartesian functions: 1491
    Spherical Harmonics?: true
    Max angular momentum: 5

	 --------------------------------------------------------
	                 NBF =   519, NAUX =  1181
	 --------------------------------------------------------
	   CLASS    FOCC     OCC    AOCC    AVIR     VIR    FVIR
	   PAIRS       0       5       5     514     514       0
	 --------------------------------------------------------

	-----------------------------------------------------------
	 ==================> DF-MP2 Energies <==================== 
	-----------------------------------------------------------
	 Reference Energy          =     -76.0594915776509310 [Eh]
	 Singles Energy            =      -0.0000000000000000 [Eh]
	 Same-Spin Energy          =      -0.0685319382868013 [Eh]
	 Opposite-Spin Energy      =      -0.2161191054608014 [Eh]
	 Correlation Energy        =      -0.2846510437476027 [Eh]
	 Total Energy              =     -76.3441426213985324 [Eh]
	-----------------------------------------------------------
	 ================> DF-SCS-MP2 Energies <================== 
	-----------------------------------------------------------
	 SCS Same-Spin Scale       =       0.3333333333333333 [-]
	 SCS Opposite-Spin Scale   =       1.2000000000000000 [-]
	 SCS Same-Spin Energy      =      -0.0228439794289338 [Eh]
	 SCS Opposite-Spin Energy  =      -0.2593429265529617 [Eh]
	 SCS Correlation Energy    =      -0.2821869059818955 [Eh]
	 SCS Total Energy          =     -76.3416784836328333 [Eh]
	-----------------------------------------------------------


*** tstop() called on ddmfs1 at Tue Jan 23 00:43:04 2024
Module time:
	user time   =      34.18 seconds =       0.57 minutes
	system time =       2.41 seconds =       0.04 minutes
	total time  =         11 seconds =       0.18 minutes
Total time:
	user time   =     139.93 seconds =       2.33 minutes
	system time =       9.46 seconds =       0.16 minutes
	total time  =         20 seconds =       0.33 minutes

    Psi4 stopped on: Tuesday, 23 January 2024 12:43AM
    Psi4 wall time for execution: 0:00:19.83

*** Psi4 exiting successfully. Buy a developer a beer!
