
    -----------------------------------------------------------------------
          Psi4: An Open-Source Ab Initio Electronic Structure Package
                               Psi4 1.8.2 release

                         Git: Rev {} zzzzzzz 


    D. G. A. Smith, L. A. Burns, A. C. Simmonett, R. M. Parrish,
    M. C. Schieber, R. Galvelis, P. Kraus, H. Kruse, R. Di Remigio,
    A. Alenaizan, A. M. James, S. Lehtola, J. P. Misiewicz, M. Scheurer,
    R. A. Shaw, J. B. Schriber, Y. Xie, Z. L. Glick, D. A. Sirianni,
    J. S. O'Brien, J. M. Waldrop, A. Kumar, E. G. Hohenstein,
    B. P. Pritchard, B. R. Brooks, H. F. Schaefer III, A. Yu. Sokolov,
    K. Patkowski, A. E. DePrince III, U. Bozkaya, R. A. King,
    F. A. Evangelista, J. M. Turney, T. D. Crawford, C. D. Sherrill,
    J. Chem. Phys. 152(18) 184108 (2020). https://doi.org/10.1063/5.0006002

                            Additional Code Authors
    E. T. Seidl, C. L. Janssen, E. F. Valeev, M. L. Leininger,
    J. F. Gonthier, R. M. Richard, H. R. McAlexander, M. Saitow, X. Wang,
    P. Verma, M. H. Lechner, A. Jiang, S. Behnle, A. G. Heide,
    M. F. Herbst, and D. L. Poole

             Previous Authors, Complete List of Code Contributors,
                       and Citations for Specific Modules
    https://github.com/psi4/psi4/blob/master/codemeta.json
    https://github.com/psi4/psi4/graphs/contributors
    http://psicode.org/psi4manual/master/introduction.html#citing-psifour

    -----------------------------------------------------------------------


    Psi4 started on: Monday, 22 January 2024 11:29PM

    Process ID: 117139
    Host:       ddmfs1
    PSIDATADIR: /ddmfs1b/softs/psi4conda/share/psi4
    Memory:     500.0 MiB
    Threads:    20
    
  ==> Input File <==

--------------------------------------------------------------------------
MEMORY 60 GB

molecule dimer {
0 1
Gh(Br)     0.000000     0.000000     0.000000
Gh(O)     -1.555931    -2.410735     1.903242
Gh(H)     -1.336158    -1.685951     1.329705
Gh(H)     -1.202065    -2.143102     2.753233
O          1.417048     1.968120    -2.039520
H          1.167136     1.401234    -1.339808
H          2.306972     2.196646    -1.827799
Gh(O)     -2.508795     2.074873    -1.101146
Gh(H)     -3.092353     1.814461    -0.316996
Gh(H)     -1.909740     1.348917    -1.007525
Gh(O)      2.328483    -2.470186    -0.546566
Gh(H)      1.861807    -3.293107    -0.316598
Gh(H)      1.615156    -1.824846    -0.512308
Gh(O)     -1.332291    -0.652158    -3.288020
Gh(H)     -0.891184    -0.465234    -2.411088
Gh(H)     -0.886797    -0.114013    -3.927637

units ang
no_reorient
no_com
symmetry c1
}

set {
basis        aug-cc-pVTZ
scf_type     df
}

energy("mp2")
--------------------------------------------------------------------------

  Memory set to  55.879 GiB by Python driver.

Scratch directory: /ddmfs1a/scratch/
   => Libint2 <=

    Primary   basis highest AM E, G, H:  5, 4, 3
    Auxiliary basis highest AM E, G, H:  6, 5, 4
    Onebody   basis highest AM E, G, H:  6, 5, 4
    Solid Harmonics ordering:            gaussian

*** tstart() called on ddmfs1
*** at Mon Jan 22 23:29:20 2024

   => Loading Basis Set <=

    Name: AUG-CC-PVTZ
    Role: ORBITAL
    Keyword: BASIS
    atoms 1                            entry BR         line  4208 file /ddmfs1b/softs/psi4conda/share/psi4/basis/aug-cc-pvtz.gbs 
    atoms 2, 5, 8, 11, 14              entry O          line   331 file /ddmfs1b/softs/psi4conda/share/psi4/basis/aug-cc-pvtz.gbs 
    atoms 3-4, 6-7, 9-10, 12-13, 15-16 entry H          line    40 file /ddmfs1b/softs/psi4conda/share/psi4/basis/aug-cc-pvtz.gbs 


         ---------------------------------------------------------
                                   SCF
               by Justin Turney, Rob Parrish, Andy Simmonett
                          and Daniel G. A. Smith
                              RHF Reference
                       20 Threads,  57220 MiB Core
         ---------------------------------------------------------

  ==> Geometry <==

    Molecular point group: c1
    Full point group: C1

    Geometry (in Angstrom), charge = 0, multiplicity = 1:

       Center              X                  Y                   Z               Mass       
    ------------   -----------------  -----------------  -----------------  -----------------
      Gh(BR)          0.000000000000     0.000000000000     0.000000000000    78.918337600000
      Gh(O)          -1.555931000000    -2.410735000000     1.903242000000    15.994914619570
      Gh(H)          -1.336158000000    -1.685951000000     1.329705000000     1.007825032230
      Gh(H)          -1.202065000000    -2.143102000000     2.753233000000     1.007825032230
         O            1.417048000000     1.968120000000    -2.039520000000    15.994914619570
         H            1.167136000000     1.401234000000    -1.339808000000     1.007825032230
         H            2.306972000000     2.196646000000    -1.827799000000     1.007825032230
      Gh(O)          -2.508795000000     2.074873000000    -1.101146000000    15.994914619570
      Gh(H)          -3.092353000000     1.814461000000    -0.316996000000     1.007825032230
      Gh(H)          -1.909740000000     1.348917000000    -1.007525000000     1.007825032230
      Gh(O)           2.328483000000    -2.470186000000    -0.546566000000    15.994914619570
      Gh(H)           1.861807000000    -3.293107000000    -0.316598000000     1.007825032230
      Gh(H)           1.615156000000    -1.824846000000    -0.512308000000     1.007825032230
      Gh(O)          -1.332291000000    -0.652158000000    -3.288020000000    15.994914619570
      Gh(H)          -0.891184000000    -0.465234000000    -2.411088000000     1.007825032230
      Gh(H)          -0.886797000000    -0.114013000000    -3.927637000000     1.007825032230

  Running in c1 symmetry.

  Rotational constants: A =      0.03136  B =      0.02373  C =      0.02032 [cm^-1]
  Rotational constants: A =    940.03676  B =    711.40872  C =    609.06575 [MHz]
  Nuclear repulsion =    9.378950008883246

  Charge       = 0
  Multiplicity = 1
  Electrons    = 10
  Nalpha       = 5
  Nbeta        = 5

  ==> Algorithm <==

  SCF Algorithm Type is DF.
  DIIS enabled.
  MOM disabled.
  Fractional occupation disabled.
  Guess Type is SAD.
  Energy threshold   = 1.00e-08
  Density threshold  = 1.00e-08
  Integral threshold = 1.00e-12

  ==> Primary Basis <==

  Basis Set: AUG-CC-PVTZ
    Blend: AUG-CC-PVTZ
    Number of shells: 179
    Number of basis functions: 519
    Number of Cartesian functions: 594
    Spherical Harmonics?: true
    Max angular momentum: 3

   => Loading Basis Set <=

    Name: (AUG-CC-PVTZ AUX)
    Role: JKFIT
    Keyword: DF_BASIS_SCF
    atoms 1                            entry BR         line  1492 file /ddmfs1b/softs/psi4conda/share/psi4/basis/aug-cc-pvtz-jkfit.gbs 
    atoms 2, 5, 8, 11, 14              entry O          line   286 file /ddmfs1b/softs/psi4conda/share/psi4/basis/aug-cc-pvtz-jkfit.gbs 
    atoms 3-4, 6-7, 9-10, 12-13, 15-16 entry H          line    70 file /ddmfs1b/softs/psi4conda/share/psi4/basis/aug-cc-pvtz-jkfit.gbs 

  ==> Integral Setup <==

  DFHelper Memory: AOs need 2.199 GiB; user supplied 41.910 GiB. 
  Using in-core AOs.

  ==> MemDFJK: Density-Fitted J/K Matrices <==

    J tasked:                   Yes
    K tasked:                   Yes
    wK tasked:                   No
    OpenMP threads:              20
    Memory [MiB]:             42915
    Algorithm:                 Core
    Schwarz Cutoff:           1E-12
    Mask sparsity (%):      15.0452
    Fitting Condition:        1E-10

   => Auxiliary Basis Set <=

  Basis Set: (AUG-CC-PVTZ AUX)
    Blend: AUG-CC-PVTZ-JKFIT
    Number of shells: 348
    Number of basis functions: 1228
    Number of Cartesian functions: 1534
    Spherical Harmonics?: true
    Max angular momentum: 4

  Minimum eigenvalue in the overlap matrix is 1.2853777522E-04.
  Reciprocal condition number of the overlap matrix is 1.0979785090E-05.
    Using symmetric orthogonalization.

  ==> Pre-Iterations <==

  SCF Guess: Superposition of Atomic Densities via on-the-fly atomic UHF (no occupation information).

   -------------------------
    Irrep   Nso     Nmo    
   -------------------------
     A        519     519 
   -------------------------
    Total     519     519
   -------------------------

  ==> Iterations <==

                           Total Energy        Delta E     RMS |[F,P]|

   @DF-RHF iter SAD:   -75.50009773503328   -7.55001e+01   0.00000e+00 
   @DF-RHF iter   1:   -75.97720729440712   -4.77110e-01   9.07498e-04 DIIS/ADIIS
   @DF-RHF iter   2:   -76.03050640007096   -5.32991e-02   6.04965e-04 DIIS/ADIIS
   @DF-RHF iter   3:   -76.06057970042772   -3.00733e-02   4.09522e-05 DIIS
   @DF-RHF iter   4:   -76.06094176963109   -3.62069e-04   9.33158e-06 DIIS
   @DF-RHF iter   5:   -76.06096198617834   -2.02165e-05   2.07499e-06 DIIS
   @DF-RHF iter   6:   -76.06096357591395   -1.58974e-06   4.50043e-07 DIIS
   @DF-RHF iter   7:   -76.06096365928180   -8.33679e-08   8.29209e-08 DIIS
   @DF-RHF iter   8:   -76.06096366181276   -2.53097e-09   1.35920e-08 DIIS
   @DF-RHF iter   9:   -76.06096366186448   -5.17133e-11   3.17696e-09 DIIS
  Energy and wave function converged.


  ==> Post-Iterations <==

    Orbital Energies [Eh]
    ---------------------

    Doubly Occupied:                                                      

       1A    -20.564297     2A     -1.364275     3A     -0.725806  
       4A     -0.590708     5A     -0.512261  

    Virtual:                                                              

       6A      0.015985     7A      0.031991     8A      0.035366  
       9A      0.040060    10A      0.051714    11A      0.056669  
      12A      0.057922    13A      0.068489    14A      0.081575  
      15A      0.082901    16A      0.095531    17A      0.101653  
      18A      0.105646    19A      0.119225    20A      0.138123  
      21A      0.139701    22A      0.143849    23A      0.145652  
      24A      0.154398    25A      0.156911    26A      0.163556  
      27A      0.168571    28A      0.174245    29A      0.175696  
      30A      0.187963    31A      0.194561    32A      0.197310  
      33A      0.201247    34A      0.203242    35A      0.210172  
      36A      0.213950    37A      0.227141    38A      0.236541  
      39A      0.246074    40A      0.248428    41A      0.263290  
      42A      0.266317    43A      0.272386    44A      0.287285  
      45A      0.292483    46A      0.298089    47A      0.304606  
      48A      0.311838    49A      0.313795    50A      0.322053  
      51A      0.325805    52A      0.331855    53A      0.334832  
      54A      0.341631    55A      0.350740    56A      0.354368  
      57A      0.359451    58A      0.364086    59A      0.379690  
      60A      0.381248    61A      0.385713    62A      0.389561  
      63A      0.399499    64A      0.401725    65A      0.407161  
      66A      0.415259    67A      0.423470    68A      0.428161  
      69A      0.440589    70A      0.456374    71A      0.464089  
      72A      0.467237    73A      0.474986    74A      0.484255  
      75A      0.491870    76A      0.503401    77A      0.520915  
      78A      0.537396    79A      0.553752    80A      0.559250  
      81A      0.568299    82A      0.570519    83A      0.573074  
      84A      0.592309    85A      0.607071    86A      0.625142  
      87A      0.636334    88A      0.653834    89A      0.677752  
      90A      0.703701    91A      0.705932    92A      0.708234  
      93A      0.732599    94A      0.732958    95A      0.741911  
      96A      0.753061    97A      0.759669    98A      0.767848  
      99A      0.771760   100A      0.777831   101A      0.785216  
     102A      0.786592   103A      0.798675   104A      0.802412  
     105A      0.806278   106A      0.808190   107A      0.815027  
     108A      0.823151   109A      0.826685   110A      0.832175  
     111A      0.837738   112A      0.841615   113A      0.851536  
     114A      0.860115   115A      0.863538   116A      0.870630  
     117A      0.880140   118A      0.883943   119A      0.886764  
     120A      0.891232   121A      0.897122   122A      0.905458  
     123A      0.912792   124A      0.917476   125A      0.923312  
     126A      0.925667   127A      0.930414   128A      0.944571  
     129A      0.947543   130A      0.949465   131A      0.959507  
     132A      0.970323   133A      0.971837   134A      0.981459  
     135A      0.983029   136A      0.994152   137A      0.997371  
     138A      1.006113   139A      1.008443   140A      1.017309  
     141A      1.022554   142A      1.024516   143A      1.030511  
     144A      1.036647   145A      1.045764   146A      1.048062  
     147A      1.052575   148A      1.062086   149A      1.068895  
     150A      1.072159   151A      1.078663   152A      1.082234  
     153A      1.091467   154A      1.100095   155A      1.113183  
     156A      1.113965   157A      1.138436   158A      1.139147  
     159A      1.145799   160A      1.163384   161A      1.170732  
     162A      1.183638   163A      1.187931   164A      1.200288  
     165A      1.202451   166A      1.204306   167A      1.224005  
     168A      1.229126   169A      1.249859   170A      1.256027  
     171A      1.259807   172A      1.263879   173A      1.269019  
     174A      1.274469   175A      1.286829   176A      1.304242  
     177A      1.316194   178A      1.325829   179A      1.335085  
     180A      1.363847   181A      1.373666   182A      1.375958  
     183A      1.393399   184A      1.412339   185A      1.427473  
     186A      1.431469   187A      1.449973   188A      1.459877  
     189A      1.470606   190A      1.490552   191A      1.502455  
     192A      1.524176   193A      1.531357   194A      1.544559  
     195A      1.556510   196A      1.581812   197A      1.590298  
     198A      1.602198   199A      1.620574   200A      1.630910  
     201A      1.647557   202A      1.649582   203A      1.677894  
     204A      1.692447   205A      1.700669   206A      1.723294  
     207A      1.727791   208A      1.735768   209A      1.743142  
     210A      1.755564   211A      1.765299   212A      1.776903  
     213A      1.784960   214A      1.791598   215A      1.795480  
     216A      1.823255   217A      1.835394   218A      1.848499  
     219A      1.852842   220A      1.855696   221A      1.869197  
     222A      1.877757   223A      1.910355   224A      1.930159  
     225A      1.938674   226A      1.945951   227A      1.958984  
     228A      1.963784   229A      1.985543   230A      1.991810  
     231A      2.012787   232A      2.029063   233A      2.092163  
     234A      2.114075   235A      2.177861   236A      2.188195  
     237A      2.223670   238A      2.262527   239A      2.319058  
     240A      2.426918   241A      2.441840   242A      2.454101  
     243A      2.457271   244A      2.473591   245A      2.479083  
     246A      2.485850   247A      2.486921   248A      2.496752  
     249A      2.508759   250A      2.511879   251A      2.520093  
     252A      2.540047   253A      2.541855   254A      2.550733  
     255A      2.559640   256A      2.576116   257A      2.576800  
     258A      2.585038   259A      2.599572   260A      2.605195  
     261A      2.622873   262A      2.626267   263A      2.636514  
     264A      2.651853   265A      2.658930   266A      2.673648  
     267A      2.677122   268A      2.685027   269A      2.685717  
     270A      2.708523   271A      2.714014   272A      2.723851  
     273A      2.742310   274A      2.764474   275A      2.774701  
     276A      2.788055   277A      2.807712   278A      2.838340  
     279A      2.850457   280A      2.868730   281A      2.900848  
     282A      2.914185   283A      2.929120   284A      2.950470  
     285A      2.984333   286A      3.010367   287A      3.031868  
     288A      3.123674   289A      3.142704   290A      3.148679  
     291A      3.159117   292A      3.181130   293A      3.186835  
     294A      3.200533   295A      3.215776   296A      3.221207  
     297A      3.230144   298A      3.243429   299A      3.274063  
     300A      3.277653   301A      3.293429   302A      3.325415  
     303A      3.372462   304A      3.385090   305A      3.392452  
     306A      3.404852   307A      3.428538   308A      3.435991  
     309A      3.456436   310A      3.466363   311A      3.486395  
     312A      3.501205   313A      3.521717   314A      3.540198  
     315A      3.554007   316A      3.572408   317A      3.596505  
     318A      3.606075   319A      3.615543   320A      3.638740  
     321A      3.653735   322A      3.675559   323A      3.695185  
     324A      3.725633   325A      3.764206   326A      3.780782  
     327A      3.845382   328A      3.854132   329A      3.909641  
     330A      3.932358   331A      3.949333   332A      4.033321  
     333A      4.106153   334A      4.133263   335A      4.285299  
     336A      4.288851   337A      4.355293   338A      4.363187  
     339A      4.380356   340A      4.399825   341A      4.408134  
     342A      4.418683   343A      4.441321   344A      4.455995  
     345A      4.459013   346A      4.462175   347A      4.475238  
     348A      4.477637   349A      4.500705   350A      4.510818  
     351A      4.515066   352A      4.533756   353A      4.571192  
     354A      4.579253   355A      4.581190   356A      4.610442  
     357A      4.628782   358A      4.690417   359A      4.691953  
     360A      4.701198   361A      4.712616   362A      4.721893  
     363A      4.756337   364A      4.769056   365A      4.824402  
     366A      4.848246   367A      4.851672   368A      4.870387  
     369A      4.877496   370A      4.884493   371A      4.903378  
     372A      4.915011   373A      4.919894   374A      4.929401  
     375A      4.942889   376A      4.955039   377A      4.968922  
     378A      5.001068   379A      5.043115   380A      5.055997  
     381A      5.219765   382A      5.229326   383A      5.258957  
     384A      5.286559   385A      5.294032   386A      5.317487  
     387A      5.357983   388A      5.485303   389A      5.491565  
     390A      5.547990   391A      5.554332   392A      5.556917  
     393A      5.582245   394A      5.592437   395A      5.606102  
     396A      5.613360   397A      5.643150   398A      5.644775  
     399A      5.695708   400A      5.700490   401A      5.736520  
     402A      5.800804   403A      5.856850   404A      5.899888  
     405A      5.902292   406A      5.936457   407A      6.134186  
     408A      6.143536   409A      6.158064   410A      6.190960  
     411A      6.227724   412A      6.303504   413A      6.394153  
     414A      6.437504   415A      6.451951   416A      6.567335  
     417A      6.583137   418A      6.629872   419A      6.685654  
     420A      6.695610   421A      6.787949   422A      7.026092  
     423A      7.076915   424A      7.086496   425A      7.096709  
     426A      7.141522   427A      7.177915   428A      7.342010  
     429A      7.373007   430A      7.388016   431A      7.432998  
     432A      7.489750   433A      7.688228   434A      7.695136  
     435A      7.711120   436A      7.756033   437A      7.781699  
     438A      7.840538   439A      7.862983   440A      7.867992  
     441A      7.937966   442A      7.991666   443A      8.026268  
     444A      8.045545   445A      8.060839   446A      8.069661  
     447A      8.079041   448A      8.080651   449A      8.139301  
     450A      8.214284   451A      8.244775   452A      8.282590  
     453A      8.290781   454A      8.308323   455A      8.315491  
     456A      8.699538   457A      8.761766   458A      8.782758  
     459A      8.828936   460A      8.905654   461A      8.925058  
     462A      8.952348   463A      8.975706   464A      9.011507  
     465A      9.650912   466A      9.675615   467A      9.690061  
     468A      9.736361   469A      9.851792   470A      9.880310  
     471A      9.884666   472A      9.904873   473A     10.051834  
     474A     10.059494   475A     10.066708   476A     10.073978  
     477A     10.274672   478A     10.288556   479A     10.303386  
     480A     10.338103   481A     11.069464   482A     11.085614  
     483A     11.165478   484A     11.206899   485A     11.283884  
     486A     11.700919   487A     11.705743   488A     11.778572  
     489A     11.800069   490A     12.081903   491A     12.123203  
     492A     12.140810   493A     12.228088   494A     13.535929  
     495A     13.559825   496A     13.577862   497A     13.642280  
     498A     13.812866   499A     13.888670   500A     13.938734  
     501A     13.971169   502A     13.999017   503A     14.039036  
     504A     14.100371   505A     17.323732   506A     26.325104  
     507A     26.350627   508A     26.417139   509A     26.530314  
     510A     26.791166   511A     46.587139   512A     65.200981  
     513A     65.391933   514A     65.924937   515A     66.497250  
     516A    138.998645   517A    139.203188   518A    139.402492  
     519A    712.037336  

    Final Occupation by Irrep:
              A 
    DOCC [     5 ]
    NA   [     5 ]
    NB   [     5 ]

  @DF-RHF Final Energy:   -76.06096366186448

   => Energetics <=

    Nuclear Repulsion Energy =              9.3789500088832458
    One-Electron Energy =                -123.3651296352367268
    Two-Electron Energy =                  37.9252159644889986
    Total Energy =                        -76.0609636618644771

Computation Completed


Properties will be evaluated at   0.000000,   0.000000,   0.000000 [a0]

Properties computed using the SCF density matrix


 Multipole Moments:

 ------------------------------------------------------------------------------------
     Multipole            Electronic (a.u.)      Nuclear  (a.u.)        Total (a.u.)
 ------------------------------------------------------------------------------------

 L = 1.  Multiply by 2.5417464519 to convert [e a0] to [Debye]
 Dipole X            :        -27.5594143           27.9877737            0.4283594
 Dipole Y            :        -36.7806605           36.5526701           -0.2279904
 Dipole Z            :         37.4315190          -36.8189835            0.6125354
 Magnitude           :                                                    0.7814544

 ------------------------------------------------------------------------------------

*** tstop() called on ddmfs1 at Mon Jan 22 23:29:29 2024
Module time:
	user time   =     100.97 seconds =       1.68 minutes
	system time =       6.86 seconds =       0.11 minutes
	total time  =          9 seconds =       0.15 minutes
Total time:
	user time   =     100.97 seconds =       1.68 minutes
	system time =       6.86 seconds =       0.11 minutes
	total time  =          9 seconds =       0.15 minutes

*** tstart() called on ddmfs1
*** at Mon Jan 22 23:29:29 2024


  //>>>>>>>>>>>>>>>>>>>>>>>>>>>>>>>>>>>//
  //               DFMP2               //
  //<<<<<<<<<<<<<<<<<<<<<<<<<<<<<<<<<<<//

   => Loading Basis Set <=

    Name: (AUG-CC-PVTZ AUX)
    Role: RIFIT
    Keyword: DF_BASIS_MP2
    atoms 1                            entry BR         line  1248 file /ddmfs1b/softs/psi4conda/share/psi4/basis/aug-cc-pvtz-ri.gbs 
    atoms 2, 5, 8, 11, 14              entry O          line   264 file /ddmfs1b/softs/psi4conda/share/psi4/basis/aug-cc-pvtz-ri.gbs 
    atoms 3-4, 6-7, 9-10, 12-13, 15-16 entry H          line    30 file /ddmfs1b/softs/psi4conda/share/psi4/basis/aug-cc-pvtz-ri.gbs 

	 --------------------------------------------------------
	                          DF-MP2                         
	      2nd-Order Density-Fitted Moller-Plesset Theory     
	              RMP2 Wavefunction,  20 Threads             
	                                                         
	        Rob Parrish, Justin Turney, Andy Simmonett,      
	           Ed Hohenstein, and C. David Sherrill          
	 --------------------------------------------------------

   => Auxiliary Basis Set <=

  Basis Set: (AUG-CC-PVTZ AUX)
    Blend: AUG-CC-PVTZ-RI
    Number of shells: 323
    Number of basis functions: 1181
    Number of Cartesian functions: 1491
    Spherical Harmonics?: true
    Max angular momentum: 5

	 --------------------------------------------------------
	                 NBF =   519, NAUX =  1181
	 --------------------------------------------------------
	   CLASS    FOCC     OCC    AOCC    AVIR     VIR    FVIR
	   PAIRS       0       5       5     514     514       0
	 --------------------------------------------------------

	-----------------------------------------------------------
	 ==================> DF-MP2 Energies <==================== 
	-----------------------------------------------------------
	 Reference Energy          =     -76.0609636618644771 [Eh]
	 Singles Energy            =      -0.0000000000000000 [Eh]
	 Same-Spin Energy          =      -0.0680923400046724 [Eh]
	 Opposite-Spin Energy      =      -0.2149169218979529 [Eh]
	 Correlation Energy        =      -0.2830092619026253 [Eh]
	 Total Energy              =     -76.3439729237670974 [Eh]
	-----------------------------------------------------------
	 ================> DF-SCS-MP2 Energies <================== 
	-----------------------------------------------------------
	 SCS Same-Spin Scale       =       0.3333333333333333 [-]
	 SCS Opposite-Spin Scale   =       1.2000000000000000 [-]
	 SCS Same-Spin Energy      =      -0.0226974466682241 [Eh]
	 SCS Opposite-Spin Energy  =      -0.2579003062775435 [Eh]
	 SCS Correlation Energy    =      -0.2805977529457677 [Eh]
	 SCS Total Energy          =     -76.3415614148102435 [Eh]
	-----------------------------------------------------------


*** tstop() called on ddmfs1 at Mon Jan 22 23:29:40 2024
Module time:
	user time   =      34.27 seconds =       0.57 minutes
	system time =       2.46 seconds =       0.04 minutes
	total time  =         11 seconds =       0.18 minutes
Total time:
	user time   =     135.26 seconds =       2.25 minutes
	system time =       9.32 seconds =       0.16 minutes
	total time  =         20 seconds =       0.33 minutes

    Psi4 stopped on: Monday, 22 January 2024 11:29PM
    Psi4 wall time for execution: 0:00:19.79

*** Psi4 exiting successfully. Buy a developer a beer!
