
    -----------------------------------------------------------------------
          Psi4: An Open-Source Ab Initio Electronic Structure Package
                               Psi4 1.8.2 release

                         Git: Rev {} zzzzzzz 


    D. G. A. Smith, L. A. Burns, A. C. Simmonett, R. M. Parrish,
    M. C. Schieber, R. Galvelis, P. Kraus, H. Kruse, R. Di Remigio,
    A. Alenaizan, A. M. James, S. Lehtola, J. P. Misiewicz, M. Scheurer,
    R. A. Shaw, J. B. Schriber, Y. Xie, Z. L. Glick, D. A. Sirianni,
    J. S. O'Brien, J. M. Waldrop, A. Kumar, E. G. Hohenstein,
    B. P. Pritchard, B. R. Brooks, H. F. Schaefer III, A. Yu. Sokolov,
    K. Patkowski, A. E. DePrince III, U. Bozkaya, R. A. King,
    F. A. Evangelista, J. M. Turney, T. D. Crawford, C. D. Sherrill,
    J. Chem. Phys. 152(18) 184108 (2020). https://doi.org/10.1063/5.0006002

                            Additional Code Authors
    E. T. Seidl, C. L. Janssen, E. F. Valeev, M. L. Leininger,
    J. F. Gonthier, R. M. Richard, H. R. McAlexander, M. Saitow, X. Wang,
    P. Verma, M. H. Lechner, A. Jiang, S. Behnle, A. G. Heide,
    M. F. Herbst, and D. L. Poole

             Previous Authors, Complete List of Code Contributors,
                       and Citations for Specific Modules
    https://github.com/psi4/psi4/blob/master/codemeta.json
    https://github.com/psi4/psi4/graphs/contributors
    http://psicode.org/psi4manual/master/introduction.html#citing-psifour

    -----------------------------------------------------------------------


    Psi4 started on: Monday, 22 January 2024 11:37PM

    Process ID: 117654
    Host:       ddmfs1
    PSIDATADIR: /ddmfs1b/softs/psi4conda/share/psi4
    Memory:     500.0 MiB
    Threads:    20
    
  ==> Input File <==

--------------------------------------------------------------------------
MEMORY 60 GB

molecule dimer {
0 1
Gh(Br)     0.000000     0.000000     0.000000
Gh(O)      2.964962     1.491294    -0.232552
Gh(H)      3.167346     2.329112     0.134912
Gh(H)      2.039397     1.199057     0.005168
Gh(O)      2.467355    -1.133067     2.039740
Gh(H)      1.833343    -1.067852     1.347526
Gh(H)      2.278611    -1.962652     2.509428
Gh(O)      1.685230    -2.489969    -1.505692
Gh(H)      1.129809    -1.865417    -1.040823
Gh(H)      2.217802    -1.919562    -2.100617
O         -1.693532    -0.769404     2.754182
H         -2.198821    -0.054616     3.172365
H         -1.091690    -0.339489     2.159721

units ang
no_reorient
no_com
symmetry c1
}

set {
basis        aug-cc-pVTZ
scf_type     df
}

energy("mp2")
--------------------------------------------------------------------------

  Memory set to  55.879 GiB by Python driver.

Scratch directory: /ddmfs1a/scratch/
   => Libint2 <=

    Primary   basis highest AM E, G, H:  5, 4, 3
    Auxiliary basis highest AM E, G, H:  6, 5, 4
    Onebody   basis highest AM E, G, H:  6, 5, 4
    Solid Harmonics ordering:            gaussian

*** tstart() called on ddmfs1
*** at Mon Jan 22 23:37:22 2024

   => Loading Basis Set <=

    Name: AUG-CC-PVTZ
    Role: ORBITAL
    Keyword: BASIS
    atoms 1                     entry BR         line  4208 file /ddmfs1b/softs/psi4conda/share/psi4/basis/aug-cc-pvtz.gbs 
    atoms 2, 5, 8, 11           entry O          line   331 file /ddmfs1b/softs/psi4conda/share/psi4/basis/aug-cc-pvtz.gbs 
    atoms 3-4, 6-7, 9-10, 12-13 entry H          line    40 file /ddmfs1b/softs/psi4conda/share/psi4/basis/aug-cc-pvtz.gbs 


         ---------------------------------------------------------
                                   SCF
               by Justin Turney, Rob Parrish, Andy Simmonett
                          and Daniel G. A. Smith
                              RHF Reference
                       20 Threads,  57220 MiB Core
         ---------------------------------------------------------

  ==> Geometry <==

    Molecular point group: c1
    Full point group: C1

    Geometry (in Angstrom), charge = 0, multiplicity = 1:

       Center              X                  Y                   Z               Mass       
    ------------   -----------------  -----------------  -----------------  -----------------
      Gh(BR)          0.000000000000     0.000000000000     0.000000000000    78.918337600000
      Gh(O)           2.964962000000     1.491294000000    -0.232552000000    15.994914619570
      Gh(H)           3.167346000000     2.329112000000     0.134912000000     1.007825032230
      Gh(H)           2.039397000000     1.199057000000     0.005168000000     1.007825032230
      Gh(O)           2.467355000000    -1.133067000000     2.039740000000    15.994914619570
      Gh(H)           1.833343000000    -1.067852000000     1.347526000000     1.007825032230
      Gh(H)           2.278611000000    -1.962652000000     2.509428000000     1.007825032230
      Gh(O)           1.685230000000    -2.489969000000    -1.505692000000    15.994914619570
      Gh(H)           1.129809000000    -1.865417000000    -1.040823000000     1.007825032230
      Gh(H)           2.217802000000    -1.919562000000    -2.100617000000     1.007825032230
         O           -1.693532000000    -0.769404000000     2.754182000000    15.994914619570
         H           -2.198821000000    -0.054616000000     3.172365000000     1.007825032230
         H           -1.091690000000    -0.339489000000     2.159721000000     1.007825032230

  Running in c1 symmetry.

  Rotational constants: A =      0.04055  B =      0.03014  C =      0.02679 [cm^-1]
  Rotational constants: A =   1215.60736  B =    903.58878  C =    803.16887 [MHz]
  Nuclear repulsion =    9.171710981598002

  Charge       = 0
  Multiplicity = 1
  Electrons    = 10
  Nalpha       = 5
  Nbeta        = 5

  ==> Algorithm <==

  SCF Algorithm Type is DF.
  DIIS enabled.
  MOM disabled.
  Fractional occupation disabled.
  Guess Type is SAD.
  Energy threshold   = 1.00e-08
  Density threshold  = 1.00e-08
  Integral threshold = 1.00e-12

  ==> Primary Basis <==

  Basis Set: AUG-CC-PVTZ
    Blend: AUG-CC-PVTZ
    Number of shells: 147
    Number of basis functions: 427
    Number of Cartesian functions: 489
    Spherical Harmonics?: true
    Max angular momentum: 3

   => Loading Basis Set <=

    Name: (AUG-CC-PVTZ AUX)
    Role: JKFIT
    Keyword: DF_BASIS_SCF
    atoms 1                     entry BR         line  1492 file /ddmfs1b/softs/psi4conda/share/psi4/basis/aug-cc-pvtz-jkfit.gbs 
    atoms 2, 5, 8, 11           entry O          line   286 file /ddmfs1b/softs/psi4conda/share/psi4/basis/aug-cc-pvtz-jkfit.gbs 
    atoms 3-4, 6-7, 9-10, 12-13 entry H          line    70 file /ddmfs1b/softs/psi4conda/share/psi4/basis/aug-cc-pvtz-jkfit.gbs 

  ==> Integral Setup <==

  DFHelper Memory: AOs need 1.324 GiB; user supplied 41.910 GiB. 
  Using in-core AOs.

  ==> MemDFJK: Density-Fitted J/K Matrices <==

    J tasked:                   Yes
    K tasked:                   Yes
    wK tasked:                   No
    OpenMP threads:              20
    Memory [MiB]:             42915
    Algorithm:                 Core
    Schwarz Cutoff:           1E-12
    Mask sparsity (%):      10.6533
    Fitting Condition:        1E-10

   => Auxiliary Basis Set <=

  Basis Set: (AUG-CC-PVTZ AUX)
    Blend: AUG-CC-PVTZ-JKFIT
    Number of shells: 290
    Number of basis functions: 1032
    Number of Cartesian functions: 1293
    Spherical Harmonics?: true
    Max angular momentum: 4

  Minimum eigenvalue in the overlap matrix is 1.6191733257E-04.
  Reciprocal condition number of the overlap matrix is 1.4369844260E-05.
    Using symmetric orthogonalization.

  ==> Pre-Iterations <==

  SCF Guess: Superposition of Atomic Densities via on-the-fly atomic UHF (no occupation information).

   -------------------------
    Irrep   Nso     Nmo    
   -------------------------
     A        427     427 
   -------------------------
    Total     427     427
   -------------------------

  ==> Iterations <==

                           Total Energy        Delta E     RMS |[F,P]|

   @DF-RHF iter SAD:   -75.47435862407076   -7.54744e+01   0.00000e+00 
   @DF-RHF iter   1:   -75.97600073774609   -5.01642e-01   1.09748e-03 ADIIS/DIIS
   @DF-RHF iter   2:   -76.02849588472472   -5.24951e-02   7.47461e-04 ADIIS/DIIS
   @DF-RHF iter   3:   -76.05988433735001   -3.13885e-02   5.08447e-05 DIIS
   @DF-RHF iter   4:   -76.06027602758357   -3.91690e-04   1.21620e-05 DIIS
   @DF-RHF iter   5:   -76.06030043650436   -2.44089e-05   2.76291e-06 DIIS
   @DF-RHF iter   6:   -76.06030244145803   -2.00495e-06   6.09502e-07 DIIS
   @DF-RHF iter   7:   -76.06030254923517   -1.07777e-07   1.11549e-07 DIIS
   @DF-RHF iter   8:   -76.06030255241210   -3.17692e-09   1.86190e-08 DIIS
   @DF-RHF iter   9:   -76.06030255248223   -7.01306e-11   4.63660e-09 DIIS
  Energy and wave function converged.


  ==> Post-Iterations <==

    Orbital Energies [Eh]
    ---------------------

    Doubly Occupied:                                                      

       1A    -20.567122     2A     -1.351831     3A     -0.718428  
       4A     -0.582580     5A     -0.509898  

    Virtual:                                                              

       6A      0.016860     7A      0.033671     8A      0.038560  
       9A      0.043302    10A      0.052337    11A      0.063236  
      12A      0.070844    13A      0.083669    14A      0.093104  
      15A      0.098815    16A      0.112906    17A      0.120397  
      18A      0.130822    19A      0.137959    20A      0.142994  
      21A      0.145764    22A      0.151969    23A      0.161875  
      24A      0.165929    25A      0.176345    26A      0.179146  
      27A      0.184984    28A      0.195472    29A      0.205116  
      30A      0.209532    31A      0.217946    32A      0.225409  
      33A      0.232975    34A      0.256227    35A      0.261627  
      36A      0.275200    37A      0.280727    38A      0.294093  
      39A      0.301866    40A      0.305437    41A      0.311457  
      42A      0.317023    43A      0.324524    44A      0.331039  
      45A      0.334299    46A      0.337839    47A      0.346034  
      48A      0.350380    49A      0.362446    50A      0.369297  
      51A      0.373766    52A      0.383513    53A      0.390164  
      54A      0.400606    55A      0.407496    56A      0.414629  
      57A      0.419656    58A      0.431271    59A      0.438502  
      60A      0.450598    61A      0.452733    62A      0.456197  
      63A      0.488585    64A      0.499072    65A      0.510240  
      66A      0.527841    67A      0.541209    68A      0.552741  
      69A      0.563592    70A      0.574446    71A      0.603109  
      72A      0.613474    73A      0.626969    74A      0.651094  
      75A      0.663471    76A      0.681673    77A      0.696846  
      78A      0.701179    79A      0.716090    80A      0.722497  
      81A      0.733333    82A      0.745862    83A      0.750305  
      84A      0.760747    85A      0.767676    86A      0.777432  
      87A      0.785865    88A      0.800030    89A      0.807081  
      90A      0.813392    91A      0.819844    92A      0.826481  
      93A      0.840815    94A      0.843209    95A      0.856508  
      96A      0.866243    97A      0.873891    98A      0.874882  
      99A      0.881140   100A      0.889115   101A      0.894094  
     102A      0.899167   103A      0.905912   104A      0.918765  
     105A      0.925574   106A      0.933631   107A      0.936814  
     108A      0.949805   109A      0.953158   110A      0.963308  
     111A      0.971342   112A      0.980265   113A      0.982151  
     114A      0.986232   115A      0.996822   116A      1.007884  
     117A      1.012221   118A      1.018370   119A      1.023774  
     120A      1.032138   121A      1.039160   122A      1.045927  
     123A      1.049093   124A      1.060399   125A      1.073223  
     126A      1.074913   127A      1.085761   128A      1.095670  
     129A      1.115415   130A      1.119678   131A      1.128568  
     132A      1.138728   133A      1.146966   134A      1.150878  
     135A      1.164429   136A      1.171140   137A      1.185342  
     138A      1.207790   139A      1.214756   140A      1.220403  
     141A      1.238692   142A      1.247591   143A      1.268919  
     144A      1.282979   145A      1.285787   146A      1.302584  
     147A      1.317876   148A      1.327785   149A      1.338923  
     150A      1.352054   151A      1.365147   152A      1.384348  
     153A      1.397585   154A      1.415101   155A      1.428314  
     156A      1.449997   157A      1.459022   158A      1.487444  
     159A      1.501673   160A      1.506918   161A      1.521459  
     162A      1.542080   163A      1.558375   164A      1.580462  
     165A      1.605337   166A      1.627969   167A      1.634010  
     168A      1.647324   169A      1.672901   170A      1.681055  
     171A      1.690030   172A      1.719020   173A      1.730700  
     174A      1.749738   175A      1.763937   176A      1.771388  
     177A      1.773783   178A      1.787155   179A      1.794933  
     180A      1.828138   181A      1.836008   182A      1.853847  
     183A      1.875797   184A      1.889688   185A      1.904009  
     186A      1.907191   187A      1.917502   188A      1.941457  
     189A      1.948227   190A      1.956027   191A      1.973815  
     192A      1.977828   193A      2.000651   194A      2.075342  
     195A      2.136978   196A      2.192895   197A      2.206795  
     198A      2.299541   199A      2.370203   200A      2.388883  
     201A      2.432611   202A      2.451653   203A      2.455778  
     204A      2.466190   205A      2.470859   206A      2.477452  
     207A      2.482870   208A      2.500297   209A      2.508069  
     210A      2.532988   211A      2.550010   212A      2.565631  
     213A      2.575630   214A      2.587819   215A      2.591864  
     216A      2.623679   217A      2.633849   218A      2.639797  
     219A      2.647528   220A      2.666358   221A      2.672533  
     222A      2.687531   223A      2.698933   224A      2.705166  
     225A      2.719163   226A      2.739678   227A      2.750239  
     228A      2.758837   229A      2.775342   230A      2.829530  
     231A      2.853188   232A      2.873912   233A      2.917876  
     234A      2.946125   235A      2.976433   236A      3.002056  
     237A      3.030592   238A      3.116350   239A      3.129567  
     240A      3.179032   241A      3.183449   242A      3.202276  
     243A      3.203897   244A      3.222763   245A      3.227430  
     246A      3.253965   247A      3.266400   248A      3.283611  
     249A      3.306631   250A      3.322015   251A      3.355415  
     252A      3.368612   253A      3.378236   254A      3.399470  
     255A      3.410447   256A      3.422826   257A      3.457503  
     258A      3.471593   259A      3.488450   260A      3.497887  
     261A      3.522715   262A      3.577754   263A      3.580093  
     264A      3.591502   265A      3.619699   266A      3.644225  
     267A      3.648306   268A      3.703253   269A      3.721111  
     270A      3.766186   271A      3.782825   272A      3.824847  
     273A      3.853101   274A      3.912485   275A      3.951324  
     276A      4.077493   277A      4.106523   278A      4.238091  
     279A      4.276120   280A      4.296445   281A      4.363056  
     282A      4.373807   283A      4.393571   284A      4.404007  
     285A      4.435087   286A      4.441029   287A      4.448292  
     288A      4.466302   289A      4.473889   290A      4.525613  
     291A      4.544155   292A      4.585601   293A      4.594742  
     294A      4.605898   295A      4.619700   296A      4.652207  
     297A      4.661507   298A      4.683072   299A      4.704849  
     300A      4.720357   301A      4.771055   302A      4.777739  
     303A      4.823131   304A      4.832572   305A      4.880535  
     306A      4.898181   307A      4.920941   308A      4.932849  
     309A      4.948736   310A      4.964574   311A      4.972529  
     312A      4.978967   313A      5.060632   314A      5.121574  
     315A      5.165029   316A      5.171941   317A      5.207237  
     318A      5.253406   319A      5.299002   320A      5.322715  
     321A      5.436763   322A      5.494963   323A      5.503631  
     324A      5.535905   325A      5.538177   326A      5.577194  
     327A      5.583418   328A      5.610240   329A      5.685769  
     330A      5.731575   331A      5.739066   332A      5.746572  
     333A      5.801412   334A      5.869015   335A      5.902537  
     336A      6.149443   337A      6.162454   338A      6.173395  
     339A      6.217687   340A      6.374928   341A      6.410718  
     342A      6.497967   343A      6.554866   344A      6.624570  
     345A      6.752516   346A      6.773800   347A      6.794306  
     348A      6.929085   349A      7.100134   350A      7.122730  
     351A      7.146453   352A      7.153719   353A      7.274368  
     354A      7.334890   355A      7.345197   356A      7.386772  
     357A      7.459012   358A      7.669241   359A      7.695508  
     360A      7.710098   361A      7.735735   362A      7.755834  
     363A      7.848341   364A      7.860452   365A      7.959663  
     366A      7.996375   367A      8.050984   368A      8.082847  
     369A      8.089752   370A      8.184028   371A      8.241135  
     372A      8.265528   373A      8.285096   374A      8.313011  
     375A      8.314520   376A      8.752468   377A      8.763105  
     378A      8.821729   379A      8.833268   380A      8.938940  
     381A      8.979304   382A      9.033362   383A      9.672098  
     384A      9.724276   385A      9.750941   386A      9.851201  
     387A      9.873008   388A      9.896549   389A     10.062200  
     390A     10.072716   391A     10.107931   392A     10.252153  
     393A     10.274620   394A     10.318172   395A     11.057525  
     396A     11.116599   397A     11.178013   398A     11.224408  
     399A     11.677968   400A     11.736180   401A     11.818067  
     402A     12.124402   403A     12.196085   404A     12.246040  
     405A     13.540708   406A     13.578219   407A     13.677376  
     408A     13.778839   409A     13.839249   410A     13.945014  
     411A     13.996756   412A     14.047891   413A     14.052892  
     414A     16.329100   415A     26.278784   416A     26.358159  
     417A     26.436318   418A     26.576502   419A     26.599729  
     420A     46.563134   421A     65.423124   422A     66.235507  
     423A     66.293246   424A    138.914710   425A    139.082735  
     426A    139.266313   427A    711.976821  

    Final Occupation by Irrep:
              A 
    DOCC [     5 ]
    NA   [     5 ]
    NB   [     5 ]

  @DF-RHF Final Energy:   -76.06030255248223

   => Energetics <=

    Nuclear Repulsion Energy =              9.1717109815980020
    One-Electron Energy =                -123.0043064592098716
    Two-Electron Energy =                  37.7722929251296549
    Total Energy =                        -76.0603025524822272

Computation Completed


Properties will be evaluated at   0.000000,   0.000000,   0.000000 [a0]

Properties computed using the SCF density matrix


 Multipole Moments:

 ------------------------------------------------------------------------------------
     Multipole            Electronic (a.u.)      Nuclear  (a.u.)        Total (a.u.)
 ------------------------------------------------------------------------------------

 L = 1.  Multiply by 2.5417464519 to convert [e a0] to [Debye]
 Dipole X            :         31.8879745          -31.8206579            0.0673165
 Dipole Y            :         13.1390104          -12.3764532            0.7625571
 Dipole Z            :        -51.8332351           51.7133797           -0.1198555
 Magnitude           :                                                    0.7748485

 ------------------------------------------------------------------------------------

*** tstop() called on ddmfs1 at Mon Jan 22 23:37:28 2024
Module time:
	user time   =      71.19 seconds =       1.19 minutes
	system time =       5.76 seconds =       0.10 minutes
	total time  =          6 seconds =       0.10 minutes
Total time:
	user time   =      71.19 seconds =       1.19 minutes
	system time =       5.76 seconds =       0.10 minutes
	total time  =          6 seconds =       0.10 minutes

*** tstart() called on ddmfs1
*** at Mon Jan 22 23:37:28 2024


  //>>>>>>>>>>>>>>>>>>>>>>>>>>>>>>>>>>>//
  //               DFMP2               //
  //<<<<<<<<<<<<<<<<<<<<<<<<<<<<<<<<<<<//

   => Loading Basis Set <=

    Name: (AUG-CC-PVTZ AUX)
    Role: RIFIT
    Keyword: DF_BASIS_MP2
    atoms 1                     entry BR         line  1248 file /ddmfs1b/softs/psi4conda/share/psi4/basis/aug-cc-pvtz-ri.gbs 
    atoms 2, 5, 8, 11           entry O          line   264 file /ddmfs1b/softs/psi4conda/share/psi4/basis/aug-cc-pvtz-ri.gbs 
    atoms 3-4, 6-7, 9-10, 12-13 entry H          line    30 file /ddmfs1b/softs/psi4conda/share/psi4/basis/aug-cc-pvtz-ri.gbs 

	 --------------------------------------------------------
	                          DF-MP2                         
	      2nd-Order Density-Fitted Moller-Plesset Theory     
	              RMP2 Wavefunction,  20 Threads             
	                                                         
	        Rob Parrish, Justin Turney, Andy Simmonett,      
	           Ed Hohenstein, and C. David Sherrill          
	 --------------------------------------------------------

   => Auxiliary Basis Set <=

  Basis Set: (AUG-CC-PVTZ AUX)
    Blend: AUG-CC-PVTZ-RI
    Number of shells: 267
    Number of basis functions: 983
    Number of Cartesian functions: 1245
    Spherical Harmonics?: true
    Max angular momentum: 5

	 --------------------------------------------------------
	                 NBF =   427, NAUX =   983
	 --------------------------------------------------------
	   CLASS    FOCC     OCC    AOCC    AVIR     VIR    FVIR
	   PAIRS       0       5       5     422     422       0
	 --------------------------------------------------------

	-----------------------------------------------------------
	 ==================> DF-MP2 Energies <==================== 
	-----------------------------------------------------------
	 Reference Energy          =     -76.0603025524822272 [Eh]
	 Singles Energy            =      -0.0000000000000000 [Eh]
	 Same-Spin Energy          =      -0.0683965318849994 [Eh]
	 Opposite-Spin Energy      =      -0.2156768426816783 [Eh]
	 Correlation Energy        =      -0.2840733745666776 [Eh]
	 Total Energy              =     -76.3443759270489011 [Eh]
	-----------------------------------------------------------
	 ================> DF-SCS-MP2 Energies <================== 
	-----------------------------------------------------------
	 SCS Same-Spin Scale       =       0.3333333333333333 [-]
	 SCS Opposite-Spin Scale   =       1.2000000000000000 [-]
	 SCS Same-Spin Energy      =      -0.0227988439616665 [Eh]
	 SCS Opposite-Spin Energy  =      -0.2588122112180139 [Eh]
	 SCS Correlation Energy    =      -0.2816110551796803 [Eh]
	 SCS Total Energy          =     -76.3419136076619083 [Eh]
	-----------------------------------------------------------


*** tstop() called on ddmfs1 at Mon Jan 22 23:37:38 2024
Module time:
	user time   =      26.46 seconds =       0.44 minutes
	system time =       2.03 seconds =       0.03 minutes
	total time  =         10 seconds =       0.17 minutes
Total time:
	user time   =      97.67 seconds =       1.63 minutes
	system time =       7.79 seconds =       0.13 minutes
	total time  =         16 seconds =       0.27 minutes

    Psi4 stopped on: Monday, 22 January 2024 11:37PM
    Psi4 wall time for execution: 0:00:15.48

*** Psi4 exiting successfully. Buy a developer a beer!
