
    -----------------------------------------------------------------------
          Psi4: An Open-Source Ab Initio Electronic Structure Package
                               Psi4 1.8.2 release

                         Git: Rev {} zzzzzzz 


    D. G. A. Smith, L. A. Burns, A. C. Simmonett, R. M. Parrish,
    M. C. Schieber, R. Galvelis, P. Kraus, H. Kruse, R. Di Remigio,
    A. Alenaizan, A. M. James, S. Lehtola, J. P. Misiewicz, M. Scheurer,
    R. A. Shaw, J. B. Schriber, Y. Xie, Z. L. Glick, D. A. Sirianni,
    J. S. O'Brien, J. M. Waldrop, A. Kumar, E. G. Hohenstein,
    B. P. Pritchard, B. R. Brooks, H. F. Schaefer III, A. Yu. Sokolov,
    K. Patkowski, A. E. DePrince III, U. Bozkaya, R. A. King,
    F. A. Evangelista, J. M. Turney, T. D. Crawford, C. D. Sherrill,
    J. Chem. Phys. 152(18) 184108 (2020). https://doi.org/10.1063/5.0006002

                            Additional Code Authors
    E. T. Seidl, C. L. Janssen, E. F. Valeev, M. L. Leininger,
    J. F. Gonthier, R. M. Richard, H. R. McAlexander, M. Saitow, X. Wang,
    P. Verma, M. H. Lechner, A. Jiang, S. Behnle, A. G. Heide,
    M. F. Herbst, and D. L. Poole

             Previous Authors, Complete List of Code Contributors,
                       and Citations for Specific Modules
    https://github.com/psi4/psi4/blob/master/codemeta.json
    https://github.com/psi4/psi4/graphs/contributors
    http://psicode.org/psi4manual/master/introduction.html#citing-psifour

    -----------------------------------------------------------------------


    Psi4 started on: Monday, 22 January 2024 11:09PM

    Process ID: 115999
    Host:       ddmfs1
    PSIDATADIR: /ddmfs1b/softs/psi4conda/share/psi4
    Memory:     500.0 MiB
    Threads:    20
    
  ==> Input File <==

--------------------------------------------------------------------------
MEMORY 60 GB

molecule dimer {
-1 1
Br         0.000000     0.000000     0.000000
Gh(O)      2.465274    -2.082896    -1.151644
Gh(H)      2.088415    -1.327484    -0.739582
Gh(H)      3.392014    -2.150807    -0.795133
Gh(O)     -2.741984    -0.795186    -1.139633
Gh(H)     -3.050808    -1.748838    -1.012684
Gh(H)     -1.833173    -0.702090    -0.816427
Gh(O)     -1.323507     2.305848    -2.078266
Gh(H)     -1.377126     1.531047    -1.554944
Gh(H)     -2.005493     2.942304    -1.677368
Gh(O)     -1.653707     2.630529     1.100887
Gh(H)     -0.964169     2.021284     0.768719
Gh(H)     -1.213494     3.129397     1.794661

units ang
no_reorient
no_com
symmetry c1
}

set {
basis        aug-cc-pVTZ
scf_type     df
}

energy("mp2")
--------------------------------------------------------------------------

  Memory set to  55.879 GiB by Python driver.

Scratch directory: /ddmfs1a/scratch/
   => Libint2 <=

    Primary   basis highest AM E, G, H:  5, 4, 3
    Auxiliary basis highest AM E, G, H:  6, 5, 4
    Onebody   basis highest AM E, G, H:  6, 5, 4
    Solid Harmonics ordering:            gaussian

*** tstart() called on ddmfs1
*** at Mon Jan 22 23:09:45 2024

   => Loading Basis Set <=

    Name: AUG-CC-PVTZ
    Role: ORBITAL
    Keyword: BASIS
    atoms 1                     entry BR         line  4208 file /ddmfs1b/softs/psi4conda/share/psi4/basis/aug-cc-pvtz.gbs 
    atoms 2, 5, 8, 11           entry O          line   331 file /ddmfs1b/softs/psi4conda/share/psi4/basis/aug-cc-pvtz.gbs 
    atoms 3-4, 6-7, 9-10, 12-13 entry H          line    40 file /ddmfs1b/softs/psi4conda/share/psi4/basis/aug-cc-pvtz.gbs 


         ---------------------------------------------------------
                                   SCF
               by Justin Turney, Rob Parrish, Andy Simmonett
                          and Daniel G. A. Smith
                              RHF Reference
                       20 Threads,  57220 MiB Core
         ---------------------------------------------------------

  ==> Geometry <==

    Molecular point group: c1
    Full point group: C1

    Geometry (in Angstrom), charge = -1, multiplicity = 1:

       Center              X                  Y                   Z               Mass       
    ------------   -----------------  -----------------  -----------------  -----------------
         BR           0.000000000000     0.000000000000     0.000000000000    78.918337600000
      Gh(O)           2.465274000000    -2.082896000000    -1.151644000000    15.994914619570
      Gh(H)           2.088415000000    -1.327484000000    -0.739582000000     1.007825032230
      Gh(H)           3.392014000000    -2.150807000000    -0.795133000000     1.007825032230
      Gh(O)          -2.741984000000    -0.795186000000    -1.139633000000    15.994914619570
      Gh(H)          -3.050808000000    -1.748838000000    -1.012684000000     1.007825032230
      Gh(H)          -1.833173000000    -0.702090000000    -0.816427000000     1.007825032230
      Gh(O)          -1.323507000000     2.305848000000    -2.078266000000    15.994914619570
      Gh(H)          -1.377126000000     1.531047000000    -1.554944000000     1.007825032230
      Gh(H)          -2.005493000000     2.942304000000    -1.677368000000     1.007825032230
      Gh(O)          -1.653707000000     2.630529000000     1.100887000000    15.994914619570
      Gh(H)          -0.964169000000     2.021284000000     0.768719000000     1.007825032230
      Gh(H)          -1.213494000000     3.129397000000     1.794661000000     1.007825032230

  Running in c1 symmetry.

  Rotational constants: A =      0.06072  B =      0.02787  C =      0.02494 [cm^-1]
  Rotational constants: A =   1820.34391  B =    835.56680  C =    747.75961 [MHz]
  Nuclear repulsion =    0.000000000000000

  Charge       = -1
  Multiplicity = 1
  Electrons    = 36
  Nalpha       = 18
  Nbeta        = 18

  ==> Algorithm <==

  SCF Algorithm Type is DF.
  DIIS enabled.
  MOM disabled.
  Fractional occupation disabled.
  Guess Type is SAD.
  Energy threshold   = 1.00e-08
  Density threshold  = 1.00e-08
  Integral threshold = 1.00e-12

  ==> Primary Basis <==

  Basis Set: AUG-CC-PVTZ
    Blend: AUG-CC-PVTZ
    Number of shells: 147
    Number of basis functions: 427
    Number of Cartesian functions: 489
    Spherical Harmonics?: true
    Max angular momentum: 3

   => Loading Basis Set <=

    Name: (AUG-CC-PVTZ AUX)
    Role: JKFIT
    Keyword: DF_BASIS_SCF
    atoms 1                     entry BR         line  1492 file /ddmfs1b/softs/psi4conda/share/psi4/basis/aug-cc-pvtz-jkfit.gbs 
    atoms 2, 5, 8, 11           entry O          line   286 file /ddmfs1b/softs/psi4conda/share/psi4/basis/aug-cc-pvtz-jkfit.gbs 
    atoms 3-4, 6-7, 9-10, 12-13 entry H          line    70 file /ddmfs1b/softs/psi4conda/share/psi4/basis/aug-cc-pvtz-jkfit.gbs 

  ==> Integral Setup <==

  DFHelper Memory: AOs need 1.288 GiB; user supplied 41.910 GiB. 
  Using in-core AOs.

  ==> MemDFJK: Density-Fitted J/K Matrices <==

    J tasked:                   Yes
    K tasked:                   Yes
    wK tasked:                   No
    OpenMP threads:              20
    Memory [MiB]:             42915
    Algorithm:                 Core
    Schwarz Cutoff:           1E-12
    Mask sparsity (%):      13.2321
    Fitting Condition:        1E-10

   => Auxiliary Basis Set <=

  Basis Set: (AUG-CC-PVTZ AUX)
    Blend: AUG-CC-PVTZ-JKFIT
    Number of shells: 290
    Number of basis functions: 1032
    Number of Cartesian functions: 1293
    Spherical Harmonics?: true
    Max angular momentum: 4

  Minimum eigenvalue in the overlap matrix is 1.5901269662E-04.
  Reciprocal condition number of the overlap matrix is 1.3961500587E-05.
    Using symmetric orthogonalization.

  ==> Pre-Iterations <==

  SCF Guess: Superposition of Atomic Densities via on-the-fly atomic UHF (no occupation information).

   -------------------------
    Irrep   Nso     Nmo    
   -------------------------
     A        427     427 
   -------------------------
    Total     427     427
   -------------------------

  ==> Iterations <==

                           Total Energy        Delta E     RMS |[F,P]|

   @DF-RHF iter SAD: -2570.41423563880926   -2.57041e+03   0.00000e+00 
   @DF-RHF iter   1: -2572.25190513623011   -1.83767e+00   2.54328e-03 ADIIS/DIIS
   @DF-RHF iter   2: -2572.46213221772587   -2.10227e-01   1.42411e-03 ADIIS/DIIS
   @DF-RHF iter   3: -2572.53368779906850   -7.15556e-02   1.97900e-05 DIIS
   @DF-RHF iter   4: -2572.53372129533091   -3.34963e-05   2.98432e-06 DIIS
   @DF-RHF iter   5: -2572.53372298567410   -1.69034e-06   7.29877e-07 DIIS
   @DF-RHF iter   6: -2572.53372310165651   -1.15982e-07   1.50002e-07 DIIS
   @DF-RHF iter   7: -2572.53372311755084   -1.58943e-08   1.17789e-08 DIIS
   @DF-RHF iter   8: -2572.53372311761086   -6.00267e-11   2.77689e-09 DIIS
  Energy and wave function converged.


  ==> Post-Iterations <==

    Orbital Energies [Eh]
    ---------------------

    Doubly Occupied:                                                      

       1A   -489.722007     2A    -64.861642     3A    -58.216173  
       4A    -58.216171     5A    -58.216169     6A     -9.533240  
       7A     -7.140589     8A     -7.140564     9A     -7.140554  
      10A     -2.882286    11A     -2.882276    12A     -2.882263  
      13A     -2.882258    14A     -2.882247    15A     -0.685992  
      16A     -0.139339    17A     -0.139334    18A     -0.139332  

    Virtual:                                                              

      19A      0.118325    20A      0.122539    21A      0.127721  
      22A      0.135870    23A      0.164881    24A      0.177428  
      25A      0.186435    26A      0.189620    27A      0.225141  
      28A      0.229743    29A      0.242914    30A      0.246774  
      31A      0.249341    32A      0.259333    33A      0.264596  
      34A      0.267094    35A      0.274877    36A      0.282202  
      37A      0.294961    38A      0.301495    39A      0.312121  
      40A      0.317045    41A      0.319186    42A      0.336060  
      43A      0.345779    44A      0.350144    45A      0.360855  
      46A      0.386512    47A      0.398091    48A      0.407197  
      49A      0.408752    50A      0.422018    51A      0.436828  
      52A      0.440010    53A      0.447467    54A      0.459244  
      55A      0.468826    56A      0.474942    57A      0.479137  
      58A      0.487207    59A      0.491908    60A      0.497745  
      61A      0.503496    62A      0.506410    63A      0.514826  
      64A      0.524355    65A      0.538935    66A      0.544545  
      67A      0.549721    68A      0.563502    69A      0.578837  
      70A      0.586145    71A      0.592559    72A      0.601359  
      73A      0.606725    74A      0.627872    75A      0.640306  
      76A      0.665182    77A      0.679596    78A      0.685848  
      79A      0.690231    80A      0.712319    81A      0.718202  
      82A      0.768202    83A      0.785604    84A      0.791344  
      85A      0.808068    86A      0.812485    87A      0.826369  
      88A      0.838521    89A      0.842961    90A      0.853015  
      91A      0.872753    92A      0.879318    93A      0.905157  
      94A      0.912313    95A      0.924255    96A      0.939495  
      97A      0.943910    98A      0.949582    99A      0.954334  
     100A      0.957023   101A      0.961099   102A      0.970265  
     103A      0.976682   104A      0.977348   105A      0.989575  
     106A      1.001169   107A      1.002906   108A      1.007430  
     109A      1.016143   110A      1.022012   111A      1.028668  
     112A      1.038139   113A      1.054245   114A      1.055863  
     115A      1.065928   116A      1.067716   117A      1.079130  
     118A      1.081984   119A      1.095002   120A      1.101732  
     121A      1.105785   122A      1.113468   123A      1.116963  
     124A      1.121347   125A      1.122726   126A      1.129705  
     127A      1.134260   128A      1.150693   129A      1.155120  
     130A      1.170866   131A      1.175898   132A      1.182488  
     133A      1.191303   134A      1.197575   135A      1.202023  
     136A      1.223260   137A      1.231347   138A      1.233144  
     139A      1.239470   140A      1.251992   141A      1.270173  
     142A      1.277722   143A      1.279739   144A      1.289857  
     145A      1.300308   146A      1.312651   147A      1.324576  
     148A      1.340217   149A      1.349472   150A      1.359755  
     151A      1.378773   152A      1.387436   153A      1.408761  
     154A      1.411684   155A      1.436247   156A      1.442022  
     157A      1.467001   158A      1.480082   159A      1.506588  
     160A      1.513333   161A      1.529987   162A      1.537238  
     163A      1.569047   164A      1.576526   165A      1.605095  
     166A      1.623546   167A      1.630183   168A      1.643103  
     169A      1.659713   170A      1.674211   171A      1.706147  
     172A      1.712402   173A      1.736699   174A      1.762882  
     175A      1.774019   176A      1.800010   177A      1.806565  
     178A      1.836184   179A      1.846967   180A      1.854259  
     181A      1.860956   182A      1.872357   183A      1.892294  
     184A      1.901661   185A      1.918422   186A      1.922224  
     187A      1.952241   188A      1.956589   189A      1.973630  
     190A      1.982502   191A      1.995078   192A      2.013735  
     193A      2.022225   194A      2.034446   195A      2.035521  
     196A      2.062246   197A      2.074902   198A      2.087145  
     199A      2.098159   200A      2.117726   201A      2.140956  
     202A      2.161144   203A      2.180940   204A      2.292307  
     205A      2.325864   206A      2.349672   207A      2.405218  
     208A      2.551439   209A      2.568713   210A      2.590636  
     211A      2.607547   212A      2.613088   213A      2.618564  
     214A      2.640201   215A      2.656864   216A      2.662441  
     217A      2.676793   218A      2.678585   219A      2.683409  
     220A      2.688238   221A      2.695689   222A      2.704034  
     223A      2.713639   224A      2.718917   225A      2.731291  
     226A      2.740745   227A      2.743021   228A      2.747323  
     229A      2.757046   230A      2.767070   231A      2.780119  
     232A      2.791282   233A      2.792338   234A      2.806419  
     235A      2.813705   236A      2.825801   237A      2.833969  
     238A      2.838424   239A      2.860284   240A      2.878608  
     241A      2.890157   242A      2.904032   243A      2.932741  
     244A      2.959328   245A      2.986723   246A      2.999560  
     247A      3.027789   248A      3.054122   249A      3.056659  
     250A      3.078698   251A      3.113038   252A      3.137747  
     253A      3.167542   254A      3.213407   255A      3.227748  
     256A      3.234935   257A      3.267720   258A      3.303421  
     259A      3.310367   260A      3.323188   261A      3.324320  
     262A      3.348931   263A      3.366572   264A      3.395982  
     265A      3.416595   266A      3.445990   267A      3.456611  
     268A      3.503985   269A      3.547190   270A      3.562592  
     271A      3.589328   272A      3.591261   273A      3.609709  
     274A      3.614861   275A      3.622983   276A      3.658704  
     277A      3.712148   278A      3.715855   279A      3.753130  
     280A      3.770770   281A      3.798526   282A      3.870159  
     283A      3.982958   284A      4.027256   285A      4.037891  
     286A      4.083018   287A      4.529036   288A      4.533870  
     289A      4.558849   290A      4.560618   291A      4.573575  
     292A      4.602586   293A      4.647036   294A      4.684312  
     295A      4.710753   296A      4.732409   297A      4.761288  
     298A      4.788726   299A      4.794715   300A      4.797581  
     301A      4.819797   302A      4.824821   303A      4.837467  
     304A      4.867378   305A      4.877893   306A      4.891411  
     307A      4.912981   308A      4.956912   309A      5.004125  
     310A      5.014083   311A      5.030885   312A      5.080243  
     313A      5.087145   314A      5.097205   315A      5.117132  
     316A      5.153545   317A      5.175457   318A      5.179756  
     319A      5.194170   320A      5.251681   321A      5.269118  
     322A      5.344192   323A      5.409818   324A      5.432053  
     325A      5.441711   326A      5.502314   327A      5.615167  
     328A      5.621613   329A      5.658009   330A      5.662988  
     331A      5.679389   332A      5.697492   333A      5.712401  
     334A      5.788753   335A      5.824249   336A      5.830469  
     337A      5.892920   338A      5.904496   339A      5.947329  
     340A      5.998867   341A      6.029976   342A      6.051034  
     343A      6.089652   344A      6.303861   345A      6.322943  
     346A      6.358290   347A      6.394322   348A      6.507131  
     349A      6.577677   350A      6.599057   351A      6.635599  
     352A      6.744399   353A      6.790951   354A      6.852780  
     355A      6.920456   356A      7.218847   357A      7.231645  
     358A      7.260530   359A      7.302546   360A      7.852006  
     361A      7.864582   362A      7.877684   363A      7.932840  
     364A      7.956538   365A      7.959342   366A      8.002434  
     367A      8.010186   368A      8.187833   369A      8.211778  
     370A      8.215585   371A      8.251796   372A      8.326668  
     373A      8.336900   374A      8.349504   375A      8.382973  
     376A      8.394826   377A      8.433223   378A      8.454735  
     379A      8.480000   380A      8.858215   381A      8.900036  
     382A      8.909835   383A      8.960187   384A      9.047781  
     385A      9.096776   386A      9.113249   387A      9.172922  
     388A      9.802292   389A      9.844377   390A      9.868146  
     391A      9.914860   392A      9.990234   393A     10.015468  
     394A     10.057227   395A     10.103514   396A     10.186451  
     397A     10.232976   398A     10.248310   399A     10.294348  
     400A     10.426802   401A     10.436845   402A     10.440147  
     403A     10.469517   404A     11.162104   405A     11.178020  
     406A     11.262386   407A     11.350912   408A     11.815791  
     409A     11.856096   410A     11.899614   411A     11.995041  
     412A     12.182803   413A     12.247861   414A     12.321776  
     415A     12.367620   416A     13.634485   417A     13.691271  
     418A     13.709404   419A     13.766501   420A     14.075475  
     421A     14.141324   422A     14.150950   423A     14.228043  
     424A     65.092112   425A     65.331686   426A     65.544228  
     427A     65.736398  

    Final Occupation by Irrep:
              A 
    DOCC [    18 ]
    NA   [    18 ]
    NB   [    18 ]

  @DF-RHF Final Energy: -2572.53372311761086

   => Energetics <=

    Nuclear Repulsion Energy =              0.0000000000000000
    One-Electron Energy =               -3593.6625713871167136
    Two-Electron Energy =                1021.1288482695056246
    Total Energy =                      -2572.5337231176108617

Computation Completed


Properties will be evaluated at   0.000000,   0.000000,   0.000000 [a0]

Properties computed using the SCF density matrix


 Multipole Moments:

 ------------------------------------------------------------------------------------
     Multipole            Electronic (a.u.)      Nuclear  (a.u.)        Total (a.u.)
 ------------------------------------------------------------------------------------

 L = 1.  Multiply by 2.5417464519 to convert [e a0] to [Debye]
 Dipole X            :         -0.0000233            0.0000000           -0.0000233
 Dipole Y            :          0.0001480            0.0000000            0.0001480
 Dipole Z            :         -0.0004010            0.0000000           -0.0004010
 Magnitude           :                                                    0.0004281

 ------------------------------------------------------------------------------------

*** tstop() called on ddmfs1 at Mon Jan 22 23:09:53 2024
Module time:
	user time   =      89.02 seconds =       1.48 minutes
	system time =       9.79 seconds =       0.16 minutes
	total time  =          8 seconds =       0.13 minutes
Total time:
	user time   =      89.02 seconds =       1.48 minutes
	system time =       9.79 seconds =       0.16 minutes
	total time  =          8 seconds =       0.13 minutes

*** tstart() called on ddmfs1
*** at Mon Jan 22 23:09:53 2024


  //>>>>>>>>>>>>>>>>>>>>>>>>>>>>>>>>>>>//
  //               DFMP2               //
  //<<<<<<<<<<<<<<<<<<<<<<<<<<<<<<<<<<<//

   => Loading Basis Set <=

    Name: (AUG-CC-PVTZ AUX)
    Role: RIFIT
    Keyword: DF_BASIS_MP2
    atoms 1                     entry BR         line  1248 file /ddmfs1b/softs/psi4conda/share/psi4/basis/aug-cc-pvtz-ri.gbs 
    atoms 2, 5, 8, 11           entry O          line   264 file /ddmfs1b/softs/psi4conda/share/psi4/basis/aug-cc-pvtz-ri.gbs 
    atoms 3-4, 6-7, 9-10, 12-13 entry H          line    30 file /ddmfs1b/softs/psi4conda/share/psi4/basis/aug-cc-pvtz-ri.gbs 

	 --------------------------------------------------------
	                          DF-MP2                         
	      2nd-Order Density-Fitted Moller-Plesset Theory     
	              RMP2 Wavefunction,  20 Threads             
	                                                         
	        Rob Parrish, Justin Turney, Andy Simmonett,      
	           Ed Hohenstein, and C. David Sherrill          
	 --------------------------------------------------------

   => Auxiliary Basis Set <=

  Basis Set: (AUG-CC-PVTZ AUX)
    Blend: AUG-CC-PVTZ-RI
    Number of shells: 267
    Number of basis functions: 983
    Number of Cartesian functions: 1245
    Spherical Harmonics?: true
    Max angular momentum: 5

	 --------------------------------------------------------
	                 NBF =   427, NAUX =   983
	 --------------------------------------------------------
	   CLASS    FOCC     OCC    AOCC    AVIR     VIR    FVIR
	   PAIRS       0      18      18     409     409       0
	 --------------------------------------------------------

	-----------------------------------------------------------
	 ==================> DF-MP2 Energies <==================== 
	-----------------------------------------------------------
	 Reference Energy          =   -2572.5337231176108617 [Eh]
	 Singles Energy            =      -0.0000000000000000 [Eh]
	 Same-Spin Energy          =      -0.0908848840988713 [Eh]
	 Opposite-Spin Energy      =      -0.2116720804657682 [Eh]
	 Correlation Energy        =      -0.3025569645646395 [Eh]
	 Total Energy              =   -2572.8362800821755627 [Eh]
	-----------------------------------------------------------
	 ================> DF-SCS-MP2 Energies <================== 
	-----------------------------------------------------------
	 SCS Same-Spin Scale       =       0.3333333333333333 [-]
	 SCS Opposite-Spin Scale   =       1.2000000000000000 [-]
	 SCS Same-Spin Energy      =      -0.0302949613662904 [Eh]
	 SCS Opposite-Spin Energy  =      -0.2540064965589218 [Eh]
	 SCS Correlation Energy    =      -0.2843014579252122 [Eh]
	 SCS Total Energy          =   -2572.8180245755361284 [Eh]
	-----------------------------------------------------------


*** tstop() called on ddmfs1 at Mon Jan 22 23:10:03 2024
Module time:
	user time   =      30.96 seconds =       0.52 minutes
	system time =       2.19 seconds =       0.04 minutes
	total time  =         10 seconds =       0.17 minutes
Total time:
	user time   =     120.00 seconds =       2.00 minutes
	system time =      11.98 seconds =       0.20 minutes
	total time  =         18 seconds =       0.30 minutes

    Psi4 stopped on: Monday, 22 January 2024 11:10PM
    Psi4 wall time for execution: 0:00:17.64

*** Psi4 exiting successfully. Buy a developer a beer!
