
    -----------------------------------------------------------------------
          Psi4: An Open-Source Ab Initio Electronic Structure Package
                               Psi4 1.8.2 release

                         Git: Rev {} zzzzzzz 


    D. G. A. Smith, L. A. Burns, A. C. Simmonett, R. M. Parrish,
    M. C. Schieber, R. Galvelis, P. Kraus, H. Kruse, R. Di Remigio,
    A. Alenaizan, A. M. James, S. Lehtola, J. P. Misiewicz, M. Scheurer,
    R. A. Shaw, J. B. Schriber, Y. Xie, Z. L. Glick, D. A. Sirianni,
    J. S. O'Brien, J. M. Waldrop, A. Kumar, E. G. Hohenstein,
    B. P. Pritchard, B. R. Brooks, H. F. Schaefer III, A. Yu. Sokolov,
    K. Patkowski, A. E. DePrince III, U. Bozkaya, R. A. King,
    F. A. Evangelista, J. M. Turney, T. D. Crawford, C. D. Sherrill,
    J. Chem. Phys. 152(18) 184108 (2020). https://doi.org/10.1063/5.0006002

                            Additional Code Authors
    E. T. Seidl, C. L. Janssen, E. F. Valeev, M. L. Leininger,
    J. F. Gonthier, R. M. Richard, H. R. McAlexander, M. Saitow, X. Wang,
    P. Verma, M. H. Lechner, A. Jiang, S. Behnle, A. G. Heide,
    M. F. Herbst, and D. L. Poole

             Previous Authors, Complete List of Code Contributors,
                       and Citations for Specific Modules
    https://github.com/psi4/psi4/blob/master/codemeta.json
    https://github.com/psi4/psi4/graphs/contributors
    http://psicode.org/psi4manual/master/introduction.html#citing-psifour

    -----------------------------------------------------------------------


    Psi4 started on: Tuesday, 23 January 2024 01:01AM

    Process ID: 122737
    Host:       ddmfs1
    PSIDATADIR: /ddmfs1b/softs/psi4conda/share/psi4
    Memory:     500.0 MiB
    Threads:    20
    
  ==> Input File <==

--------------------------------------------------------------------------
MEMORY 60 GB

molecule dimer {
-1 1
Br         0.000000     0.000000     0.000000
O          0.341150     0.776241    -3.513535
H          0.559687     1.745389    -3.643795
H          0.259971     0.595020    -2.572308
O         -3.228866     0.199860     1.064817
H         -2.554272    -0.465074     0.898206
H         -4.003385    -0.263674     1.419464
O         -1.501421     2.694653    -1.037470
H         -1.857259     2.772058    -1.919008
H         -1.054329     1.848031    -0.932673
O          2.688093     2.201399    -0.380651
H          2.548789     3.054275    -0.789423
H          1.816747     1.792628    -0.342110

units ang
no_reorient
no_com
symmetry c1
}

set {
basis        aug-cc-pVTZ
scf_type     df
}

energy("mp2")
--------------------------------------------------------------------------

  Memory set to  55.879 GiB by Python driver.

Scratch directory: /ddmfs1a/scratch/
   => Libint2 <=

    Primary   basis highest AM E, G, H:  5, 4, 3
    Auxiliary basis highest AM E, G, H:  6, 5, 4
    Onebody   basis highest AM E, G, H:  6, 5, 4
    Solid Harmonics ordering:            gaussian

*** tstart() called on ddmfs1
*** at Tue Jan 23 01:01:03 2024

   => Loading Basis Set <=

    Name: AUG-CC-PVTZ
    Role: ORBITAL
    Keyword: BASIS
    atoms 1                     entry BR         line  4208 file /ddmfs1b/softs/psi4conda/share/psi4/basis/aug-cc-pvtz.gbs 
    atoms 2, 5, 8, 11           entry O          line   331 file /ddmfs1b/softs/psi4conda/share/psi4/basis/aug-cc-pvtz.gbs 
    atoms 3-4, 6-7, 9-10, 12-13 entry H          line    40 file /ddmfs1b/softs/psi4conda/share/psi4/basis/aug-cc-pvtz.gbs 


         ---------------------------------------------------------
                                   SCF
               by Justin Turney, Rob Parrish, Andy Simmonett
                          and Daniel G. A. Smith
                              RHF Reference
                       20 Threads,  57220 MiB Core
         ---------------------------------------------------------

  ==> Geometry <==

    Molecular point group: c1
    Full point group: C1

    Geometry (in Angstrom), charge = -1, multiplicity = 1:

       Center              X                  Y                   Z               Mass       
    ------------   -----------------  -----------------  -----------------  -----------------
         BR           0.000000000000     0.000000000000     0.000000000000    78.918337600000
         O            0.341150000000     0.776241000000    -3.513535000000    15.994914619570
         H            0.559687000000     1.745389000000    -3.643795000000     1.007825032230
         H            0.259971000000     0.595020000000    -2.572308000000     1.007825032230
         O           -3.228866000000     0.199860000000     1.064817000000    15.994914619570
         H           -2.554272000000    -0.465074000000     0.898206000000     1.007825032230
         H           -4.003385000000    -0.263674000000     1.419464000000     1.007825032230
         O           -1.501421000000     2.694653000000    -1.037470000000    15.994914619570
         H           -1.857259000000     2.772058000000    -1.919008000000     1.007825032230
         H           -1.054329000000     1.848031000000    -0.932673000000     1.007825032230
         O            2.688093000000     2.201399000000    -0.380651000000    15.994914619570
         H            2.548789000000     3.054275000000    -0.789423000000     1.007825032230
         H            1.816747000000     1.792628000000    -0.342110000000     1.007825032230

  Running in c1 symmetry.

  Rotational constants: A =      0.04080  B =      0.02981  C =      0.02320 [cm^-1]
  Rotational constants: A =   1223.21340  B =    893.71915  C =    695.45890 [MHz]
  Nuclear repulsion =  328.480782570351039

  Charge       = -1
  Multiplicity = 1
  Electrons    = 76
  Nalpha       = 38
  Nbeta        = 38

  ==> Algorithm <==

  SCF Algorithm Type is DF.
  DIIS enabled.
  MOM disabled.
  Fractional occupation disabled.
  Guess Type is SAD.
  Energy threshold   = 1.00e-08
  Density threshold  = 1.00e-08
  Integral threshold = 1.00e-12

  ==> Primary Basis <==

  Basis Set: AUG-CC-PVTZ
    Blend: AUG-CC-PVTZ
    Number of shells: 147
    Number of basis functions: 427
    Number of Cartesian functions: 489
    Spherical Harmonics?: true
    Max angular momentum: 3

   => Loading Basis Set <=

    Name: (AUG-CC-PVTZ AUX)
    Role: JKFIT
    Keyword: DF_BASIS_SCF
    atoms 1                     entry BR         line  1492 file /ddmfs1b/softs/psi4conda/share/psi4/basis/aug-cc-pvtz-jkfit.gbs 
    atoms 2, 5, 8, 11           entry O          line   286 file /ddmfs1b/softs/psi4conda/share/psi4/basis/aug-cc-pvtz-jkfit.gbs 
    atoms 3-4, 6-7, 9-10, 12-13 entry H          line    70 file /ddmfs1b/softs/psi4conda/share/psi4/basis/aug-cc-pvtz-jkfit.gbs 

  ==> Integral Setup <==

  DFHelper Memory: AOs need 1.317 GiB; user supplied 41.910 GiB. 
  Using in-core AOs.

  ==> MemDFJK: Density-Fitted J/K Matrices <==

    J tasked:                   Yes
    K tasked:                   Yes
    wK tasked:                   No
    OpenMP threads:              20
    Memory [MiB]:             42915
    Algorithm:                 Core
    Schwarz Cutoff:           1E-12
    Mask sparsity (%):      11.1546
    Fitting Condition:        1E-10

   => Auxiliary Basis Set <=

  Basis Set: (AUG-CC-PVTZ AUX)
    Blend: AUG-CC-PVTZ-JKFIT
    Number of shells: 290
    Number of basis functions: 1032
    Number of Cartesian functions: 1293
    Spherical Harmonics?: true
    Max angular momentum: 4

  Minimum eigenvalue in the overlap matrix is 1.8028730485E-04.
  Reciprocal condition number of the overlap matrix is 1.5610425547E-05.
    Using symmetric orthogonalization.

  ==> Pre-Iterations <==

  SCF Guess: Superposition of Atomic Densities via on-the-fly atomic UHF (no occupation information).

   -------------------------
    Irrep   Nso     Nmo    
   -------------------------
     A        427     427 
   -------------------------
    Total     427     427
   -------------------------

  ==> Iterations <==

                           Total Energy        Delta E     RMS |[F,P]|

   @DF-RHF iter SAD: -2872.51726624263074   -2.87252e+03   0.00000e+00 
   @DF-RHF iter   1: -2876.24616079441421   -3.72889e+00   3.26568e-03 ADIIS/DIIS
   @DF-RHF iter   2: -2876.63068781426182   -3.84527e-01   1.94040e-03 ADIIS/DIIS
   @DF-RHF iter   3: -2876.80278885486996   -1.72101e-01   1.49979e-04 ADIIS/DIIS
   @DF-RHF iter   4: -2876.80481615698272   -2.02730e-03   7.21073e-05 DIIS
   @DF-RHF iter   5: -2876.80522734227861   -4.11185e-04   1.07694e-05 DIIS
   @DF-RHF iter   6: -2876.80525359467356   -2.62524e-05   2.71442e-06 DIIS
   @DF-RHF iter   7: -2876.80525559469106   -2.00002e-06   8.50395e-07 DIIS
   @DF-RHF iter   8: -2876.80525575147658   -1.56786e-07   3.72474e-07 DIIS
   @DF-RHF iter   9: -2876.80525576934633   -1.78698e-08   7.24320e-08 DIIS
   @DF-RHF iter  10: -2876.80525577043136   -1.08503e-09   1.63706e-08 DIIS
   @DF-RHF iter  11: -2876.80525577048229   -5.09317e-11   5.19264e-09 DIIS
  Energy and wave function converged.


  ==> Post-Iterations <==

    Orbital Energies [Eh]
    ---------------------

    Doubly Occupied:                                                      

       1A   -489.771116     2A    -64.911439     3A    -58.265979  
       4A    -58.265933     5A    -58.265880     6A    -20.429393  
       7A    -20.426688     8A    -20.418413     9A    -20.402746  
      10A     -9.583736    11A     -7.191522    12A     -7.191149  
      13A     -7.190927    14A     -2.933242    15A     -2.933145  
      16A     -2.932846    17A     -2.932396    18A     -2.932359  
      19A     -1.207164    20A     -1.205031    21A     -1.200560  
      22A     -1.190852    23A     -0.747843    24A     -0.577429  
      25A     -0.575348    26A     -0.571082    27A     -0.569879  
      28A     -0.440278    29A     -0.437822    30A     -0.436929  
      31A     -0.418395    32A     -0.370171    33A     -0.368755  
      34A     -0.363586    35A     -0.350257    36A     -0.201711  
      37A     -0.195891    38A     -0.192992  

    Virtual:                                                              

      39A      0.115606    40A      0.118806    41A      0.132889  
      42A      0.142611    43A      0.157423    44A      0.171513  
      45A      0.177079    46A      0.194629    47A      0.232836  
      48A      0.241196    49A      0.253361    50A      0.255696  
      51A      0.264463    52A      0.267512    53A      0.277857  
      54A      0.286463    55A      0.292801    56A      0.294525  
      57A      0.299932    58A      0.306936    59A      0.315540  
      60A      0.323088    61A      0.333711    62A      0.344641  
      63A      0.350786    64A      0.351260    65A      0.360467  
      66A      0.366303    67A      0.384730    68A      0.390171  
      69A      0.399098    70A      0.410742    71A      0.413817  
      72A      0.431399    73A      0.434817    74A      0.439189  
      75A      0.449853    76A      0.458089    77A      0.465614  
      78A      0.474394    79A      0.478977    80A      0.486915  
      81A      0.502059    82A      0.503378    83A      0.521283  
      84A      0.531573    85A      0.546330    86A      0.554386  
      87A      0.557759    88A      0.564192    89A      0.573905  
      90A      0.585157    91A      0.587778    92A      0.596440  
      93A      0.605615    94A      0.613058    95A      0.613258  
      96A      0.636468    97A      0.645365    98A      0.669000  
      99A      0.684964   100A      0.702851   101A      0.719188  
     102A      0.731903   103A      0.746457   104A      0.767949  
     105A      0.785771   106A      0.809004   107A      0.818358  
     108A      0.828782   109A      0.833812   110A      0.844451  
     111A      0.853128   112A      0.856889   113A      0.858834  
     114A      0.865209   115A      0.872083   116A      0.875277  
     117A      0.881504   118A      0.885061   119A      0.892509  
     120A      0.905452   121A      0.908203   122A      0.927358  
     123A      0.944327   124A      0.945238   125A      0.957025  
     126A      0.965232   127A      0.969631   128A      0.977382  
     129A      0.986094   130A      0.993919   131A      1.006013  
     132A      1.019549   133A      1.024510   134A      1.035791  
     135A      1.043388   136A      1.049077   137A      1.057550  
     138A      1.067320   139A      1.078654   140A      1.085697  
     141A      1.086683   142A      1.092989   143A      1.094124  
     144A      1.099255   145A      1.107101   146A      1.114306  
     147A      1.125195   148A      1.129932   149A      1.140116  
     150A      1.152847   151A      1.161812   152A      1.165769  
     153A      1.172943   154A      1.176150   155A      1.179221  
     156A      1.184324   157A      1.191410   158A      1.202188  
     159A      1.210502   160A      1.216444   161A      1.229150  
     162A      1.241937   163A      1.247317   164A      1.258992  
     165A      1.281918   166A      1.292789   167A      1.293351  
     168A      1.306681   169A      1.315891   170A      1.322708  
     171A      1.327974   172A      1.358876   173A      1.367719  
     174A      1.377387   175A      1.388655   176A      1.406515  
     177A      1.411893   178A      1.428564   179A      1.435044  
     180A      1.442498   181A      1.464020   182A      1.482373  
     183A      1.487846   184A      1.496356   185A      1.511834  
     186A      1.521916   187A      1.544133   188A      1.545448  
     189A      1.555064   190A      1.595865   191A      1.625086  
     192A      1.641994   193A      1.658543   194A      1.666954  
     195A      1.683311   196A      1.689235   197A      1.710273  
     198A      1.712300   199A      1.734523   200A      1.746881  
     201A      1.758851   202A      1.777958   203A      1.787443  
     204A      1.808697   205A      1.813362   206A      1.847228  
     207A      1.853255   208A      1.864796   209A      1.912878  
     210A      1.913978   211A      1.954419   212A      1.976556  
     213A      1.981806   214A      2.013402   215A      2.027194  
     216A      2.067861   217A      2.069600   218A      2.093494  
     219A      2.112734   220A      2.138622   221A      2.150507  
     222A      2.204150   223A      2.228944   224A      2.302723  
     225A      2.422011   226A      2.428584   227A      2.436328  
     228A      2.445826   229A      2.464665   230A      2.475422  
     231A      2.488485   232A      2.495779   233A      2.508248  
     234A      2.514125   235A      2.533033   236A      2.538621  
     237A      2.539789   238A      2.553662   239A      2.570192  
     240A      2.579605   241A      2.582447   242A      2.597391  
     243A      2.598881   244A      2.607508   245A      2.617866  
     246A      2.634047   247A      2.640123   248A      2.655865  
     249A      2.659185   250A      2.665347   251A      2.678940  
     252A      2.683390   253A      2.686087   254A      2.697878  
     255A      2.711445   256A      2.727256   257A      2.735786  
     258A      2.752136   259A      2.761370   260A      2.784617  
     261A      2.800621   262A      2.808303   263A      2.836907  
     264A      2.852070   265A      2.854411   266A      2.876332  
     267A      2.902321   268A      2.917795   269A      2.919236  
     270A      2.936256   271A      2.940574   272A      2.951116  
     273A      2.957775   274A      2.990649   275A      3.014173  
     276A      3.026022   277A      3.038329   278A      3.050635  
     279A      3.063435   280A      3.070805   281A      3.093477  
     282A      3.106885   283A      3.121182   284A      3.124654  
     285A      3.172002   286A      3.180521   287A      3.228484  
     288A      3.261053   289A      3.297785   290A      3.379931  
     291A      3.814589   292A      3.832035   293A      3.869899  
     294A      3.938558   295A      3.966529   296A      4.042023  
     297A      4.061611   298A      4.159733   299A      4.186404  
     300A      4.203293   301A      4.232638   302A      4.250314  
     303A      4.258524   304A      4.345712   305A      4.368853  
     306A      4.378040   307A      4.383373   308A      4.393986  
     309A      4.415035   310A      4.428852   311A      4.439056  
     312A      4.451799   313A      4.458509   314A      4.470541  
     315A      4.492621   316A      4.500811   317A      4.513641  
     318A      4.528322   319A      4.542095   320A      4.543533  
     321A      4.558441   322A      4.571023   323A      4.584125  
     324A      4.586978   325A      4.611315   326A      4.623795  
     327A      4.636800   328A      4.649859   329A      4.684936  
     330A      4.702013   331A      4.737057   332A      4.751200  
     333A      4.766280   334A      4.809642   335A      4.862914  
     336A      4.883772   337A      4.931044   338A      4.950107  
     339A      4.992817   340A      5.034025   341A      5.090860  
     342A      5.125031   343A      5.217936   344A      5.271545  
     345A      5.281528   346A      5.289760   347A      5.317896  
     348A      5.331978   349A      5.336060   350A      5.377081  
     351A      5.441364   352A      5.446448   353A      5.473983  
     354A      5.480665   355A      5.489286   356A      5.543040  
     357A      5.550281   358A      5.610185   359A      5.631581  
     360A      5.639099   361A      5.673126   362A      5.680286  
     363A      5.710284   364A      5.890029   365A      5.895202  
     366A      5.901942   367A      6.044156   368A      6.304989  
     369A      6.321735   370A      6.371276   371A      6.391038  
     372A      6.705766   373A      6.717234   374A      6.719549  
     375A      6.753421   376A      6.886440   377A      6.905530  
     378A      6.922056   379A      6.975907   380A      7.006593  
     381A      7.040606   382A      7.052166   383A      7.105080  
     384A      7.279460   385A      7.287534   386A      7.299382  
     387A      7.364975   388A      7.409068   389A      7.415060  
     390A      7.443574   391A      7.444747   392A      7.452235  
     393A      7.465016   394A      7.473261   395A      7.477567  
     396A      7.482233   397A      7.496283   398A      7.505711  
     399A      7.521795   400A      7.528242   401A      7.534066  
     402A      7.537478   403A      7.554948   404A      7.580894  
     405A      7.604380   406A      7.641457   407A      7.674776  
     408A      7.743509   409A      7.856109   410A      7.863423  
     411A      7.924035   412A      8.027919   413A      8.041216  
     414A      8.085376   415A      8.105745   416A      8.115113  
     417A      8.140375   418A      8.155519   419A      8.259200  
     420A      8.812114   421A      8.909564   422A      8.974208  
     423A      8.977653   424A     15.964624   425A     16.074465  
     426A     16.551740   427A     16.787387  

    Final Occupation by Irrep:
              A 
    DOCC [    38 ]
    NA   [    38 ]
    NB   [    38 ]

  @DF-RHF Final Energy: -2876.80525577048229

   => Energetics <=

    Nuclear Repulsion Energy =            328.4807825703510389
    One-Electron Energy =               -4673.3702997089394557
    Two-Electron Energy =                1468.0842613681063540
    Total Energy =                      -2876.8052557704822902

Computation Completed


Properties will be evaluated at   0.000000,   0.000000,   0.000000 [a0]

Properties computed using the SCF density matrix


 Multipole Moments:

 ------------------------------------------------------------------------------------
     Multipole            Electronic (a.u.)      Nuclear  (a.u.)        Total (a.u.)
 ------------------------------------------------------------------------------------

 L = 1.  Multiply by 2.5417464519 to convert [e a0] to [Debye]
 Dipole X            :         33.3373966          -33.8117414           -0.4743448
 Dipole Y            :       -110.7591338          109.7097075           -1.0494263
 Dipole Z            :         73.7870030          -73.3522877            0.4347154
 Magnitude           :                                                    1.2309655

 ------------------------------------------------------------------------------------

*** tstop() called on ddmfs1 at Tue Jan 23 01:01:13 2024
Module time:
	user time   =     120.03 seconds =       2.00 minutes
	system time =      11.26 seconds =       0.19 minutes
	total time  =         10 seconds =       0.17 minutes
Total time:
	user time   =     120.03 seconds =       2.00 minutes
	system time =      11.26 seconds =       0.19 minutes
	total time  =         10 seconds =       0.17 minutes

*** tstart() called on ddmfs1
*** at Tue Jan 23 01:01:13 2024


  //>>>>>>>>>>>>>>>>>>>>>>>>>>>>>>>>>>>//
  //               DFMP2               //
  //<<<<<<<<<<<<<<<<<<<<<<<<<<<<<<<<<<<//

   => Loading Basis Set <=

    Name: (AUG-CC-PVTZ AUX)
    Role: RIFIT
    Keyword: DF_BASIS_MP2
    atoms 1                     entry BR         line  1248 file /ddmfs1b/softs/psi4conda/share/psi4/basis/aug-cc-pvtz-ri.gbs 
    atoms 2, 5, 8, 11           entry O          line   264 file /ddmfs1b/softs/psi4conda/share/psi4/basis/aug-cc-pvtz-ri.gbs 
    atoms 3-4, 6-7, 9-10, 12-13 entry H          line    30 file /ddmfs1b/softs/psi4conda/share/psi4/basis/aug-cc-pvtz-ri.gbs 

	 --------------------------------------------------------
	                          DF-MP2                         
	      2nd-Order Density-Fitted Moller-Plesset Theory     
	              RMP2 Wavefunction,  20 Threads             
	                                                         
	        Rob Parrish, Justin Turney, Andy Simmonett,      
	           Ed Hohenstein, and C. David Sherrill          
	 --------------------------------------------------------

   => Auxiliary Basis Set <=

  Basis Set: (AUG-CC-PVTZ AUX)
    Blend: AUG-CC-PVTZ-RI
    Number of shells: 267
    Number of basis functions: 983
    Number of Cartesian functions: 1245
    Spherical Harmonics?: true
    Max angular momentum: 5

	 --------------------------------------------------------
	                 NBF =   427, NAUX =   983
	 --------------------------------------------------------
	   CLASS    FOCC     OCC    AOCC    AVIR     VIR    FVIR
	   PAIRS       0      38      38     389     389       0
	 --------------------------------------------------------

	-----------------------------------------------------------
	 ==================> DF-MP2 Energies <==================== 
	-----------------------------------------------------------
	 Reference Energy          =   -2876.8052557704822902 [Eh]
	 Singles Energy            =      -0.0000000000000000 [Eh]
	 Same-Spin Energy          =      -0.3725857830203689 [Eh]
	 Opposite-Spin Energy      =      -1.0812761380229468 [Eh]
	 Correlation Energy        =      -1.4538619210433157 [Eh]
	 Total Energy              =   -2878.2591176915257165 [Eh]
	-----------------------------------------------------------
	 ================> DF-SCS-MP2 Energies <================== 
	-----------------------------------------------------------
	 SCS Same-Spin Scale       =       0.3333333333333333 [-]
	 SCS Opposite-Spin Scale   =       1.2000000000000000 [-]
	 SCS Same-Spin Energy      =      -0.1241952610067896 [Eh]
	 SCS Opposite-Spin Energy  =      -1.2975313656275360 [Eh]
	 SCS Correlation Energy    =      -1.4217266266343256 [Eh]
	 SCS Total Energy          =   -2878.2269823971164442 [Eh]
	-----------------------------------------------------------


*** tstop() called on ddmfs1 at Tue Jan 23 01:01:23 2024
Module time:
	user time   =      42.56 seconds =       0.71 minutes
	system time =       2.45 seconds =       0.04 minutes
	total time  =         10 seconds =       0.17 minutes
Total time:
	user time   =     162.61 seconds =       2.71 minutes
	system time =      13.71 seconds =       0.23 minutes
	total time  =         20 seconds =       0.33 minutes

    Psi4 stopped on: Tuesday, 23 January 2024 01:01AM
    Psi4 wall time for execution: 0:00:19.98

*** Psi4 exiting successfully. Buy a developer a beer!
