
    -----------------------------------------------------------------------
          Psi4: An Open-Source Ab Initio Electronic Structure Package
                               Psi4 1.8.2 release

                         Git: Rev {} zzzzzzz 


    D. G. A. Smith, L. A. Burns, A. C. Simmonett, R. M. Parrish,
    M. C. Schieber, R. Galvelis, P. Kraus, H. Kruse, R. Di Remigio,
    A. Alenaizan, A. M. James, S. Lehtola, J. P. Misiewicz, M. Scheurer,
    R. A. Shaw, J. B. Schriber, Y. Xie, Z. L. Glick, D. A. Sirianni,
    J. S. O'Brien, J. M. Waldrop, A. Kumar, E. G. Hohenstein,
    B. P. Pritchard, B. R. Brooks, H. F. Schaefer III, A. Yu. Sokolov,
    K. Patkowski, A. E. DePrince III, U. Bozkaya, R. A. King,
    F. A. Evangelista, J. M. Turney, T. D. Crawford, C. D. Sherrill,
    J. Chem. Phys. 152(18) 184108 (2020). https://doi.org/10.1063/5.0006002

                            Additional Code Authors
    E. T. Seidl, C. L. Janssen, E. F. Valeev, M. L. Leininger,
    J. F. Gonthier, R. M. Richard, H. R. McAlexander, M. Saitow, X. Wang,
    P. Verma, M. H. Lechner, A. Jiang, S. Behnle, A. G. Heide,
    M. F. Herbst, and D. L. Poole

             Previous Authors, Complete List of Code Contributors,
                       and Citations for Specific Modules
    https://github.com/psi4/psi4/blob/master/codemeta.json
    https://github.com/psi4/psi4/graphs/contributors
    http://psicode.org/psi4manual/master/introduction.html#citing-psifour

    -----------------------------------------------------------------------


    Psi4 started on: Tuesday, 23 January 2024 12:50AM

    Process ID: 122025
    Host:       ddmfs1
    PSIDATADIR: /ddmfs1b/softs/psi4conda/share/psi4
    Memory:     500.0 MiB
    Threads:    20
    
  ==> Input File <==

--------------------------------------------------------------------------
MEMORY 60 GB

molecule dimer {
-1 1
Br         0.000000     0.000000     0.000000
O          0.781449    -0.807907    -3.361660
H          1.592848    -1.345644    -3.304069
H          0.648406    -0.568569    -2.400584
O          2.510193    -1.908503     0.397343
H          1.800244    -1.321266     0.041421
H          2.224768    -2.811754     0.197244
O          1.731416    -0.150931     2.710083
H          2.460238     0.314986     2.378625
H          1.139946    -0.218518     1.919575
O          2.207844     2.294641     0.275850
H          1.617671     1.545812     0.305669
H          2.353701     2.388285    -0.692227

units ang
no_reorient
no_com
symmetry c1
}

set {
basis        aug-cc-pVTZ
scf_type     df
}

energy("mp2")
--------------------------------------------------------------------------

  Memory set to  55.879 GiB by Python driver.

Scratch directory: /ddmfs1a/scratch/
   => Libint2 <=

    Primary   basis highest AM E, G, H:  5, 4, 3
    Auxiliary basis highest AM E, G, H:  6, 5, 4
    Onebody   basis highest AM E, G, H:  6, 5, 4
    Solid Harmonics ordering:            gaussian

*** tstart() called on ddmfs1
*** at Tue Jan 23 00:50:33 2024

   => Loading Basis Set <=

    Name: AUG-CC-PVTZ
    Role: ORBITAL
    Keyword: BASIS
    atoms 1                     entry BR         line  4208 file /ddmfs1b/softs/psi4conda/share/psi4/basis/aug-cc-pvtz.gbs 
    atoms 2, 5, 8, 11           entry O          line   331 file /ddmfs1b/softs/psi4conda/share/psi4/basis/aug-cc-pvtz.gbs 
    atoms 3-4, 6-7, 9-10, 12-13 entry H          line    40 file /ddmfs1b/softs/psi4conda/share/psi4/basis/aug-cc-pvtz.gbs 


         ---------------------------------------------------------
                                   SCF
               by Justin Turney, Rob Parrish, Andy Simmonett
                          and Daniel G. A. Smith
                              RHF Reference
                       20 Threads,  57220 MiB Core
         ---------------------------------------------------------

  ==> Geometry <==

    Molecular point group: c1
    Full point group: C1

    Geometry (in Angstrom), charge = -1, multiplicity = 1:

       Center              X                  Y                   Z               Mass       
    ------------   -----------------  -----------------  -----------------  -----------------
         BR           0.000000000000     0.000000000000     0.000000000000    78.918337600000
         O            0.781449000000    -0.807907000000    -3.361660000000    15.994914619570
         H            1.592848000000    -1.345644000000    -3.304069000000     1.007825032230
         H            0.648406000000    -0.568569000000    -2.400584000000     1.007825032230
         O            2.510193000000    -1.908503000000     0.397343000000    15.994914619570
         H            1.800244000000    -1.321266000000     0.041421000000     1.007825032230
         H            2.224768000000    -2.811754000000     0.197244000000     1.007825032230
         O            1.731416000000    -0.150931000000     2.710083000000    15.994914619570
         H            2.460238000000     0.314986000000     2.378625000000     1.007825032230
         H            1.139946000000    -0.218518000000     1.919575000000     1.007825032230
         O            2.207844000000     2.294641000000     0.275850000000    15.994914619570
         H            1.617671000000     1.545812000000     0.305669000000     1.007825032230
         H            2.353701000000     2.388285000000    -0.692227000000     1.007825032230

  Running in c1 symmetry.

  Rotational constants: A =      0.04238  B =      0.03214  C =      0.02768 [cm^-1]
  Rotational constants: A =   1270.63063  B =    963.39520  C =    829.96258 [MHz]
  Nuclear repulsion =  348.539060487174538

  Charge       = -1
  Multiplicity = 1
  Electrons    = 76
  Nalpha       = 38
  Nbeta        = 38

  ==> Algorithm <==

  SCF Algorithm Type is DF.
  DIIS enabled.
  MOM disabled.
  Fractional occupation disabled.
  Guess Type is SAD.
  Energy threshold   = 1.00e-08
  Density threshold  = 1.00e-08
  Integral threshold = 1.00e-12

  ==> Primary Basis <==

  Basis Set: AUG-CC-PVTZ
    Blend: AUG-CC-PVTZ
    Number of shells: 147
    Number of basis functions: 427
    Number of Cartesian functions: 489
    Spherical Harmonics?: true
    Max angular momentum: 3

   => Loading Basis Set <=

    Name: (AUG-CC-PVTZ AUX)
    Role: JKFIT
    Keyword: DF_BASIS_SCF
    atoms 1                     entry BR         line  1492 file /ddmfs1b/softs/psi4conda/share/psi4/basis/aug-cc-pvtz-jkfit.gbs 
    atoms 2, 5, 8, 11           entry O          line   286 file /ddmfs1b/softs/psi4conda/share/psi4/basis/aug-cc-pvtz-jkfit.gbs 
    atoms 3-4, 6-7, 9-10, 12-13 entry H          line    70 file /ddmfs1b/softs/psi4conda/share/psi4/basis/aug-cc-pvtz-jkfit.gbs 

  ==> Integral Setup <==

  DFHelper Memory: AOs need 1.357 GiB; user supplied 41.910 GiB. 
  Using in-core AOs.

  ==> MemDFJK: Density-Fitted J/K Matrices <==

    J tasked:                   Yes
    K tasked:                   Yes
    wK tasked:                   No
    OpenMP threads:              20
    Memory [MiB]:             42915
    Algorithm:                 Core
    Schwarz Cutoff:           1E-12
    Mask sparsity (%):       8.3135
    Fitting Condition:        1E-10

   => Auxiliary Basis Set <=

  Basis Set: (AUG-CC-PVTZ AUX)
    Blend: AUG-CC-PVTZ-JKFIT
    Number of shells: 290
    Number of basis functions: 1032
    Number of Cartesian functions: 1293
    Spherical Harmonics?: true
    Max angular momentum: 4

  Minimum eigenvalue in the overlap matrix is 1.4358487188E-04.
  Reciprocal condition number of the overlap matrix is 1.1290542282E-05.
    Using symmetric orthogonalization.

  ==> Pre-Iterations <==

  SCF Guess: Superposition of Atomic Densities via on-the-fly atomic UHF (no occupation information).

   -------------------------
    Irrep   Nso     Nmo    
   -------------------------
     A        427     427 
   -------------------------
    Total     427     427
   -------------------------

  ==> Iterations <==

                           Total Energy        Delta E     RMS |[F,P]|

   @DF-RHF iter SAD: -2872.70800614714608   -2.87271e+03   0.00000e+00 
   @DF-RHF iter   1: -2876.27433931529777   -3.56633e+00   3.23439e-03 DIIS/ADIIS
   @DF-RHF iter   2: -2876.64090910501727   -3.66570e-01   1.89086e-03 DIIS/ADIIS
   @DF-RHF iter   3: -2876.80242731386261   -1.61518e-01   1.58260e-04 DIIS/ADIIS
   @DF-RHF iter   4: -2876.80457548298318   -2.14817e-03   7.27088e-05 DIIS
   @DF-RHF iter   5: -2876.80501214654078   -4.36664e-04   1.05417e-05 DIIS
   @DF-RHF iter   6: -2876.80503732179159   -2.51753e-05   2.88342e-06 DIIS
   @DF-RHF iter   7: -2876.80503920031515   -1.87852e-06   1.16088e-06 DIIS
   @DF-RHF iter   8: -2876.80503938756829   -1.87253e-07   3.67241e-07 DIIS
   @DF-RHF iter   9: -2876.80503941185952   -2.42912e-08   6.40274e-08 DIIS
   @DF-RHF iter  10: -2876.80503941275856   -8.99036e-10   1.67599e-08 DIIS
   @DF-RHF iter  11: -2876.80503941280540   -4.68390e-11   5.19711e-09 DIIS
  Energy and wave function converged.


  ==> Post-Iterations <==

    Orbital Energies [Eh]
    ---------------------

    Doubly Occupied:                                                      

       1A   -489.795519     2A    -64.936251     3A    -58.290735  
       4A    -58.290694     5A    -58.290681     6A    -20.437614  
       7A    -20.414614     8A    -20.412484     9A    -20.385912  
      10A     -9.608872    11A     -7.216489    12A     -7.216423  
      13A     -7.216198    14A     -2.958139    15A     -2.958106  
      16A     -2.957885    17A     -2.957751    18A     -2.957688  
      19A     -1.208073    20A     -1.199469    21A     -1.192227  
      22A     -1.179873    23A     -0.780747    24A     -0.562410  
      25A     -0.561132    26A     -0.557462    27A     -0.541153  
      28A     -0.457091    29A     -0.443993    30A     -0.432753  
      31A     -0.420600    32A     -0.376473    33A     -0.362073  
      34A     -0.360019    35A     -0.330186    36A     -0.224406  
      37A     -0.223772    38A     -0.220388  

    Virtual:                                                              

      39A      0.115788    40A      0.131261    41A      0.136167  
      42A      0.152651    43A      0.160367    44A      0.167493  
      45A      0.180681    46A      0.184783    47A      0.221517  
      48A      0.233273    49A      0.250605    50A      0.263760  
      51A      0.270950    52A      0.275986    53A      0.282324  
      54A      0.284504    55A      0.291592    56A      0.296630  
      57A      0.308523    58A      0.314741    59A      0.317515  
      60A      0.328304    61A      0.338256    62A      0.342456  
      63A      0.349725    64A      0.358657    65A      0.362306  
      66A      0.371893    67A      0.380171    68A      0.384670  
      69A      0.396743    70A      0.399826    71A      0.420271  
      72A      0.431706    73A      0.447302    74A      0.451375  
      75A      0.455589    76A      0.465620    77A      0.482040  
      78A      0.490704    79A      0.496199    80A      0.510935  
      81A      0.519835    82A      0.524866    83A      0.527001  
      84A      0.543269    85A      0.544998    86A      0.561532  
      87A      0.567236    88A      0.575114    89A      0.579596  
      90A      0.592246    91A      0.599460    92A      0.611253  
      93A      0.619160    94A      0.636594    95A      0.639619  
      96A      0.657073    97A      0.670821    98A      0.671618  
      99A      0.706561   100A      0.723232   101A      0.736217  
     102A      0.739444   103A      0.759749   104A      0.779268  
     105A      0.797006   106A      0.811990   107A      0.818716  
     108A      0.829954   109A      0.831533   110A      0.843202  
     111A      0.850826   112A      0.857846   113A      0.867598  
     114A      0.873973   115A      0.878097   116A      0.885200  
     117A      0.889102   118A      0.900406   119A      0.912719  
     120A      0.915149   121A      0.934317   122A      0.941017  
     123A      0.947170   124A      0.952334   125A      0.960869  
     126A      0.969284   127A      0.985806   128A      0.990344  
     129A      1.010838   130A      1.015465   131A      1.022576  
     132A      1.034210   133A      1.043041   134A      1.051772  
     135A      1.058705   136A      1.065946   137A      1.071182  
     138A      1.076310   139A      1.079686   140A      1.093111  
     141A      1.099413   142A      1.106285   143A      1.119142  
     144A      1.122303   145A      1.139544   146A      1.143498  
     147A      1.154006   148A      1.157895   149A      1.169419  
     150A      1.173002   151A      1.183250   152A      1.186251  
     153A      1.196357   154A      1.199937   155A      1.213547  
     156A      1.229606   157A      1.241272   158A      1.247137  
     159A      1.258475   160A      1.269063   161A      1.277620  
     162A      1.288428   163A      1.296359   164A      1.329718  
     165A      1.336921   166A      1.348865   167A      1.353630  
     168A      1.365980   169A      1.374579   170A      1.388433  
     171A      1.399376   172A      1.410178   173A      1.417686  
     174A      1.427112   175A      1.431645   176A      1.444665  
     177A      1.464217   178A      1.468186   179A      1.481367  
     180A      1.496376   181A      1.509102   182A      1.531518  
     183A      1.551719   184A      1.560798   185A      1.569193  
     186A      1.583562   187A      1.605050   188A      1.606255  
     189A      1.621401   190A      1.658327   191A      1.662013  
     192A      1.675223   193A      1.699294   194A      1.708463  
     195A      1.720851   196A      1.730509   197A      1.742598  
     198A      1.756530   199A      1.769155   200A      1.775695  
     201A      1.782930   202A      1.799616   203A      1.817320  
     204A      1.823868   205A      1.851625   206A      1.886135  
     207A      1.896998   208A      1.911374   209A      1.923037  
     210A      1.948619   211A      2.001615   212A      2.023908  
     213A      2.065452   214A      2.071955   215A      2.099422  
     216A      2.104440   217A      2.123163   218A      2.127716  
     219A      2.166877   220A      2.171026   221A      2.202177  
     222A      2.232821   223A      2.305585   224A      2.413424  
     225A      2.430309   226A      2.446934   227A      2.449261  
     228A      2.473236   229A      2.490954   230A      2.491523  
     231A      2.511477   232A      2.525232   233A      2.531840  
     234A      2.551821   235A      2.557752   236A      2.583967  
     237A      2.585604   238A      2.593385   239A      2.598367  
     240A      2.619376   241A      2.622971   242A      2.632846  
     243A      2.642168   244A      2.650083   245A      2.662791  
     246A      2.668324   247A      2.673379   248A      2.683183  
     249A      2.686994   250A      2.696563   251A      2.714379  
     252A      2.720580   253A      2.732171   254A      2.751711  
     255A      2.756717   256A      2.765670   257A      2.785312  
     258A      2.803269   259A      2.804803   260A      2.840516  
     261A      2.855537   262A      2.864388   263A      2.876396  
     264A      2.884484   265A      2.910840   266A      2.925527  
     267A      2.943398   268A      2.949742   269A      2.955323  
     270A      2.978104   271A      2.979461   272A      3.017492  
     273A      3.032875   274A      3.047289   275A      3.047890  
     276A      3.071745   277A      3.080148   278A      3.110258  
     279A      3.137795   280A      3.141974   281A      3.155239  
     282A      3.186148   283A      3.197351   284A      3.219311  
     285A      3.248272   286A      3.275442   287A      3.286845  
     288A      3.306209   289A      3.343562   290A      3.366975  
     291A      3.828117   292A      3.901299   293A      3.975559  
     294A      3.996055   295A      4.008775   296A      4.169578  
     297A      4.176535   298A      4.197620   299A      4.216841  
     300A      4.225926   301A      4.272328   302A      4.292147  
     303A      4.317779   304A      4.348304   305A      4.378052  
     306A      4.388558   307A      4.390744   308A      4.398747  
     309A      4.416188   310A      4.440916   311A      4.460624  
     312A      4.461106   313A      4.475760   314A      4.491306  
     315A      4.501642   316A      4.504620   317A      4.513347  
     318A      4.534105   319A      4.555046   320A      4.566630  
     321A      4.586781   322A      4.610214   323A      4.622627  
     324A      4.627334   325A      4.641726   326A      4.676249  
     327A      4.697531   328A      4.707567   329A      4.748016  
     330A      4.754183   331A      4.777650   332A      4.835369  
     333A      4.864706   334A      4.883307   335A      4.920536  
     336A      4.959935   337A      4.980720   338A      5.028928  
     339A      5.053307   340A      5.116772   341A      5.138279  
     342A      5.183231   343A      5.212861   344A      5.289994  
     345A      5.298318   346A      5.309266   347A      5.320287  
     348A      5.373325   349A      5.385144   350A      5.400496  
     351A      5.423398   352A      5.443612   353A      5.458097  
     354A      5.488503   355A      5.503866   356A      5.526130  
     357A      5.583928   358A      5.596963   359A      5.640565  
     360A      5.693318   361A      5.694312   362A      5.729939  
     363A      5.769194   364A      5.788429   365A      5.872924  
     366A      5.896954   367A      5.976068   368A      6.357515  
     369A      6.413353   370A      6.441127   371A      6.523080  
     372A      6.675075   373A      6.707894   374A      6.732754  
     375A      6.765603   376A      6.874561   377A      6.952372  
     378A      6.973362   379A      7.012282   380A      7.080805  
     381A      7.094521   382A      7.157514   383A      7.183038  
     384A      7.237106   385A      7.282865   386A      7.319544  
     387A      7.387424   388A      7.390026   389A      7.406230  
     390A      7.417835   391A      7.443741   392A      7.449424  
     393A      7.470428   394A      7.487537   395A      7.503827  
     396A      7.512124   397A      7.530214   398A      7.535457  
     399A      7.555006   400A      7.558312   401A      7.578650  
     402A      7.589317   403A      7.596913   404A      7.638128  
     405A      7.662893   406A      7.673996   407A      7.694022  
     408A      7.769631   409A      7.889207   410A      7.898219  
     411A      7.957107   412A      8.040528   413A      8.068080  
     414A      8.107411   415A      8.112607   416A      8.117646  
     417A      8.158352   418A      8.171939   419A      8.249954  
     420A      8.853837   421A      8.944623   422A      8.990253  
     423A      9.057628   424A     15.737975   425A     16.154608  
     426A     16.824727   427A     17.251114  

    Final Occupation by Irrep:
              A 
    DOCC [    38 ]
    NA   [    38 ]
    NB   [    38 ]

  @DF-RHF Final Energy: -2876.80503941280540

   => Energetics <=

    Nuclear Repulsion Energy =            348.5390604871745381
    One-Electron Energy =               -4712.8154802740209561
    Two-Electron Energy =                1487.4713803740407911
    Total Energy =                      -2876.8050394128058542

Computation Completed


Properties will be evaluated at   0.000000,   0.000000,   0.000000 [a0]

Properties computed using the SCF density matrix


 Multipole Moments:

 ------------------------------------------------------------------------------------
     Multipole            Electronic (a.u.)      Nuclear  (a.u.)        Total (a.u.)
 ------------------------------------------------------------------------------------

 L = 1.  Multiply by 2.5417464519 to convert [e a0] to [Debye]
 Dipole X            :       -136.8361423          135.4650891           -1.3710532
 Dipole Y            :         12.0199567          -12.4689194           -0.4489627
 Dipole Z            :          1.6018482           -2.6105017           -1.0086535
 Magnitude           :                                                    1.7603228

 ------------------------------------------------------------------------------------

*** tstop() called on ddmfs1 at Tue Jan 23 00:50:42 2024
Module time:
	user time   =     121.34 seconds =       2.02 minutes
	system time =      11.25 seconds =       0.19 minutes
	total time  =          9 seconds =       0.15 minutes
Total time:
	user time   =     121.34 seconds =       2.02 minutes
	system time =      11.25 seconds =       0.19 minutes
	total time  =          9 seconds =       0.15 minutes

*** tstart() called on ddmfs1
*** at Tue Jan 23 00:50:42 2024


  //>>>>>>>>>>>>>>>>>>>>>>>>>>>>>>>>>>>//
  //               DFMP2               //
  //<<<<<<<<<<<<<<<<<<<<<<<<<<<<<<<<<<<//

   => Loading Basis Set <=

    Name: (AUG-CC-PVTZ AUX)
    Role: RIFIT
    Keyword: DF_BASIS_MP2
    atoms 1                     entry BR         line  1248 file /ddmfs1b/softs/psi4conda/share/psi4/basis/aug-cc-pvtz-ri.gbs 
    atoms 2, 5, 8, 11           entry O          line   264 file /ddmfs1b/softs/psi4conda/share/psi4/basis/aug-cc-pvtz-ri.gbs 
    atoms 3-4, 6-7, 9-10, 12-13 entry H          line    30 file /ddmfs1b/softs/psi4conda/share/psi4/basis/aug-cc-pvtz-ri.gbs 

	 --------------------------------------------------------
	                          DF-MP2                         
	      2nd-Order Density-Fitted Moller-Plesset Theory     
	              RMP2 Wavefunction,  20 Threads             
	                                                         
	        Rob Parrish, Justin Turney, Andy Simmonett,      
	           Ed Hohenstein, and C. David Sherrill          
	 --------------------------------------------------------

   => Auxiliary Basis Set <=

  Basis Set: (AUG-CC-PVTZ AUX)
    Blend: AUG-CC-PVTZ-RI
    Number of shells: 267
    Number of basis functions: 983
    Number of Cartesian functions: 1245
    Spherical Harmonics?: true
    Max angular momentum: 5

	 --------------------------------------------------------
	                 NBF =   427, NAUX =   983
	 --------------------------------------------------------
	   CLASS    FOCC     OCC    AOCC    AVIR     VIR    FVIR
	   PAIRS       0      38      38     389     389       0
	 --------------------------------------------------------

	-----------------------------------------------------------
	 ==================> DF-MP2 Energies <==================== 
	-----------------------------------------------------------
	 Reference Energy          =   -2876.8050394128053995 [Eh]
	 Singles Energy            =      -0.0000000000000000 [Eh]
	 Same-Spin Energy          =      -0.3781848933249106 [Eh]
	 Opposite-Spin Energy      =      -1.0900012068283818 [Eh]
	 Correlation Energy        =      -1.4681861001532923 [Eh]
	 Total Energy              =   -2878.2732255129585610 [Eh]
	-----------------------------------------------------------
	 ================> DF-SCS-MP2 Energies <================== 
	-----------------------------------------------------------
	 SCS Same-Spin Scale       =       0.3333333333333333 [-]
	 SCS Opposite-Spin Scale   =       1.2000000000000000 [-]
	 SCS Same-Spin Energy      =      -0.1260616311083035 [Eh]
	 SCS Opposite-Spin Energy  =      -1.3080014481940581 [Eh]
	 SCS Correlation Energy    =      -1.4340630793023617 [Eh]
	 SCS Total Energy          =   -2878.2391024921075768 [Eh]
	-----------------------------------------------------------


*** tstop() called on ddmfs1 at Tue Jan 23 00:50:53 2024
Module time:
	user time   =      42.68 seconds =       0.71 minutes
	system time =       2.47 seconds =       0.04 minutes
	total time  =         11 seconds =       0.18 minutes
Total time:
	user time   =     164.04 seconds =       2.73 minutes
	system time =      13.73 seconds =       0.23 minutes
	total time  =         20 seconds =       0.33 minutes

    Psi4 stopped on: Tuesday, 23 January 2024 12:50AM
    Psi4 wall time for execution: 0:00:20.01

*** Psi4 exiting successfully. Buy a developer a beer!
