
    -----------------------------------------------------------------------
          Psi4: An Open-Source Ab Initio Electronic Structure Package
                               Psi4 1.9 release

                         Git: Rev {} zzzzzzz 


    D. G. A. Smith, L. A. Burns, A. C. Simmonett, R. M. Parrish,
    M. C. Schieber, R. Galvelis, P. Kraus, H. Kruse, R. Di Remigio,
    A. Alenaizan, A. M. James, S. Lehtola, J. P. Misiewicz, M. Scheurer,
    R. A. Shaw, J. B. Schriber, Y. Xie, Z. L. Glick, D. A. Sirianni,
    J. S. O'Brien, J. M. Waldrop, A. Kumar, E. G. Hohenstein,
    B. P. Pritchard, B. R. Brooks, H. F. Schaefer III, A. Yu. Sokolov,
    K. Patkowski, A. E. DePrince III, U. Bozkaya, R. A. King,
    F. A. Evangelista, J. M. Turney, T. D. Crawford, C. D. Sherrill,
    J. Chem. Phys. 152(18) 184108 (2020). https://doi.org/10.1063/5.0006002

                            Additional Code Authors
    E. T. Seidl, C. L. Janssen, E. F. Valeev, M. L. Leininger,
    J. F. Gonthier, R. M. Richard, H. R. McAlexander, M. Saitow, X. Wang,
    P. Verma, M. H. Lechner, A. Jiang, S. Behnle, A. G. Heide,
    M. F. Herbst, and D. L. Poole

             Previous Authors, Complete List of Code Contributors,
                       and Citations for Specific Modules
    https://github.com/psi4/psi4/blob/master/codemeta.json
    https://github.com/psi4/psi4/graphs/contributors
    http://psicode.org/psi4manual/master/introduction.html#citing-psifour

    -----------------------------------------------------------------------


    Psi4 started on: Sunday, 07 January 2024 01:15AM

    Process ID: 563493
    Host:       moses-razer
    PSIDATADIR: /home/kchung25/anaconda3/envs/psi4_19/share/psi4
    Memory:     500.0 MiB
    Threads:    6
    
  ==> Input File <==

--------------------------------------------------------------------------
MEMORY 60 GB

molecule dimer {
-1 1
Br     0.000000     0.000000     0.000000
--
0 1
O     -0.999022    -2.679634    -1.724013
H     -0.678718    -2.037465    -1.171070
H     -1.864558    -2.807700    -1.354503
O      2.580843    -1.796834    -1.300260
H      2.444330    -2.737774    -1.082597
H      1.984606    -1.292710    -0.800320
O      0.716653    -2.040909     2.401316
H      0.606530    -1.564525     1.571865
H      0.320539    -1.488156     3.042768

units ang
no_reorient
no_com
symmetry c1
}

set {
basis        aug-cc-pVTZ
scf_type     df
}

energy("mp2", bsse_type="cp")
--------------------------------------------------------------------------

  Memory set to  55.879 GiB by Python driver.

Scratch directory: /scratch/

  //>>>>>>>>>>>>>>>>>>>>>>>>>>>>>>>>>>>>>//
  // ManyBody Setup: N-Body Levels [1, 2]//
  //<<<<<<<<<<<<<<<<<<<<<<<<<<<<<<<<<<<<<//

        Number of 1-body computations:     2
        Number of 2-body computations:     1

    -----------------------------------------------------------------------
          Psi4: An Open-Source Ab Initio Electronic Structure Package
                               Psi4 1.9 release

                         Git: Rev {} zzzzzzz 


    D. G. A. Smith, L. A. Burns, A. C. Simmonett, R. M. Parrish,
    M. C. Schieber, R. Galvelis, P. Kraus, H. Kruse, R. Di Remigio,
    A. Alenaizan, A. M. James, S. Lehtola, J. P. Misiewicz, M. Scheurer,
    R. A. Shaw, J. B. Schriber, Y. Xie, Z. L. Glick, D. A. Sirianni,
    J. S. O'Brien, J. M. Waldrop, A. Kumar, E. G. Hohenstein,
    B. P. Pritchard, B. R. Brooks, H. F. Schaefer III, A. Yu. Sokolov,
    K. Patkowski, A. E. DePrince III, U. Bozkaya, R. A. King,
    F. A. Evangelista, J. M. Turney, T. D. Crawford, C. D. Sherrill,
    J. Chem. Phys. 152(18) 184108 (2020). https://doi.org/10.1063/5.0006002

                            Additional Code Authors
    E. T. Seidl, C. L. Janssen, E. F. Valeev, M. L. Leininger,
    J. F. Gonthier, R. M. Richard, H. R. McAlexander, M. Saitow, X. Wang,
    P. Verma, M. H. Lechner, A. Jiang, S. Behnle, A. G. Heide,
    M. F. Herbst, and D. L. Poole

             Previous Authors, Complete List of Code Contributors,
                       and Citations for Specific Modules
    https://github.com/psi4/psi4/blob/master/codemeta.json
    https://github.com/psi4/psi4/graphs/contributors
    http://psicode.org/psi4manual/master/introduction.html#citing-psifour

    -----------------------------------------------------------------------


    Psi4 started on: Sunday, 07 January 2024 01:15AM

    Process ID: 563493
    Host:       moses-razer
    PSIDATADIR: /home/kchung25/anaconda3/envs/psi4_19/share/psi4
    Memory:     55.9 GiB
    Threads:    6
    
  ==> Input QCSchema <==

--------------------------------------------------------------------------
{'driver': 'energy',
 'extras': {'psiapi': True, 'wfn_qcvars_only': True},
 'id': None,
 'keywords': {'SCF_TYPE': 'DF', 'function_kwargs': {}},
 'model': {'basis': 'aug-cc-pvtz', 'method': 'mp2'},
 'molecule': {'atom_labels': ['', '', '', '', '', '', '', '', '', ''],
              'atomic_numbers': [35, 8, 1, 1, 8, 1, 1, 8, 1, 1],
              'extras': {},
              'fix_com': True,
              'fix_orientation': True,
              'fix_symmetry': 'c1',
              'fragment_charges': [0.0, 0.0],
              'fragment_multiplicities': [1, 1],
              'fragments': [[0], [1, 2, 3, 4, 5, 6, 7, 8, 9]],
              'geometry': [0.0, 0.0, 0.0, -1.8878779733071303, -5.063774376465062, -3.2579124067289267,
                           -1.2825911364184863, -3.850250840205934, -2.213001573739899, -3.523503965031397,
                           -5.305784042447944, -2.5596397061110046, 4.877086442804958, -3.395524152910891,
                           -2.457135291887796, 4.619114260240333, -5.1736430533991795, -2.0458118342422686,
                           3.750361806940359, -2.442867859640589, -1.512385612726409, 1.354277896987729,
                           -3.856759056982011, 4.53782958067989, 1.1461755868739365, -2.9565237664319084,
                           2.9703943561927693, 0.6057309225281268, -2.8122072719568196, 5.749998183307065],
              'mass_numbers': [79, 16, 1, 1, 16, 1, 1, 16, 1, 1],
              'masses': [78.9183376, 15.99491461957, 1.00782503223, 1.00782503223, 15.99491461957, 1.00782503223,
                         1.00782503223, 15.99491461957, 1.00782503223, 1.00782503223],
              'molecular_charge': 0.0,
              'molecular_multiplicity': 1,
              'name': 'dimer',
              'provenance': {'creator': 'QCElemental',
                             'routine': 'qcelemental.molparse.from_string',
                             'version': '0.27.1'},
              'real': [False, True, True, True, True, True, True, True, True, True],
              'schema_name': 'qcschema_molecule',
              'schema_version': 2,
              'symbols': ['Br', 'O', 'H', 'H', 'O', 'H', 'H', 'O', 'H', 'H'],
              'validated': True},
 'protocols': {'stdout': True},
 'provenance': {'creator': 'QCElemental', 'routine': 'qcelemental.models.results', 'version': '0.27.1'},
 'schema_name': 'qcschema_input',
 'schema_version': 1}
--------------------------------------------------------------------------

Scratch directory: /scratch/
   => Libint2 <=

    Primary   basis highest AM E, G, H:  5, 4, 3
    Auxiliary basis highest AM E, G, H:  6, 5, 4
    Onebody   basis highest AM E, G, H:  6, 5, 4
    Solid Harmonics ordering:            gaussian

*** tstart() called on moses-razer
*** at Sun Jan  7 01:15:21 2024

   => Loading Basis Set <=

    Name: AUG-CC-PVTZ
    Role: ORBITAL
    Keyword: BASIS
    atoms 1              entry BR         line  4564 file /home/kchung25/anaconda3/envs/p415env/share/psi4/basis/aug-cc-pvtz.gbs 
    atoms 2, 5, 8        entry O          line   331 file /home/kchung25/anaconda3/envs/p415env/share/psi4/basis/aug-cc-pvtz.gbs 
    atoms 3-4, 6-7, 9-10 entry H          line    40 file /home/kchung25/anaconda3/envs/p415env/share/psi4/basis/aug-cc-pvtz.gbs 


         ---------------------------------------------------------
                                   SCF
               by Justin Turney, Rob Parrish, Andy Simmonett
                          and Daniel G. A. Smith
                              RHF Reference
                        6 Threads,  57220 MiB Core
         ---------------------------------------------------------

  ==> Geometry <==

    Molecular point group: c1
    Full point group: C1

    Geometry (in Bohr), charge = 0, multiplicity = 1:

       Center              X                  Y                   Z               Mass       
    ------------   -----------------  -----------------  -----------------  -----------------
      Gh(BR)          0.000000000000     0.000000000000     0.000000000000    78.918337600000
         O           -1.887877973307    -5.063774376465    -3.257912406729    15.994914619570
         H           -1.282591136418    -3.850250840206    -2.213001573740     1.007825032230
         H           -3.523503965031    -5.305784042448    -2.559639706111     1.007825032230
         O            4.877086442805    -3.395524152911    -2.457135291888    15.994914619570
         H            4.619114260240    -5.173643053399    -2.045811834242     1.007825032230
         H            3.750361806940    -2.442867859641    -1.512385612726     1.007825032230
         O            1.354277896988    -3.856759056982     4.537829580680    15.994914619570
         H            1.146175586874    -2.956523766432     2.970394356193     1.007825032230
         H            0.605730922528    -2.812207271957     5.749998183307     1.007825032230

  Running in c1 symmetry.

  Rotational constants: A =      0.05728  B =      0.04115  C =      0.03571 [cm^-1]
  Rotational constants: A =   1717.18074  B =   1233.75427  C =   1070.45797 [MHz]
  Nuclear repulsion =   67.506060704392240

  Charge       = 0
  Multiplicity = 1
  Electrons    = 30
  Nalpha       = 15
  Nbeta        = 15

  ==> Algorithm <==

  SCF Algorithm Type is DF.
  DIIS enabled.
  MOM disabled.
  Fractional occupation disabled.
  Guess Type is SAD.
  Energy threshold   = 1.00e-08
  Density threshold  = 1.00e-08
  Integral threshold = 1.00e-12

  ==> Primary Basis <==

  Basis Set: AUG-CC-PVTZ
    Blend: AUG-CC-PVTZ
    Number of shells: 115
    Number of basis functions: 335
    Number of Cartesian functions: 384
    Spherical Harmonics?: true
    Max angular momentum: 3

   => Loading Basis Set <=

    Name: (AUG-CC-PVTZ AUX)
    Role: JKFIT
    Keyword: DF_BASIS_SCF
    atoms 1              entry BR         line  1492 file /home/kchung25/anaconda3/envs/p415env/share/psi4/basis/aug-cc-pvtz-jkfit.gbs 
    atoms 2, 5, 8        entry O          line   286 file /home/kchung25/anaconda3/envs/p415env/share/psi4/basis/aug-cc-pvtz-jkfit.gbs 
    atoms 3-4, 6-7, 9-10 entry H          line    70 file /home/kchung25/anaconda3/envs/p415env/share/psi4/basis/aug-cc-pvtz-jkfit.gbs 

  ==> Integral Setup <==

  DFHelper Memory: AOs need 0.691 GiB; user supplied 41.910 GiB. 
  Using in-core AOs.

  ==> MemDFJK: Density-Fitted J/K Matrices <==

    J tasked:                   Yes
    K tasked:                   Yes
    wK tasked:                   No
    OpenMP threads:               6
    Memory [MiB]:             42915
    Algorithm:                 Core
    Schwarz Cutoff:           1E-12
    Mask sparsity (%):       5.7866
    Fitting Condition:        1E-10

   => Auxiliary Basis Set <=

  Basis Set: (AUG-CC-PVTZ AUX)
    Blend: AUG-CC-PVTZ-JKFIT
    Number of shells: 232
    Number of basis functions: 836
    Number of Cartesian functions: 1052
    Spherical Harmonics?: true
    Max angular momentum: 4

  Minimum eigenvalue in the overlap matrix is 1.5792678103E-04.
  Reciprocal condition number of the overlap matrix is 1.4713465488E-05.
    Using symmetric orthogonalization.

  ==> Pre-Iterations <==

  SCF Guess: Superposition of Atomic Densities via on-the-fly atomic UHF (no occupation information).

   -------------------------
    Irrep   Nso     Nmo    
   -------------------------
     A        335     335 
   -------------------------
    Total     335     335
   -------------------------

  ==> Iterations <==

                           Total Energy        Delta E     RMS |[F,P]|

   @DF-RHF iter SAD:  -226.51224741020863   -2.26512e+02   0.00000e+00 
   @DF-RHF iter   1:  -227.92193977068590   -1.40969e+00   2.43438e-03 ADIIS/DIIS
   @DF-RHF iter   2:  -228.08238985567209   -1.60450e-01   1.62955e-03 ADIIS/DIIS
   @DF-RHF iter   3:  -228.17373104961820   -9.13412e-02   1.12801e-04 ADIIS/DIIS
   @DF-RHF iter   4:  -228.17488694524005   -1.15590e-03   2.63518e-05 DIIS
   @DF-RHF iter   5:  -228.17495346556200   -6.65203e-05   6.87489e-06 DIIS
   @DF-RHF iter   6:  -228.17495904596336   -5.58040e-06   3.01815e-06 DIIS
   @DF-RHF iter   7:  -228.17495965598300   -6.10020e-07   7.48043e-07 DIIS
   @DF-RHF iter   8:  -228.17495973693457   -8.09516e-08   1.28997e-07 DIIS
   @DF-RHF iter   9:  -228.17495973938375   -2.44918e-09   2.17609e-08 DIIS
   @DF-RHF iter  10:  -228.17495973944415   -6.03961e-11   6.26137e-09 DIIS
  Energy and wave function converged.


  ==> Post-Iterations <==

    Orbital Energies [Eh]
    ---------------------

    Doubly Occupied:                                                      

       1A    -20.582318     2A    -20.572811     3A    -20.565785  
       4A     -1.382589     5A     -1.374707     6A     -1.356207  
       7A     -0.739737     8A     -0.735216     9A     -0.729922  
      10A     -0.607347    11A     -0.602469    12A     -0.579721  
      13A     -0.527451    14A     -0.523077    15A     -0.510878  

    Virtual:                                                              

      16A      0.011723    17A      0.036375    18A      0.040644  
      19A      0.048914    20A      0.067864    21A      0.072343  
      22A      0.079336    23A      0.094367    24A      0.096598  
      25A      0.110221    26A      0.144465    27A      0.150271  
      28A      0.157159    29A      0.162082    30A      0.180144  
      31A      0.182609    32A      0.191373    33A      0.194022  
      34A      0.205102    35A      0.216264    36A      0.219997  
      37A      0.222804    38A      0.235611    39A      0.257126  
      40A      0.262198    41A      0.272086    42A      0.275241  
      43A      0.293141    44A      0.297157    45A      0.303053  
      46A      0.310951    47A      0.324716    48A      0.327328  
      49A      0.333701    50A      0.341556    51A      0.377110  
      52A      0.378420    53A      0.386715    54A      0.394003  
      55A      0.413022    56A      0.433137    57A      0.435287  
      58A      0.438105    59A      0.440312    60A      0.460489  
      61A      0.468058    62A      0.476600    63A      0.493460  
      64A      0.501898    65A      0.537715    66A      0.545957  
      67A      0.556653    68A      0.593277    69A      0.606678  
      70A      0.616374    71A      0.674096    72A      0.685933  
      73A      0.690457    74A      0.704148    75A      0.716229  
      76A      0.721384    77A      0.726628    78A      0.731482  
      79A      0.746193    80A      0.749685    81A      0.755139  
      82A      0.768011    83A      0.775943    84A      0.803147  
      85A      0.810029    86A      0.829847    87A      0.843571  
      88A      0.848772    89A      0.875365    90A      0.889138  
      91A      0.898685    92A      0.906129    93A      0.917597  
      94A      0.923910    95A      0.932142    96A      0.940094  
      97A      0.948351    98A      0.954499    99A      0.959587  
     100A      0.977306   101A      0.980702   102A      0.986515  
     103A      0.996680   104A      1.007223   105A      1.011682  
     106A      1.027333   107A      1.029301   108A      1.043643  
     109A      1.046702   110A      1.052838   111A      1.072259  
     112A      1.077368   113A      1.087767   114A      1.103693  
     115A      1.113023   116A      1.120622   117A      1.137237  
     118A      1.148686   119A      1.163507   120A      1.175671  
     121A      1.189009   122A      1.202845   123A      1.211799  
     124A      1.227930   125A      1.246745   126A      1.255298  
     127A      1.273468   128A      1.280984   129A      1.296706  
     130A      1.300854   131A      1.308639   132A      1.340115  
     133A      1.378990   134A      1.392126   135A      1.402841  
     136A      1.425812   137A      1.432009   138A      1.472624  
     139A      1.490578   140A      1.529827   141A      1.534615  
     142A      1.542453   143A      1.549762   144A      1.571965  
     145A      1.577036   146A      1.601318   147A      1.614602  
     148A      1.640864   149A      1.669322   150A      1.674718  
     151A      1.681874   152A      1.719192   153A      1.741114  
     154A      1.757838   155A      1.790107   156A      1.884403  
     157A      1.905129   158A      1.940237   159A      1.949182  
     160A      1.993573   161A      2.012692   162A      2.046055  
     163A      2.062206   164A      2.078729   165A      2.283399  
     166A      2.293279   167A      2.329998   168A      2.348900  
     169A      2.357340   170A      2.370059   171A      2.398152  
     172A      2.419233   173A      2.435620   174A      2.441486  
     175A      2.444909   176A      2.470534   177A      2.476326  
     178A      2.486913   179A      2.496886   180A      2.512109  
     181A      2.533311   182A      2.555951   183A      2.569981  
     184A      2.581099   185A      2.599603   186A      2.641527  
     187A      2.658007   188A      2.682705   189A      2.713881  
     190A      2.720184   191A      2.746758   192A      2.750106  
     193A      2.773675   194A      2.819466   195A      2.839938  
     196A      2.855828   197A      2.875643   198A      2.916540  
     199A      2.926005   200A      2.948532   201A      2.963029  
     202A      2.988932   203A      3.003615   204A      3.079866  
     205A      3.144172   206A      3.175376   207A      3.223843  
     208A      3.261309   209A      3.297219   210A      3.329716  
     211A      3.355074   212A      3.384228   213A      3.387932  
     214A      3.460902   215A      3.466624   216A      3.513426  
     217A      3.611931   218A      3.658265   219A      3.681164  
     220A      3.735110   221A      3.784975   222A      3.803895  
     223A      3.972736   224A      4.000478   225A      4.041410  
     226A      4.068627   227A      4.081658   228A      4.109959  
     229A      4.191111   230A      4.204222   231A      4.235999  
     232A      4.259169   233A      4.268150   234A      4.282855  
     235A      4.286236   236A      4.304849   237A      4.329803  
     238A      4.341082   239A      4.359133   240A      4.380623  
     241A      4.392558   242A      4.410730   243A      4.419867  
     244A      4.434919   245A      4.442251   246A      4.455599  
     247A      4.468951   248A      4.509081   249A      4.516739  
     250A      4.553119   251A      4.619750   252A      4.675698  
     253A      4.779530   254A      4.830047   255A      4.841652  
     256A      4.947993   257A      4.971942   258A      5.056552  
     259A      5.169693   260A      5.172084   261A      5.208325  
     262A      5.227142   263A      5.233395   264A      5.268118  
     265A      5.341092   266A      5.352260   267A      5.360093  
     268A      5.445126   269A      5.486916   270A      5.556073  
     271A      5.557685   272A      5.594606   273A      5.656086  
     274A      5.727475   275A      5.773297   276A      5.815114  
     277A      6.229175   278A      6.239394   279A      6.310495  
     280A      6.529176   281A      6.544969   282A      6.562372  
     283A      6.755223   284A      6.776850   285A      6.808805  
     286A      6.915230   287A      6.974027   288A      7.095988  
     289A      7.135483   290A      7.162777   291A      7.191283  
     292A      7.279629   293A      7.284928   294A      7.312878  
     295A      7.328529   296A      7.346739   297A      7.352661  
     298A      7.365461   299A      7.374657   300A      7.387822  
     301A      7.397749   302A      7.437789   303A      7.441321  
     304A      7.458887   305A      7.494160   306A      7.522970  
     307A      7.763698   308A      7.781083   309A      7.800032  
     310A      7.962085   311A      7.967768   312A      7.977979  
     313A      8.026670   314A      8.072036   315A      8.166420  
     316A      8.838030   317A      8.889675   318A      9.018321  
     319A     10.585123   320A     13.663730   321A     13.746468  
     322A     13.811967   323A     16.977802   324A     17.001433  
     325A     17.944945   326A     26.196303   327A     26.199064  
     328A     26.295145   329A     26.424933   330A     26.490404  
     331A     46.212105   332A    138.769030   333A    138.901541  
     334A    139.028182   335A    710.916302  

    Final Occupation by Irrep:
              A 
    DOCC [    15 ]
    NA   [    15 ]
    NB   [    15 ]

  @DF-RHF Final Energy:  -228.17495973944415

   => Energetics <=

    Nuclear Repulsion Energy =             67.5060607043922403
    One-Electron Energy =                -448.5815654377740884
    Two-Electron Energy =                 152.9005449939377286
    Total Energy =                       -228.1749597394441480

Computation Completed


Properties will be evaluated at   0.000000,   0.000000,   0.000000 [a0]

Properties computed using the SCF density matrix


 Multipole Moments:

 ------------------------------------------------------------------------------------
     Multipole            Electronic (a.u.)      Nuclear  (a.u.)        Total (a.u.)
 ------------------------------------------------------------------------------------

 L = 1.  Multiply by 2.5417464519 to convert [e a0] to [Debye]
 Dipole X            :        -41.2424161           40.0631784           -1.1792376
 Dipole Y            :        121.7622458         -121.0697375            0.6925082
 Dipole Z            :         10.0072025           -9.0281911            0.9790114
 Magnitude           :                                                    1.6818539

 ------------------------------------------------------------------------------------

*** tstop() called on moses-razer at Sun Jan  7 01:15:25 2024
Module time:
	user time   =      19.18 seconds =       0.32 minutes
	system time =       1.05 seconds =       0.02 minutes
	total time  =          4 seconds =       0.07 minutes
Total time:
	user time   =      19.18 seconds =       0.32 minutes
	system time =       1.05 seconds =       0.02 minutes
	total time  =          4 seconds =       0.07 minutes

*** tstart() called on moses-razer
*** at Sun Jan  7 01:15:25 2024


  //>>>>>>>>>>>>>>>>>>>>>>>>>>>>>>>>>>>//
  //               DFMP2               //
  //<<<<<<<<<<<<<<<<<<<<<<<<<<<<<<<<<<<//

   => Loading Basis Set <=

    Name: (AUG-CC-PVTZ AUX)
    Role: RIFIT
    Keyword: DF_BASIS_MP2
    atoms 1              entry BR         line  1248 file /home/kchung25/anaconda3/envs/p415env/share/psi4/basis/aug-cc-pvtz-ri.gbs 
    atoms 2, 5, 8        entry O          line   264 file /home/kchung25/anaconda3/envs/p415env/share/psi4/basis/aug-cc-pvtz-ri.gbs 
    atoms 3-4, 6-7, 9-10 entry H          line    30 file /home/kchung25/anaconda3/envs/p415env/share/psi4/basis/aug-cc-pvtz-ri.gbs 

	 --------------------------------------------------------
	                          DF-MP2                         
	      2nd-Order Density-Fitted Moller-Plesset Theory     
	              RMP2 Wavefunction,   6 Threads             
	                                                         
	        Rob Parrish, Justin Turney, Andy Simmonett,      
	           Ed Hohenstein, and C. David Sherrill          
	 --------------------------------------------------------

   => Auxiliary Basis Set <=

  Basis Set: (AUG-CC-PVTZ AUX)
    Blend: AUG-CC-PVTZ-RI
    Number of shells: 211
    Number of basis functions: 785
    Number of Cartesian functions: 999
    Spherical Harmonics?: true
    Max angular momentum: 5

	 --------------------------------------------------------
	                 NBF =   335, NAUX =   785
	 --------------------------------------------------------
	   CLASS    FOCC     OCC    AOCC    AVIR     VIR    FVIR
	   PAIRS       0      15      15     320     320       0
	 --------------------------------------------------------

	-----------------------------------------------------------
	 ==================> DF-MP2 Energies <==================== 
	-----------------------------------------------------------
	 Reference Energy          =    -228.1749597394441480 [Eh]
	 Singles Energy            =      -0.0000000000000000 [Eh]
	 Same-Spin Energy          =      -0.2049195573756509 [Eh]
	 Opposite-Spin Energy      =      -0.6459269104986383 [Eh]
	 Correlation Energy        =      -0.8508464678742892 [Eh]
	 Total Energy              =    -229.0258062073184249 [Eh]
	-----------------------------------------------------------
	 ================> DF-SCS-MP2 Energies <================== 
	-----------------------------------------------------------
	 SCS Same-Spin Scale       =       0.3333333333333333 [-]
	 SCS Opposite-Spin Scale   =       1.2000000000000000 [-]
	 SCS Same-Spin Energy      =      -0.0683065191252170 [Eh]
	 SCS Opposite-Spin Energy  =      -0.7751122925983659 [Eh]
	 SCS Correlation Energy    =      -0.8434188117235829 [Eh]
	 SCS Total Energy          =    -229.0183785511677286 [Eh]
	-----------------------------------------------------------


*** tstop() called on moses-razer at Sun Jan  7 01:15:28 2024
Module time:
	user time   =       7.21 seconds =       0.12 minutes
	system time =       0.54 seconds =       0.01 minutes
	total time  =          3 seconds =       0.05 minutes
Total time:
	user time   =      26.40 seconds =       0.44 minutes
	system time =       1.59 seconds =       0.03 minutes
	total time  =          7 seconds =       0.12 minutes

    Psi4 stopped on: Sunday, 07 January 2024 01:15AM
    Psi4 wall time for execution: 0:00:07.55


    -----------------------------------------------------------------------
          Psi4: An Open-Source Ab Initio Electronic Structure Package
                               Psi4 1.9 release

                         Git: Rev {} zzzzzzz 


    D. G. A. Smith, L. A. Burns, A. C. Simmonett, R. M. Parrish,
    M. C. Schieber, R. Galvelis, P. Kraus, H. Kruse, R. Di Remigio,
    A. Alenaizan, A. M. James, S. Lehtola, J. P. Misiewicz, M. Scheurer,
    R. A. Shaw, J. B. Schriber, Y. Xie, Z. L. Glick, D. A. Sirianni,
    J. S. O'Brien, J. M. Waldrop, A. Kumar, E. G. Hohenstein,
    B. P. Pritchard, B. R. Brooks, H. F. Schaefer III, A. Yu. Sokolov,
    K. Patkowski, A. E. DePrince III, U. Bozkaya, R. A. King,
    F. A. Evangelista, J. M. Turney, T. D. Crawford, C. D. Sherrill,
    J. Chem. Phys. 152(18) 184108 (2020). https://doi.org/10.1063/5.0006002

                            Additional Code Authors
    E. T. Seidl, C. L. Janssen, E. F. Valeev, M. L. Leininger,
    J. F. Gonthier, R. M. Richard, H. R. McAlexander, M. Saitow, X. Wang,
    P. Verma, M. H. Lechner, A. Jiang, S. Behnle, A. G. Heide,
    M. F. Herbst, and D. L. Poole

             Previous Authors, Complete List of Code Contributors,
                       and Citations for Specific Modules
    https://github.com/psi4/psi4/blob/master/codemeta.json
    https://github.com/psi4/psi4/graphs/contributors
    http://psicode.org/psi4manual/master/introduction.html#citing-psifour

    -----------------------------------------------------------------------


    Psi4 started on: Sunday, 07 January 2024 01:15AM

    Process ID: 563493
    Host:       moses-razer
    PSIDATADIR: /home/kchung25/anaconda3/envs/psi4_19/share/psi4
    Memory:     55.9 GiB
    Threads:    6
    
  ==> Input QCSchema <==

--------------------------------------------------------------------------
{'driver': 'energy',
 'extras': {'psiapi': True, 'wfn_qcvars_only': True},
 'id': None,
 'keywords': {'SCF_TYPE': 'DF', 'function_kwargs': {}},
 'model': {'basis': 'aug-cc-pvtz', 'method': 'mp2'},
 'molecule': {'atom_labels': ['', '', '', '', '', '', '', '', '', ''],
              'atomic_numbers': [35, 8, 1, 1, 8, 1, 1, 8, 1, 1],
              'extras': {},
              'fix_com': True,
              'fix_orientation': True,
              'fix_symmetry': 'c1',
              'fragment_charges': [-1.0, 0.0],
              'fragment_multiplicities': [1, 1],
              'fragments': [[0], [1, 2, 3, 4, 5, 6, 7, 8, 9]],
              'geometry': [0.0, 0.0, 0.0, -1.8878779733071303, -5.063774376465062, -3.2579124067289267,
                           -1.2825911364184863, -3.850250840205934, -2.213001573739899, -3.523503965031397,
                           -5.305784042447944, -2.5596397061110046, 4.877086442804958, -3.395524152910891,
                           -2.457135291887796, 4.619114260240333, -5.1736430533991795, -2.0458118342422686,
                           3.750361806940359, -2.442867859640589, -1.512385612726409, 1.354277896987729,
                           -3.856759056982011, 4.53782958067989, 1.1461755868739365, -2.9565237664319084,
                           2.9703943561927693, 0.6057309225281268, -2.8122072719568196, 5.749998183307065],
              'mass_numbers': [79, 16, 1, 1, 16, 1, 1, 16, 1, 1],
              'masses': [78.9183376, 15.99491461957, 1.00782503223, 1.00782503223, 15.99491461957, 1.00782503223,
                         1.00782503223, 15.99491461957, 1.00782503223, 1.00782503223],
              'molecular_charge': -1.0,
              'molecular_multiplicity': 1,
              'name': 'dimer',
              'provenance': {'creator': 'QCElemental',
                             'routine': 'qcelemental.molparse.from_string',
                             'version': '0.27.1'},
              'real': [True, False, False, False, False, False, False, False, False, False],
              'schema_name': 'qcschema_molecule',
              'schema_version': 2,
              'symbols': ['Br', 'O', 'H', 'H', 'O', 'H', 'H', 'O', 'H', 'H'],
              'validated': True},
 'protocols': {'stdout': True},
 'provenance': {'creator': 'QCElemental', 'routine': 'qcelemental.models.results', 'version': '0.27.1'},
 'schema_name': 'qcschema_input',
 'schema_version': 1}
--------------------------------------------------------------------------

Scratch directory: /scratch/
   => Libint2 <=

    Primary   basis highest AM E, G, H:  5, 4, 3
    Auxiliary basis highest AM E, G, H:  6, 5, 4
    Onebody   basis highest AM E, G, H:  6, 5, 4
    Solid Harmonics ordering:            gaussian

*** tstart() called on moses-razer
*** at Sun Jan  7 01:15:28 2024

   => Loading Basis Set <=

    Name: AUG-CC-PVTZ
    Role: ORBITAL
    Keyword: BASIS
    atoms 1              entry BR         line  4564 file /home/kchung25/anaconda3/envs/p415env/share/psi4/basis/aug-cc-pvtz.gbs 
    atoms 2, 5, 8        entry O          line   331 file /home/kchung25/anaconda3/envs/p415env/share/psi4/basis/aug-cc-pvtz.gbs 
    atoms 3-4, 6-7, 9-10 entry H          line    40 file /home/kchung25/anaconda3/envs/p415env/share/psi4/basis/aug-cc-pvtz.gbs 


         ---------------------------------------------------------
                                   SCF
               by Justin Turney, Rob Parrish, Andy Simmonett
                          and Daniel G. A. Smith
                              RHF Reference
                        6 Threads,  57220 MiB Core
         ---------------------------------------------------------

  ==> Geometry <==

    Molecular point group: c1
    Full point group: C1

    Geometry (in Bohr), charge = -1, multiplicity = 1:

       Center              X                  Y                   Z               Mass       
    ------------   -----------------  -----------------  -----------------  -----------------
         BR           0.000000000000     0.000000000000     0.000000000000    78.918337600000
      Gh(O)          -1.887877973307    -5.063774376465    -3.257912406729    15.994914619570
      Gh(H)          -1.282591136418    -3.850250840206    -2.213001573740     1.007825032230
      Gh(H)          -3.523503965031    -5.305784042448    -2.559639706111     1.007825032230
      Gh(O)           4.877086442805    -3.395524152911    -2.457135291888    15.994914619570
      Gh(H)           4.619114260240    -5.173643053399    -2.045811834242     1.007825032230
      Gh(H)           3.750361806940    -2.442867859641    -1.512385612726     1.007825032230
      Gh(O)           1.354277896988    -3.856759056982     4.537829580680    15.994914619570
      Gh(H)           1.146175586874    -2.956523766432     2.970394356193     1.007825032230
      Gh(H)           0.605730922528    -2.812207271957     5.749998183307     1.007825032230

  Running in c1 symmetry.

  Rotational constants: A =      0.05728  B =      0.04115  C =      0.03571 [cm^-1]
  Rotational constants: A =   1717.18074  B =   1233.75427  C =   1070.45797 [MHz]
  Nuclear repulsion =    0.000000000000000

  Charge       = -1
  Multiplicity = 1
  Electrons    = 36
  Nalpha       = 18
  Nbeta        = 18

  ==> Algorithm <==

  SCF Algorithm Type is DF.
  DIIS enabled.
  MOM disabled.
  Fractional occupation disabled.
  Guess Type is SAD.
  Energy threshold   = 1.00e-08
  Density threshold  = 1.00e-08
  Integral threshold = 1.00e-12

  ==> Primary Basis <==

  Basis Set: AUG-CC-PVTZ
    Blend: AUG-CC-PVTZ
    Number of shells: 115
    Number of basis functions: 335
    Number of Cartesian functions: 384
    Spherical Harmonics?: true
    Max angular momentum: 3

   => Loading Basis Set <=

    Name: (AUG-CC-PVTZ AUX)
    Role: JKFIT
    Keyword: DF_BASIS_SCF
    atoms 1              entry BR         line  1492 file /home/kchung25/anaconda3/envs/p415env/share/psi4/basis/aug-cc-pvtz-jkfit.gbs 
    atoms 2, 5, 8        entry O          line   286 file /home/kchung25/anaconda3/envs/p415env/share/psi4/basis/aug-cc-pvtz-jkfit.gbs 
    atoms 3-4, 6-7, 9-10 entry H          line    70 file /home/kchung25/anaconda3/envs/p415env/share/psi4/basis/aug-cc-pvtz-jkfit.gbs 

  ==> Integral Setup <==

  DFHelper Memory: AOs need 0.691 GiB; user supplied 41.910 GiB. 
  Using in-core AOs.

  ==> MemDFJK: Density-Fitted J/K Matrices <==

    J tasked:                   Yes
    K tasked:                   Yes
    wK tasked:                   No
    OpenMP threads:               6
    Memory [MiB]:             42915
    Algorithm:                 Core
    Schwarz Cutoff:           1E-12
    Mask sparsity (%):       5.7866
    Fitting Condition:        1E-10

   => Auxiliary Basis Set <=

  Basis Set: (AUG-CC-PVTZ AUX)
    Blend: AUG-CC-PVTZ-JKFIT
    Number of shells: 232
    Number of basis functions: 836
    Number of Cartesian functions: 1052
    Spherical Harmonics?: true
    Max angular momentum: 4

  Minimum eigenvalue in the overlap matrix is 1.5792678103E-04.
  Reciprocal condition number of the overlap matrix is 1.4713465488E-05.
    Using symmetric orthogonalization.

  ==> Pre-Iterations <==

  SCF Guess: Superposition of Atomic Densities via on-the-fly atomic UHF (no occupation information).

   -------------------------
    Irrep   Nso     Nmo    
   -------------------------
     A        335     335 
   -------------------------
    Total     335     335
   -------------------------

  ==> Iterations <==

                           Total Energy        Delta E     RMS |[F,P]|

   @DF-RHF iter SAD: -2570.41423555759820   -2.57041e+03   0.00000e+00 
   @DF-RHF iter   1: -2572.25286740999718   -1.83863e+00   3.21483e-03 ADIIS/DIIS
   @DF-RHF iter   2: -2572.46279730893366   -2.09930e-01   1.79544e-03 ADIIS/DIIS
   @DF-RHF iter   3: -2572.53367629500917   -7.08790e-02   2.45461e-05 DIIS
   @DF-RHF iter   4: -2572.53370803267308   -3.17377e-05   3.66453e-06 DIIS
   @DF-RHF iter   5: -2572.53370957656171   -1.54389e-06   9.15166e-07 DIIS
   @DF-RHF iter   6: -2572.53370968188256   -1.05321e-07   1.84549e-07 DIIS
   @DF-RHF iter   7: -2572.53370969614707   -1.42645e-08   1.56048e-08 DIIS
   @DF-RHF iter   8: -2572.53370969621074   -6.36646e-11   4.44875e-09 DIIS
  Energy and wave function converged.


  ==> Post-Iterations <==

    Orbital Energies [Eh]
    ---------------------

    Doubly Occupied:                                                      

       1A   -489.721678     2A    -64.861393     3A    -58.215912  
       4A    -58.215911     5A    -58.215911     6A     -9.533154  
       7A     -7.140494     8A     -7.140487     9A     -7.140482  
      10A     -2.882196    11A     -2.882195    12A     -2.882187  
      13A     -2.882167    14A     -2.882162    15A     -0.685996  
      16A     -0.139339    17A     -0.139338    18A     -0.139335  

    Virtual:                                                              

      19A      0.121976    20A      0.134598    21A      0.136982  
      22A      0.159759    23A      0.168608    24A      0.181439  
      25A      0.219827    26A      0.241520    27A      0.244304  
      28A      0.254085    29A      0.262191    30A      0.267843  
      31A      0.272385    32A      0.280355    33A      0.286737  
      34A      0.289967    35A      0.301507    36A      0.303926  
      37A      0.310021    38A      0.328874    39A      0.340090  
      40A      0.375432    41A      0.393680    42A      0.409608  
      43A      0.428746    44A      0.434370    45A      0.435645  
      46A      0.451739    47A      0.455815    48A      0.462694  
      49A      0.475069    50A      0.492583    51A      0.503203  
      52A      0.505652    53A      0.513744    54A      0.520341  
      55A      0.539429    56A      0.553210    57A      0.557246  
      58A      0.570425    59A      0.574886    60A      0.582551  
      61A      0.598770    62A      0.613378    63A      0.615219  
      64A      0.626949    65A      0.647172    66A      0.657548  
      67A      0.675021    68A      0.720694    69A      0.746962  
      70A      0.807417    71A      0.812714    72A      0.828561  
      73A      0.848517    74A      0.855585    75A      0.862833  
      76A      0.866673    77A      0.894496    78A      0.901141  
      79A      0.928111    80A      0.929816    81A      0.936443  
      82A      0.948820    83A      0.954324    84A      0.963967  
      85A      0.979056    86A      0.982215    87A      0.991171  
      88A      0.997670    89A      1.002748    90A      1.011170  
      91A      1.017236    92A      1.022231    93A      1.031928  
      94A      1.043387    95A      1.048604    96A      1.054868  
      97A      1.061834    98A      1.070701    99A      1.090805  
     100A      1.091523   101A      1.099045   102A      1.107567  
     103A      1.116924   104A      1.125103   105A      1.150607  
     106A      1.159484   107A      1.163232   108A      1.168148  
     109A      1.183022   110A      1.190099   111A      1.199965  
     112A      1.207896   113A      1.214688   114A      1.227424  
     115A      1.230764   116A      1.257352   117A      1.270216  
     118A      1.277635   119A      1.300627   120A      1.322605  
     121A      1.337307   122A      1.357442   123A      1.363768  
     124A      1.381423   125A      1.410303   126A      1.423536  
     127A      1.438756   128A      1.452914   129A      1.486300  
     130A      1.512284   131A      1.516906   132A      1.547860  
     133A      1.570278   134A      1.579615   135A      1.593493  
     136A      1.611781   137A      1.648412   138A      1.670320  
     139A      1.698227   140A      1.720486   141A      1.730350  
     142A      1.743973   143A      1.777524   144A      1.803501  
     145A      1.833807   146A      1.867985   147A      1.869508  
     148A      1.873098   149A      1.892362   150A      1.911241  
     151A      1.917146   152A      1.929724   153A      1.940947  
     154A      1.955666   155A      1.999957   156A      2.013458  
     157A      2.023773   158A      2.036322   159A      2.053732  
     160A      2.079592   161A      2.105278   162A      2.132276  
     163A      2.163892   164A      2.266649   165A      2.366130  
     166A      2.406194   167A      2.565049   168A      2.573519  
     169A      2.585930   170A      2.600184   171A      2.611729  
     172A      2.617240   173A      2.621636   174A      2.637095  
     175A      2.643710   176A      2.649058   177A      2.654186  
     178A      2.663403   179A      2.672477   180A      2.686399  
     181A      2.696006   182A      2.717530   183A      2.726132  
     184A      2.729111   185A      2.750547   186A      2.760814  
     187A      2.775498   188A      2.786910   189A      2.795738  
     190A      2.808539   191A      2.820571   192A      2.824292  
     193A      2.843223   194A      2.853694   195A      2.879773  
     196A      2.890037   197A      2.938691   198A      2.952306  
     199A      2.966414   200A      2.980067   201A      3.021409  
     202A      3.073060   203A      3.109490   204A      3.117826  
     205A      3.174706   206A      3.237206   207A      3.252394  
     208A      3.286545   209A      3.345474   210A      3.357038  
     211A      3.374600   212A      3.381314   213A      3.395978  
     214A      3.405542   215A      3.456543   216A      3.519113  
     217A      3.553348   218A      3.594111   219A      3.608181  
     220A      3.667923   221A      3.686271   222A      3.710866  
     223A      3.738707   224A      3.770894   225A      3.801293  
     226A      3.830919   227A      3.977570   228A      4.045056  
     229A      4.083465   230A      4.563069   231A      4.595348  
     232A      4.613301   233A      4.622510   234A      4.623649  
     235A      4.658755   236A      4.708455   237A      4.740579  
     238A      4.769773   239A      4.794872   240A      4.819305  
     241A      4.839071   242A      4.868471   243A      4.878960  
     244A      4.902462   245A      4.952351   246A      4.998696  
     247A      5.029936   248A      5.041898   249A      5.056249  
     250A      5.068259   251A      5.077300   252A      5.105800  
     253A      5.134193   254A      5.149983   255A      5.167162  
     256A      5.252285   257A      5.358783   258A      5.415435  
     259A      5.486462   260A      5.520835   261A      5.730974  
     262A      5.738782   263A      5.794049   264A      5.834617  
     265A      5.847412   266A      5.886431   267A      5.917015  
     268A      5.974615   269A      6.017956   270A      6.051872  
     271A      6.110457   272A      6.185050   273A      6.330870  
     274A      6.345357   275A      6.355860   276A      6.630601  
     277A      6.675053   278A      6.697961   279A      6.903087  
     280A      6.916942   281A      6.980089   282A      7.344363  
     283A      7.369339   284A      7.482647   285A      7.869011  
     286A      7.896254   287A      7.912141   288A      7.977559  
     289A      8.048528   290A      8.124115   291A      8.231571  
     292A      8.235622   293A      8.290112   294A      8.378275  
     295A      8.440699   296A      8.453137   297A      8.477866  
     298A      8.491587   299A      8.550938   300A      8.995635  
     301A      9.059584   302A      9.127616   303A      9.227193  
     304A      9.291499   305A      9.432445   306A      9.888071  
     307A      9.906239   308A      9.918611   309A     10.019650  
     310A     10.025610   311A     10.056833   312A     10.217626  
     313A     10.236228   314A     10.261929   315A     10.455341  
     316A     10.469692   317A     10.513001   318A     11.359830  
     319A     11.490594   320A     11.613312   321A     11.912250  
     322A     11.948699   323A     12.002724   324A     12.489916  
     325A     12.500502   326A     12.767845   327A     13.837102  
     328A     13.868499   329A     13.946123   330A     14.119653  
     331A     14.133357   332A     14.327124   333A     67.238205  
     334A     67.335522   335A     69.134306  

    Final Occupation by Irrep:
              A 
    DOCC [    18 ]
    NA   [    18 ]
    NB   [    18 ]

  @DF-RHF Final Energy: -2572.53370969621074

   => Energetics <=

    Nuclear Repulsion Energy =              0.0000000000000000
    One-Electron Energy =               -3593.6667466299968510
    Two-Electron Energy =                1021.1330369337862294
    Total Energy =                      -2572.5337096962107353

Computation Completed


Properties will be evaluated at   0.000000,   0.000000,   0.000000 [a0]

Properties computed using the SCF density matrix


 Multipole Moments:

 ------------------------------------------------------------------------------------
     Multipole            Electronic (a.u.)      Nuclear  (a.u.)        Total (a.u.)
 ------------------------------------------------------------------------------------

 L = 1.  Multiply by 2.5417464519 to convert [e a0] to [Debye]
 Dipole X            :          0.0002503            0.0000000            0.0002503
 Dipole Y            :         -0.0001910            0.0000000           -0.0001910
 Dipole Z            :         -0.0001709            0.0000000           -0.0001709
 Magnitude           :                                                    0.0003583

 ------------------------------------------------------------------------------------

*** tstop() called on moses-razer at Sun Jan  7 01:15:34 2024
Module time:
	user time   =      19.67 seconds =       0.33 minutes
	system time =       1.35 seconds =       0.02 minutes
	total time  =          6 seconds =       0.10 minutes
Total time:
	user time   =      46.41 seconds =       0.77 minutes
	system time =       2.96 seconds =       0.05 minutes
	total time  =         13 seconds =       0.22 minutes

*** tstart() called on moses-razer
*** at Sun Jan  7 01:15:34 2024


  //>>>>>>>>>>>>>>>>>>>>>>>>>>>>>>>>>>>//
  //               DFMP2               //
  //<<<<<<<<<<<<<<<<<<<<<<<<<<<<<<<<<<<//

   => Loading Basis Set <=

    Name: (AUG-CC-PVTZ AUX)
    Role: RIFIT
    Keyword: DF_BASIS_MP2
    atoms 1              entry BR         line  1248 file /home/kchung25/anaconda3/envs/p415env/share/psi4/basis/aug-cc-pvtz-ri.gbs 
    atoms 2, 5, 8        entry O          line   264 file /home/kchung25/anaconda3/envs/p415env/share/psi4/basis/aug-cc-pvtz-ri.gbs 
    atoms 3-4, 6-7, 9-10 entry H          line    30 file /home/kchung25/anaconda3/envs/p415env/share/psi4/basis/aug-cc-pvtz-ri.gbs 

	 --------------------------------------------------------
	                          DF-MP2                         
	      2nd-Order Density-Fitted Moller-Plesset Theory     
	              RMP2 Wavefunction,   6 Threads             
	                                                         
	        Rob Parrish, Justin Turney, Andy Simmonett,      
	           Ed Hohenstein, and C. David Sherrill          
	 --------------------------------------------------------

   => Auxiliary Basis Set <=

  Basis Set: (AUG-CC-PVTZ AUX)
    Blend: AUG-CC-PVTZ-RI
    Number of shells: 211
    Number of basis functions: 785
    Number of Cartesian functions: 999
    Spherical Harmonics?: true
    Max angular momentum: 5

	 --------------------------------------------------------
	                 NBF =   335, NAUX =   785
	 --------------------------------------------------------
	   CLASS    FOCC     OCC    AOCC    AVIR     VIR    FVIR
	   PAIRS       0      18      18     317     317       0
	 --------------------------------------------------------

	-----------------------------------------------------------
	 ==================> DF-MP2 Energies <==================== 
	-----------------------------------------------------------
	 Reference Energy          =   -2572.5337096962107353 [Eh]
	 Singles Energy            =      -0.0000000000000000 [Eh]
	 Same-Spin Energy          =      -0.0899011368813895 [Eh]
	 Opposite-Spin Energy      =      -0.2091504726680105 [Eh]
	 Correlation Energy        =      -0.2990516095494000 [Eh]
	 Total Energy              =   -2572.8327613057599592 [Eh]
	-----------------------------------------------------------
	 ================> DF-SCS-MP2 Energies <================== 
	-----------------------------------------------------------
	 SCS Same-Spin Scale       =       0.3333333333333333 [-]
	 SCS Opposite-Spin Scale   =       1.2000000000000000 [-]
	 SCS Same-Spin Energy      =      -0.0299670456271298 [Eh]
	 SCS Opposite-Spin Energy  =      -0.2509805672016126 [Eh]
	 SCS Correlation Energy    =      -0.2809476128287424 [Eh]
	 SCS Total Energy          =   -2572.8146573090393758 [Eh]
	-----------------------------------------------------------


*** tstop() called on moses-razer at Sun Jan  7 01:15:36 2024
Module time:
	user time   =       7.51 seconds =       0.13 minutes
	system time =       0.51 seconds =       0.01 minutes
	total time  =          2 seconds =       0.03 minutes
Total time:
	user time   =      53.93 seconds =       0.90 minutes
	system time =       3.48 seconds =       0.06 minutes
	total time  =         15 seconds =       0.25 minutes

    Psi4 stopped on: Sunday, 07 January 2024 01:15AM
    Psi4 wall time for execution: 0:00:08.06


    -----------------------------------------------------------------------
          Psi4: An Open-Source Ab Initio Electronic Structure Package
                               Psi4 1.9 release

                         Git: Rev {} zzzzzzz 


    D. G. A. Smith, L. A. Burns, A. C. Simmonett, R. M. Parrish,
    M. C. Schieber, R. Galvelis, P. Kraus, H. Kruse, R. Di Remigio,
    A. Alenaizan, A. M. James, S. Lehtola, J. P. Misiewicz, M. Scheurer,
    R. A. Shaw, J. B. Schriber, Y. Xie, Z. L. Glick, D. A. Sirianni,
    J. S. O'Brien, J. M. Waldrop, A. Kumar, E. G. Hohenstein,
    B. P. Pritchard, B. R. Brooks, H. F. Schaefer III, A. Yu. Sokolov,
    K. Patkowski, A. E. DePrince III, U. Bozkaya, R. A. King,
    F. A. Evangelista, J. M. Turney, T. D. Crawford, C. D. Sherrill,
    J. Chem. Phys. 152(18) 184108 (2020). https://doi.org/10.1063/5.0006002

                            Additional Code Authors
    E. T. Seidl, C. L. Janssen, E. F. Valeev, M. L. Leininger,
    J. F. Gonthier, R. M. Richard, H. R. McAlexander, M. Saitow, X. Wang,
    P. Verma, M. H. Lechner, A. Jiang, S. Behnle, A. G. Heide,
    M. F. Herbst, and D. L. Poole

             Previous Authors, Complete List of Code Contributors,
                       and Citations for Specific Modules
    https://github.com/psi4/psi4/blob/master/codemeta.json
    https://github.com/psi4/psi4/graphs/contributors
    http://psicode.org/psi4manual/master/introduction.html#citing-psifour

    -----------------------------------------------------------------------


    Psi4 started on: Sunday, 07 January 2024 01:15AM

    Process ID: 563493
    Host:       moses-razer
    PSIDATADIR: /home/kchung25/anaconda3/envs/psi4_19/share/psi4
    Memory:     55.9 GiB
    Threads:    6
    
  ==> Input QCSchema <==

--------------------------------------------------------------------------
{'driver': 'energy',
 'extras': {'psiapi': True, 'wfn_qcvars_only': True},
 'id': None,
 'keywords': {'SCF_TYPE': 'DF', 'function_kwargs': {}},
 'model': {'basis': 'aug-cc-pvtz', 'method': 'mp2'},
 'molecule': {'atom_labels': ['', '', '', '', '', '', '', '', '', ''],
              'atomic_numbers': [35, 8, 1, 1, 8, 1, 1, 8, 1, 1],
              'extras': {},
              'fix_com': True,
              'fix_orientation': True,
              'fix_symmetry': 'c1',
              'fragment_charges': [-1.0, 0.0],
              'fragment_multiplicities': [1, 1],
              'fragments': [[0], [1, 2, 3, 4, 5, 6, 7, 8, 9]],
              'geometry': [0.0, 0.0, 0.0, -1.8878779733071303, -5.063774376465062, -3.2579124067289267,
                           -1.2825911364184863, -3.850250840205934, -2.213001573739899, -3.523503965031397,
                           -5.305784042447944, -2.5596397061110046, 4.877086442804958, -3.395524152910891,
                           -2.457135291887796, 4.619114260240333, -5.1736430533991795, -2.0458118342422686,
                           3.750361806940359, -2.442867859640589, -1.512385612726409, 1.354277896987729,
                           -3.856759056982011, 4.53782958067989, 1.1461755868739365, -2.9565237664319084,
                           2.9703943561927693, 0.6057309225281268, -2.8122072719568196, 5.749998183307065],
              'mass_numbers': [79, 16, 1, 1, 16, 1, 1, 16, 1, 1],
              'masses': [78.9183376, 15.99491461957, 1.00782503223, 1.00782503223, 15.99491461957, 1.00782503223,
                         1.00782503223, 15.99491461957, 1.00782503223, 1.00782503223],
              'molecular_charge': -1.0,
              'molecular_multiplicity': 1,
              'name': 'dimer',
              'provenance': {'creator': 'QCElemental',
                             'routine': 'qcelemental.molparse.from_string',
                             'version': '0.27.1'},
              'real': [True, True, True, True, True, True, True, True, True, True],
              'schema_name': 'qcschema_molecule',
              'schema_version': 2,
              'symbols': ['Br', 'O', 'H', 'H', 'O', 'H', 'H', 'O', 'H', 'H'],
              'validated': True},
 'protocols': {'stdout': True},
 'provenance': {'creator': 'QCElemental', 'routine': 'qcelemental.models.results', 'version': '0.27.1'},
 'schema_name': 'qcschema_input',
 'schema_version': 1}
--------------------------------------------------------------------------

Scratch directory: /scratch/
   => Libint2 <=

    Primary   basis highest AM E, G, H:  5, 4, 3
    Auxiliary basis highest AM E, G, H:  6, 5, 4
    Onebody   basis highest AM E, G, H:  6, 5, 4
    Solid Harmonics ordering:            gaussian

*** tstart() called on moses-razer
*** at Sun Jan  7 01:15:36 2024

   => Loading Basis Set <=

    Name: AUG-CC-PVTZ
    Role: ORBITAL
    Keyword: BASIS
    atoms 1              entry BR         line  4564 file /home/kchung25/anaconda3/envs/p415env/share/psi4/basis/aug-cc-pvtz.gbs 
    atoms 2, 5, 8        entry O          line   331 file /home/kchung25/anaconda3/envs/p415env/share/psi4/basis/aug-cc-pvtz.gbs 
    atoms 3-4, 6-7, 9-10 entry H          line    40 file /home/kchung25/anaconda3/envs/p415env/share/psi4/basis/aug-cc-pvtz.gbs 


         ---------------------------------------------------------
                                   SCF
               by Justin Turney, Rob Parrish, Andy Simmonett
                          and Daniel G. A. Smith
                              RHF Reference
                        6 Threads,  57220 MiB Core
         ---------------------------------------------------------

  ==> Geometry <==

    Molecular point group: c1
    Full point group: C1

    Geometry (in Bohr), charge = -1, multiplicity = 1:

       Center              X                  Y                   Z               Mass       
    ------------   -----------------  -----------------  -----------------  -----------------
         BR           0.000000000000     0.000000000000     0.000000000000    78.918337600000
         O           -1.887877973307    -5.063774376465    -3.257912406729    15.994914619570
         H           -1.282591136418    -3.850250840206    -2.213001573740     1.007825032230
         H           -3.523503965031    -5.305784042448    -2.559639706111     1.007825032230
         O            4.877086442805    -3.395524152911    -2.457135291888    15.994914619570
         H            4.619114260240    -5.173643053399    -2.045811834242     1.007825032230
         H            3.750361806940    -2.442867859641    -1.512385612726     1.007825032230
         O            1.354277896988    -3.856759056982     4.537829580680    15.994914619570
         H            1.146175586874    -2.956523766432     2.970394356193     1.007825032230
         H            0.605730922528    -2.812207271957     5.749998183307     1.007825032230

  Running in c1 symmetry.

  Rotational constants: A =      0.05728  B =      0.04115  C =      0.03571 [cm^-1]
  Rotational constants: A =   1717.18074  B =   1233.75427  C =   1070.45797 [MHz]
  Nuclear repulsion =  239.683774630027159

  Charge       = -1
  Multiplicity = 1
  Electrons    = 66
  Nalpha       = 33
  Nbeta        = 33

  ==> Algorithm <==

  SCF Algorithm Type is DF.
  DIIS enabled.
  MOM disabled.
  Fractional occupation disabled.
  Guess Type is SAD.
  Energy threshold   = 1.00e-08
  Density threshold  = 1.00e-08
  Integral threshold = 1.00e-12

  ==> Primary Basis <==

  Basis Set: AUG-CC-PVTZ
    Blend: AUG-CC-PVTZ
    Number of shells: 115
    Number of basis functions: 335
    Number of Cartesian functions: 384
    Spherical Harmonics?: true
    Max angular momentum: 3

   => Loading Basis Set <=

    Name: (AUG-CC-PVTZ AUX)
    Role: JKFIT
    Keyword: DF_BASIS_SCF
    atoms 1              entry BR         line  1492 file /home/kchung25/anaconda3/envs/p415env/share/psi4/basis/aug-cc-pvtz-jkfit.gbs 
    atoms 2, 5, 8        entry O          line   286 file /home/kchung25/anaconda3/envs/p415env/share/psi4/basis/aug-cc-pvtz-jkfit.gbs 
    atoms 3-4, 6-7, 9-10 entry H          line    70 file /home/kchung25/anaconda3/envs/p415env/share/psi4/basis/aug-cc-pvtz-jkfit.gbs 

  ==> Integral Setup <==

  DFHelper Memory: AOs need 0.691 GiB; user supplied 41.910 GiB. 
  Using in-core AOs.

  ==> MemDFJK: Density-Fitted J/K Matrices <==

    J tasked:                   Yes
    K tasked:                   Yes
    wK tasked:                   No
    OpenMP threads:               6
    Memory [MiB]:             42915
    Algorithm:                 Core
    Schwarz Cutoff:           1E-12
    Mask sparsity (%):       5.7866
    Fitting Condition:        1E-10

   => Auxiliary Basis Set <=

  Basis Set: (AUG-CC-PVTZ AUX)
    Blend: AUG-CC-PVTZ-JKFIT
    Number of shells: 232
    Number of basis functions: 836
    Number of Cartesian functions: 1052
    Spherical Harmonics?: true
    Max angular momentum: 4

  Minimum eigenvalue in the overlap matrix is 1.5792678103E-04.
  Reciprocal condition number of the overlap matrix is 1.4713465488E-05.
    Using symmetric orthogonalization.

  ==> Pre-Iterations <==

  SCF Guess: Superposition of Atomic Densities via on-the-fly atomic UHF (no occupation information).

   -------------------------
    Irrep   Nso     Nmo    
   -------------------------
     A        335     335 
   -------------------------
    Total     335     335
   -------------------------

  ==> Iterations <==

                           Total Energy        Delta E     RMS |[F,P]|

   @DF-RHF iter SAD: -2797.13392861771490   -2.79713e+03   0.00000e+00 
   @DF-RHF iter   1: -2800.27927969329039   -3.14535e+00   3.91608e-03 ADIIS/DIIS
   @DF-RHF iter   2: -2800.61387507506288   -3.34595e-01   2.23699e-03 ADIIS/DIIS
   @DF-RHF iter   3: -2800.74594873328397   -1.32074e-01   1.60121e-04 ADIIS/DIIS
   @DF-RHF iter   4: -2800.74736458734105   -1.41585e-03   7.90849e-05 DIIS
   @DF-RHF iter   5: -2800.74765187542971   -2.87288e-04   1.12890e-05 DIIS
   @DF-RHF iter   6: -2800.74766903504360   -1.71596e-05   2.72719e-06 DIIS
   @DF-RHF iter   7: -2800.74767022496189   -1.18992e-06   8.10674e-07 DIIS
   @DF-RHF iter   8: -2800.74767031007786   -8.51160e-08   3.45634e-07 DIIS
   @DF-RHF iter   9: -2800.74767031935698   -9.27912e-09   6.78521e-08 DIIS
   @DF-RHF iter  10: -2800.74767031992815   -5.71163e-10   1.45343e-08 DIIS
   @DF-RHF iter  11: -2800.74767031994725   -1.90994e-11   4.49705e-09 DIIS
  Energy and wave function converged.


  ==> Post-Iterations <==

    Orbital Energies [Eh]
    ---------------------

    Doubly Occupied:                                                      

       1A   -489.770915     2A    -64.911354     3A    -58.265853  
       4A    -58.265835     5A    -58.265809     6A    -20.407029  
       7A    -20.403606     8A    -20.401340     9A     -9.583800  
      10A     -7.191443    11A     -7.191218    12A     -7.191140  
      13A     -2.933072    14A     -2.933016    15A     -2.932896  
      16A     -2.932651    17A     -2.932638    18A     -1.218844  
      19A     -1.198865    20A     -1.195942    21A     -0.748885  
      22A     -0.572770    23A     -0.570860    24A     -0.564713  
      25A     -0.449075    26A     -0.433705    27A     -0.424349  
      28A     -0.361560    29A     -0.353239    30A     -0.351857  
      31A     -0.200060    32A     -0.195827    33A     -0.194909  

    Virtual:                                                              

      34A      0.123221    35A      0.132921    36A      0.141953  
      37A      0.168742    38A      0.181531    39A      0.186425  
      40A      0.216364    41A      0.240649    42A      0.246523  
      43A      0.267669    44A      0.270061    45A      0.276001  
      46A      0.282363    47A      0.296380    48A      0.300735  
      49A      0.308480    50A      0.323407    51A      0.332707  
      52A      0.339769    53A      0.346986    54A      0.366707  
      55A      0.367470    56A      0.388177    57A      0.394873  
      58A      0.412144    59A      0.417784    60A      0.426570  
      61A      0.435648    62A      0.443780    63A      0.457729  
      64A      0.464204    65A      0.495240    66A      0.503227  
      67A      0.505743    68A      0.517503    69A      0.524679  
      70A      0.541851    71A      0.569562    72A      0.572548  
      73A      0.577626    74A      0.583513    75A      0.584998  
      76A      0.598074    77A      0.604815    78A      0.609064  
      79A      0.636606    80A      0.652926    81A      0.677535  
      82A      0.701814    83A      0.721628    84A      0.739376  
      85A      0.788466    86A      0.811350    87A      0.815689  
      88A      0.830930    89A      0.839020    90A      0.855834  
      91A      0.859255    92A      0.870959    93A      0.871990  
      94A      0.879996    95A      0.886955    96A      0.891265  
      97A      0.904005    98A      0.906532    99A      0.911699  
     100A      0.931680   101A      0.936484   102A      0.946014  
     103A      0.962491   104A      0.977734   105A      0.984025  
     106A      1.005874   107A      1.011285   108A      1.040438  
     109A      1.045100   110A      1.058429   111A      1.067603  
     112A      1.072751   113A      1.083745   114A      1.087387  
     115A      1.098056   116A      1.104113   117A      1.109121  
     118A      1.123467   119A      1.127595   120A      1.132983  
     121A      1.140626   122A      1.143570   123A      1.160300  
     124A      1.174796   125A      1.180505   126A      1.187467  
     127A      1.196958   128A      1.210342   129A      1.217525  
     130A      1.220182   131A      1.254605   132A      1.271260  
     133A      1.280229   134A      1.290335   135A      1.319734  
     136A      1.328563   137A      1.341604   138A      1.348083  
     139A      1.370619   140A      1.381308   141A      1.401707  
     142A      1.409700   143A      1.421127   144A      1.433130  
     145A      1.444867   146A      1.474081   147A      1.487466  
     148A      1.511839   149A      1.528768   150A      1.535950  
     151A      1.558763   152A      1.601488   153A      1.632042  
     154A      1.657802   155A      1.674443   156A      1.678890  
     157A      1.684640   158A      1.699573   159A      1.701748  
     160A      1.711489   161A      1.727546   162A      1.747131  
     163A      1.784923   164A      1.802792   165A      1.831052  
     166A      1.860423   167A      1.882032   168A      1.908046  
     169A      1.927407   170A      2.022136   171A      2.035457  
     172A      2.056444   173A      2.065762   174A      2.113889  
     175A      2.158231   176A      2.186330   177A      2.200085  
     178A      2.229067   179A      2.410479   180A      2.431348  
     181A      2.444328   182A      2.462430   183A      2.470585  
     184A      2.490698   185A      2.498626   186A      2.508281  
     187A      2.513720   188A      2.527439   189A      2.561398  
     190A      2.565387   191A      2.570522   192A      2.590564  
     193A      2.593130   194A      2.602863   195A      2.614514  
     196A      2.625727   197A      2.636557   198A      2.638676  
     199A      2.647954   200A      2.670173   201A      2.677751  
     202A      2.682618   203A      2.696187   204A      2.709383  
     205A      2.724654   206A      2.732547   207A      2.752077  
     208A      2.759216   209A      2.812380   210A      2.821585  
     211A      2.841203   212A      2.864099   213A      2.883237  
     214A      2.887183   215A      2.924428   216A      2.934787  
     217A      2.939919   218A      2.964680   219A      2.982911  
     220A      3.009215   221A      3.026646   222A      3.056439  
     223A      3.078065   224A      3.121127   225A      3.136465  
     226A      3.166157   227A      3.185246   228A      3.194901  
     229A      3.215706   230A      3.234544   231A      3.251015  
     232A      3.332535   233A      3.866769   234A      3.916177  
     235A      3.943084   236A      4.115500   237A      4.149598  
     238A      4.167029   239A      4.233481   240A      4.253789  
     241A      4.271416   242A      4.357462   243A      4.375996  
     244A      4.398264   245A      4.418935   246A      4.432949  
     247A      4.452132   248A      4.457516   249A      4.472501  
     250A      4.481938   251A      4.512154   252A      4.514909  
     253A      4.550985   254A      4.566059   255A      4.571934  
     256A      4.581173   257A      4.596448   258A      4.616468  
     259A      4.630542   260A      4.640939   261A      4.679836  
     262A      4.683907   263A      4.714574   264A      4.780788  
     265A      4.834181   266A      4.939179   267A      4.973625  
     268A      5.003010   269A      5.104626   270A      5.146364  
     271A      5.205213   272A      5.283329   273A      5.339089  
     274A      5.351783   275A      5.370882   276A      5.396371  
     277A      5.412846   278A      5.433222   279A      5.512680  
     280A      5.520066   281A      5.544869   282A      5.625134  
     283A      5.654559   284A      5.725015   285A      5.732930  
     286A      5.765730   287A      5.824270   288A      5.910802  
     289A      5.941095   290A      5.980700   291A      6.391857  
     292A      6.415178   293A      6.477952   294A      6.690848  
     295A      6.718176   296A      6.725466   297A      6.918165  
     298A      6.945095   299A      6.971203   300A      7.074831  
     301A      7.149352   302A      7.260182   303A      7.309031  
     304A      7.322765   305A      7.348508   306A      7.438848  
     307A      7.454246   308A      7.475629   309A      7.490486  
     310A      7.506658   311A      7.523858   312A      7.534828  
     313A      7.541649   314A      7.552180   315A      7.570892  
     316A      7.604777   317A      7.608568   318A      7.627279  
     319A      7.658508   320A      7.692302   321A      7.943111  
     322A      7.946685   323A      7.968916   324A      8.125738  
     325A      8.129271   326A      8.151460   327A      8.204207  
     328A      8.234732   329A      8.333052   330A      9.000056  
     331A      9.069279   332A      9.183566   333A     17.122273  
     334A     17.153467   335A     18.093930  

    Final Occupation by Irrep:
              A 
    DOCC [    33 ]
    NA   [    33 ]
    NB   [    33 ]

  @DF-RHF Final Energy: -2800.74767031994725

   => Energetics <=

    Nuclear Repulsion Energy =            239.6837746300271590
    One-Electron Energy =               -4389.7647344472770783
    Two-Electron Energy =                1349.3332894973027578
    Total Energy =                      -2800.7476703199472468

Computation Completed


Properties will be evaluated at   0.000000,   0.000000,   0.000000 [a0]

Properties computed using the SCF density matrix


 Multipole Moments:

 ------------------------------------------------------------------------------------
     Multipole            Electronic (a.u.)      Nuclear  (a.u.)        Total (a.u.)
 ------------------------------------------------------------------------------------

 L = 1.  Multiply by 2.5417464519 to convert [e a0] to [Debye]
 Dipole X            :        -41.4524880           40.0631784           -1.3893096
 Dipole Y            :        122.5689054         -121.0697375            1.4991679
 Dipole Z            :          9.8720904           -9.0281911            0.8438992
 Magnitude           :                                                    2.2113008

 ------------------------------------------------------------------------------------

*** tstop() called on moses-razer at Sun Jan  7 01:15:42 2024
Module time:
	user time   =      24.20 seconds =       0.40 minutes
	system time =       1.44 seconds =       0.02 minutes
	total time  =          6 seconds =       0.10 minutes
Total time:
	user time   =      78.46 seconds =       1.31 minutes
	system time =       4.92 seconds =       0.08 minutes
	total time  =         21 seconds =       0.35 minutes

*** tstart() called on moses-razer
*** at Sun Jan  7 01:15:42 2024


  //>>>>>>>>>>>>>>>>>>>>>>>>>>>>>>>>>>>//
  //               DFMP2               //
  //<<<<<<<<<<<<<<<<<<<<<<<<<<<<<<<<<<<//

   => Loading Basis Set <=

    Name: (AUG-CC-PVTZ AUX)
    Role: RIFIT
    Keyword: DF_BASIS_MP2
    atoms 1              entry BR         line  1248 file /home/kchung25/anaconda3/envs/p415env/share/psi4/basis/aug-cc-pvtz-ri.gbs 
    atoms 2, 5, 8        entry O          line   264 file /home/kchung25/anaconda3/envs/p415env/share/psi4/basis/aug-cc-pvtz-ri.gbs 
    atoms 3-4, 6-7, 9-10 entry H          line    30 file /home/kchung25/anaconda3/envs/p415env/share/psi4/basis/aug-cc-pvtz-ri.gbs 

	 --------------------------------------------------------
	                          DF-MP2                         
	      2nd-Order Density-Fitted Moller-Plesset Theory     
	              RMP2 Wavefunction,   6 Threads             
	                                                         
	        Rob Parrish, Justin Turney, Andy Simmonett,      
	           Ed Hohenstein, and C. David Sherrill          
	 --------------------------------------------------------

   => Auxiliary Basis Set <=

  Basis Set: (AUG-CC-PVTZ AUX)
    Blend: AUG-CC-PVTZ-RI
    Number of shells: 211
    Number of basis functions: 785
    Number of Cartesian functions: 999
    Spherical Harmonics?: true
    Max angular momentum: 5

	 --------------------------------------------------------
	                 NBF =   335, NAUX =   785
	 --------------------------------------------------------
	   CLASS    FOCC     OCC    AOCC    AVIR     VIR    FVIR
	   PAIRS       0      33      33     302     302       0
	 --------------------------------------------------------

	-----------------------------------------------------------
	 ==================> DF-MP2 Energies <==================== 
	-----------------------------------------------------------
	 Reference Energy          =   -2800.7476703199472468 [Eh]
	 Singles Energy            =      -0.0000000000000000 [Eh]
	 Same-Spin Energy          =      -0.3013292299394122 [Eh]
	 Opposite-Spin Energy      =      -0.8600482116306902 [Eh]
	 Correlation Energy        =      -1.1613774415701026 [Eh]
	 Total Energy              =   -2801.9090477615172858 [Eh]
	-----------------------------------------------------------
	 ================> DF-SCS-MP2 Energies <================== 
	-----------------------------------------------------------
	 SCS Same-Spin Scale       =       0.3333333333333333 [-]
	 SCS Opposite-Spin Scale   =       1.2000000000000000 [-]
	 SCS Same-Spin Energy      =      -0.1004430766464707 [Eh]
	 SCS Opposite-Spin Energy  =      -1.0320578539568281 [Eh]
	 SCS Correlation Energy    =      -1.1325009306032989 [Eh]
	 SCS Total Energy          =   -2801.8801712505505748 [Eh]
	-----------------------------------------------------------


*** tstop() called on moses-razer at Sun Jan  7 01:15:46 2024
Module time:
	user time   =       9.80 seconds =       0.16 minutes
	system time =       0.57 seconds =       0.01 minutes
	total time  =          4 seconds =       0.07 minutes
Total time:
	user time   =      88.26 seconds =       1.47 minutes
	system time =       5.49 seconds =       0.09 minutes
	total time  =         25 seconds =       0.42 minutes

    Psi4 stopped on: Sunday, 07 January 2024 01:15AM
    Psi4 wall time for execution: 0:00:09.22


  //>>>>>>>>>>>>>>>>>>>>>>>>>>>>>>>>>>>//
  //          ManyBody Results         //
  //<<<<<<<<<<<<<<<<<<<<<<<<<<<<<<<<<<<//


   ==> N-Body: Counterpoise Corrected (CP) energies <==

        n-Body     Total Energy            Interaction Energy                          N-body Contribution to Interaction Energy
                   [Eh]                    [Eh]                  [kcal/mol]            [Eh]                  [kcal/mol]
             1  N/A                         0.000000000000        0.000000000000        0.000000000000        0.000000000000
  FULL/RTN   2  N/A                        -0.050480248439      -31.676834134001       -0.050480248439      -31.676834134001


    Psi4 stopped on: Sunday, 07 January 2024 01:15AM
    Psi4 wall time for execution: 0:00:26.44

*** Psi4 exiting successfully. Buy a developer a beer!
