
    -----------------------------------------------------------------------
          Psi4: An Open-Source Ab Initio Electronic Structure Package
                               Psi4 1.8.2 release

                         Git: Rev {} zzzzzzz 


    D. G. A. Smith, L. A. Burns, A. C. Simmonett, R. M. Parrish,
    M. C. Schieber, R. Galvelis, P. Kraus, H. Kruse, R. Di Remigio,
    A. Alenaizan, A. M. James, S. Lehtola, J. P. Misiewicz, M. Scheurer,
    R. A. Shaw, J. B. Schriber, Y. Xie, Z. L. Glick, D. A. Sirianni,
    J. S. O'Brien, J. M. Waldrop, A. Kumar, E. G. Hohenstein,
    B. P. Pritchard, B. R. Brooks, H. F. Schaefer III, A. Yu. Sokolov,
    K. Patkowski, A. E. DePrince III, U. Bozkaya, R. A. King,
    F. A. Evangelista, J. M. Turney, T. D. Crawford, C. D. Sherrill,
    J. Chem. Phys. 152(18) 184108 (2020). https://doi.org/10.1063/5.0006002

                            Additional Code Authors
    E. T. Seidl, C. L. Janssen, E. F. Valeev, M. L. Leininger,
    J. F. Gonthier, R. M. Richard, H. R. McAlexander, M. Saitow, X. Wang,
    P. Verma, M. H. Lechner, A. Jiang, S. Behnle, A. G. Heide,
    M. F. Herbst, and D. L. Poole

             Previous Authors, Complete List of Code Contributors,
                       and Citations for Specific Modules
    https://github.com/psi4/psi4/blob/master/codemeta.json
    https://github.com/psi4/psi4/graphs/contributors
    http://psicode.org/psi4manual/master/introduction.html#citing-psifour

    -----------------------------------------------------------------------


    Psi4 started on: Monday, 22 January 2024 10:56PM

    Process ID: 115111
    Host:       ddmfs1
    PSIDATADIR: /ddmfs1b/softs/psi4conda/share/psi4
    Memory:     500.0 MiB
    Threads:    20
    
  ==> Input File <==

--------------------------------------------------------------------------
MEMORY 60 GB

molecule dimer {
-1 1
Br         0.000000     0.000000     0.000000
Gh(O)      1.048984    -1.751826     2.468714
Gh(H)      0.346226    -1.574453     3.123380
Gh(H)      0.851106    -1.311539     1.644549
Gh(O)     -2.820287    -2.108900     0.576548
Gh(H)     -2.511233    -1.229356     0.357885
Gh(H)     -2.113463    -2.779649     0.548949
Gh(O)      3.567175    -0.231884     0.328854
Gh(H)      2.744073    -0.227220     0.878728
Gh(H)      4.212940     0.263403     0.897667
Gh(O)     -3.465849     0.836464    -0.133478
Gh(H)     -3.736443     0.132471    -0.710973
Gh(H)     -3.073107     1.425776    -0.768412
Gh(O)     -0.059575     2.949979    -1.773779
Gh(H)      0.033635     2.297669    -1.066174
Gh(H)     -0.868960     2.765295    -2.220305

units ang
no_reorient
no_com
symmetry c1
}

set {
basis        aug-cc-pVTZ
scf_type     df
}

energy("mp2")
--------------------------------------------------------------------------

  Memory set to  55.879 GiB by Python driver.

Scratch directory: /ddmfs1a/scratch/
   => Libint2 <=

    Primary   basis highest AM E, G, H:  5, 4, 3
    Auxiliary basis highest AM E, G, H:  6, 5, 4
    Onebody   basis highest AM E, G, H:  6, 5, 4
    Solid Harmonics ordering:            gaussian

*** tstart() called on ddmfs1
*** at Mon Jan 22 22:56:10 2024

   => Loading Basis Set <=

    Name: AUG-CC-PVTZ
    Role: ORBITAL
    Keyword: BASIS
    atoms 1                            entry BR         line  4208 file /ddmfs1b/softs/psi4conda/share/psi4/basis/aug-cc-pvtz.gbs 
    atoms 2, 5, 8, 11, 14              entry O          line   331 file /ddmfs1b/softs/psi4conda/share/psi4/basis/aug-cc-pvtz.gbs 
    atoms 3-4, 6-7, 9-10, 12-13, 15-16 entry H          line    40 file /ddmfs1b/softs/psi4conda/share/psi4/basis/aug-cc-pvtz.gbs 


         ---------------------------------------------------------
                                   SCF
               by Justin Turney, Rob Parrish, Andy Simmonett
                          and Daniel G. A. Smith
                              RHF Reference
                       20 Threads,  57220 MiB Core
         ---------------------------------------------------------

  ==> Geometry <==

    Molecular point group: c1
    Full point group: C1

    Geometry (in Angstrom), charge = -1, multiplicity = 1:

       Center              X                  Y                   Z               Mass       
    ------------   -----------------  -----------------  -----------------  -----------------
         BR           0.000000000000     0.000000000000     0.000000000000    78.918337600000
      Gh(O)           1.048984000000    -1.751826000000     2.468714000000    15.994914619570
      Gh(H)           0.346226000000    -1.574453000000     3.123380000000     1.007825032230
      Gh(H)           0.851106000000    -1.311539000000     1.644549000000     1.007825032230
      Gh(O)          -2.820287000000    -2.108900000000     0.576548000000    15.994914619570
      Gh(H)          -2.511233000000    -1.229356000000     0.357885000000     1.007825032230
      Gh(H)          -2.113463000000    -2.779649000000     0.548949000000     1.007825032230
      Gh(O)           3.567175000000    -0.231884000000     0.328854000000    15.994914619570
      Gh(H)           2.744073000000    -0.227220000000     0.878728000000     1.007825032230
      Gh(H)           4.212940000000     0.263403000000     0.897667000000     1.007825032230
      Gh(O)          -3.465849000000     0.836464000000    -0.133478000000    15.994914619570
      Gh(H)          -3.736443000000     0.132471000000    -0.710973000000     1.007825032230
      Gh(H)          -3.073107000000     1.425776000000    -0.768412000000     1.007825032230
      Gh(O)          -0.059575000000     2.949979000000    -1.773779000000    15.994914619570
      Gh(H)           0.033635000000     2.297669000000    -1.066174000000     1.007825032230
      Gh(H)          -0.868960000000     2.765295000000    -2.220305000000     1.007825032230

  Running in c1 symmetry.

  Rotational constants: A =      0.03605  B =      0.02625  C =      0.01608 [cm^-1]
  Rotational constants: A =   1080.66833  B =    786.84659  C =    481.98000 [MHz]
  Nuclear repulsion =    0.000000000000000

  Charge       = -1
  Multiplicity = 1
  Electrons    = 36
  Nalpha       = 18
  Nbeta        = 18

  ==> Algorithm <==

  SCF Algorithm Type is DF.
  DIIS enabled.
  MOM disabled.
  Fractional occupation disabled.
  Guess Type is SAD.
  Energy threshold   = 1.00e-08
  Density threshold  = 1.00e-08
  Integral threshold = 1.00e-12

  ==> Primary Basis <==

  Basis Set: AUG-CC-PVTZ
    Blend: AUG-CC-PVTZ
    Number of shells: 179
    Number of basis functions: 519
    Number of Cartesian functions: 594
    Spherical Harmonics?: true
    Max angular momentum: 3

   => Loading Basis Set <=

    Name: (AUG-CC-PVTZ AUX)
    Role: JKFIT
    Keyword: DF_BASIS_SCF
    atoms 1                            entry BR         line  1492 file /ddmfs1b/softs/psi4conda/share/psi4/basis/aug-cc-pvtz-jkfit.gbs 
    atoms 2, 5, 8, 11, 14              entry O          line   286 file /ddmfs1b/softs/psi4conda/share/psi4/basis/aug-cc-pvtz-jkfit.gbs 
    atoms 3-4, 6-7, 9-10, 12-13, 15-16 entry H          line    70 file /ddmfs1b/softs/psi4conda/share/psi4/basis/aug-cc-pvtz-jkfit.gbs 

  ==> Integral Setup <==

  DFHelper Memory: AOs need 2.139 GiB; user supplied 41.910 GiB. 
  Using in-core AOs.

  ==> MemDFJK: Density-Fitted J/K Matrices <==

    J tasked:                   Yes
    K tasked:                   Yes
    wK tasked:                   No
    OpenMP threads:              20
    Memory [MiB]:             42915
    Algorithm:                 Core
    Schwarz Cutoff:           1E-12
    Mask sparsity (%):      17.5066
    Fitting Condition:        1E-10

   => Auxiliary Basis Set <=

  Basis Set: (AUG-CC-PVTZ AUX)
    Blend: AUG-CC-PVTZ-JKFIT
    Number of shells: 348
    Number of basis functions: 1228
    Number of Cartesian functions: 1534
    Spherical Harmonics?: true
    Max angular momentum: 4

  Minimum eigenvalue in the overlap matrix is 1.8305471753E-04.
  Reciprocal condition number of the overlap matrix is 1.6519849124E-05.
    Using symmetric orthogonalization.

  ==> Pre-Iterations <==

  SCF Guess: Superposition of Atomic Densities via on-the-fly atomic UHF (no occupation information).

   -------------------------
    Irrep   Nso     Nmo    
   -------------------------
     A        519     519 
   -------------------------
    Total     519     519
   -------------------------

  ==> Iterations <==

                           Total Energy        Delta E     RMS |[F,P]|

   @DF-RHF iter SAD: -2570.41423558364204   -2.57041e+03   0.00000e+00 
   @DF-RHF iter   1: -2572.25278711481224   -1.83855e+00   2.07543e-03 DIIS/ADIIS
   @DF-RHF iter   2: -2572.46262532796436   -2.09838e-01   1.16008e-03 DIIS/ADIIS
   @DF-RHF iter   3: -2572.53368050526979   -7.10552e-02   1.61480e-05 DIIS
   @DF-RHF iter   4: -2572.53371461611960   -3.41108e-05   2.36742e-06 DIIS
   @DF-RHF iter   5: -2572.53371640932164   -1.79320e-06   6.24718e-07 DIIS
   @DF-RHF iter   6: -2572.53371653515615   -1.25835e-07   1.27363e-07 DIIS
   @DF-RHF iter   7: -2572.53371655267165   -1.75155e-08   8.53685e-09 DIIS
   @DF-RHF iter   8: -2572.53371655272213   -5.04770e-11   1.52570e-09 DIIS
  Energy and wave function converged.


  ==> Post-Iterations <==

    Orbital Energies [Eh]
    ---------------------

    Doubly Occupied:                                                      

       1A   -489.721697     2A    -64.861429     3A    -58.215949  
       4A    -58.215946     5A    -58.215944     6A     -9.533170  
       7A     -7.140525     8A     -7.140503     9A     -7.140484  
      10A     -2.882211    11A     -2.882202    12A     -2.882189  
      13A     -2.882188    14A     -2.882171    15A     -0.685990  
      16A     -0.139336    17A     -0.139334    18A     -0.139328  

    Virtual:                                                              

      19A      0.118259    20A      0.122176    21A      0.129739  
      22A      0.136962    23A      0.142852    24A      0.156623  
      25A      0.159619    26A      0.169487    27A      0.176990  
      28A      0.194514    29A      0.227396    30A      0.237997  
      31A      0.243297    32A      0.244584    33A      0.247657  
      34A      0.251036    35A      0.261528    36A      0.265885  
      37A      0.270010    38A      0.273022    39A      0.279328  
      40A      0.287327    41A      0.290656    42A      0.297500  
      43A      0.306091    44A      0.309096    45A      0.313636  
      46A      0.317575    47A      0.324204    48A      0.337704  
      49A      0.346618    50A      0.353832    51A      0.368054  
      52A      0.378199    53A      0.386923    54A      0.407952  
      55A      0.410662    56A      0.416130    57A      0.421530  
      58A      0.438987    59A      0.439872    60A      0.444978  
      61A      0.450434    62A      0.457140    63A      0.461246  
      64A      0.467719    65A      0.480591    66A      0.489030  
      67A      0.492742    68A      0.497094    69A      0.501866  
      70A      0.505369    71A      0.512375    72A      0.515430  
      73A      0.520235    74A      0.525123    75A      0.529922  
      76A      0.530413    77A      0.538774    78A      0.546505  
      79A      0.557648    80A      0.562762    81A      0.577094  
      82A      0.593680    83A      0.600672    84A      0.605213  
      85A      0.619255    86A      0.623230    87A      0.627514  
      88A      0.633957    89A      0.644071    90A      0.653446  
      91A      0.666979    92A      0.670277    93A      0.677459  
      94A      0.704212    95A      0.723938    96A      0.733593  
      97A      0.768223    98A      0.773762    99A      0.801964  
     100A      0.824633   101A      0.832216   102A      0.839977  
     103A      0.847165   104A      0.849845   105A      0.871888  
     106A      0.877760   107A      0.887410   108A      0.896345  
     109A      0.905920   110A      0.915838   111A      0.917272  
     112A      0.928046   113A      0.932445   114A      0.940341  
     115A      0.947609   116A      0.949845   117A      0.952652  
     118A      0.958168   119A      0.962743   120A      0.972424  
     121A      0.975765   122A      0.981129   123A      0.988259  
     124A      0.990858   125A      0.999962   126A      1.002868  
     127A      1.008595   128A      1.014547   129A      1.016912  
     130A      1.025834   131A      1.034256   132A      1.034594  
     133A      1.040757   134A      1.045511   135A      1.052151  
     136A      1.054568   137A      1.065959   138A      1.068511  
     139A      1.071234   140A      1.076231   141A      1.085496  
     142A      1.090529   143A      1.095057   144A      1.100486  
     145A      1.109923   146A      1.115457   147A      1.118791  
     148A      1.124487   149A      1.134475   150A      1.136843  
     151A      1.140106   152A      1.143806   153A      1.158006  
     154A      1.159730   155A      1.172481   156A      1.176780  
     157A      1.184941   158A      1.193338   159A      1.194088  
     160A      1.200043   161A      1.212309   162A      1.219391  
     163A      1.224432   164A      1.227853   165A      1.240003  
     166A      1.242665   167A      1.253589   168A      1.257310  
     169A      1.270397   170A      1.277386   171A      1.292758  
     172A      1.294478   173A      1.297476   174A      1.308854  
     175A      1.321415   176A      1.331277   177A      1.337087  
     178A      1.344651   179A      1.362909   180A      1.380181  
     181A      1.392285   182A      1.401344   183A      1.415667  
     184A      1.417442   185A      1.424373   186A      1.447548  
     187A      1.459024   188A      1.466966   189A      1.477743  
     190A      1.494729   191A      1.508243   192A      1.516396  
     193A      1.519104   194A      1.535549   195A      1.538973  
     196A      1.569768   197A      1.572643   198A      1.582851  
     199A      1.599067   200A      1.604898   201A      1.616069  
     202A      1.626978   203A      1.643845   204A      1.656362  
     205A      1.678583   206A      1.684377   207A      1.698068  
     208A      1.713821   209A      1.726912   210A      1.750363  
     211A      1.769995   212A      1.787641   213A      1.800127  
     214A      1.837406   215A      1.846042   216A      1.873852  
     217A      1.884808   218A      1.890999   219A      1.896637  
     220A      1.909357   221A      1.914338   222A      1.936170  
     223A      1.951755   224A      1.958970   225A      1.966721  
     226A      1.974686   227A      1.977416   228A      1.980440  
     229A      1.988147   230A      2.000393   231A      2.011568  
     232A      2.025792   233A      2.033353   234A      2.036806  
     235A      2.047323   236A      2.064541   237A      2.080482  
     238A      2.088010   239A      2.095223   240A      2.138867  
     241A      2.157487   242A      2.168694   243A      2.187042  
     244A      2.259432   245A      2.272855   246A      2.281715  
     247A      2.328229   248A      2.380712   249A      2.512030  
     250A      2.559201   251A      2.573416   252A      2.583168  
     253A      2.597980   254A      2.608780   255A      2.610499  
     256A      2.619820   257A      2.629524   258A      2.637529  
     259A      2.646992   260A      2.659595   261A      2.667127  
     262A      2.674737   263A      2.679648   264A      2.687801  
     265A      2.696431   266A      2.697958   267A      2.706084  
     268A      2.709759   269A      2.716334   270A      2.721160  
     271A      2.727593   272A      2.737102   273A      2.753949  
     274A      2.759312   275A      2.769582   276A      2.776587  
     277A      2.783735   278A      2.800753   279A      2.809804  
     280A      2.813972   281A      2.820517   282A      2.833467  
     283A      2.839906   284A      2.846965   285A      2.851603  
     286A      2.864162   287A      2.879541   288A      2.892996  
     289A      2.906118   290A      2.913459   291A      2.925782  
     292A      2.948418   293A      2.949666   294A      2.968999  
     295A      2.987868   296A      3.015813   297A      3.027604  
     298A      3.039095   299A      3.078480   300A      3.088921  
     301A      3.104878   302A      3.122284   303A      3.132819  
     304A      3.169831   305A      3.190189   306A      3.217068  
     307A      3.264306   308A      3.271355   309A      3.299254  
     310A      3.321623   311A      3.328119   312A      3.346930  
     313A      3.350735   314A      3.372625   315A      3.387909  
     316A      3.392295   317A      3.411492   318A      3.414861  
     319A      3.434209   320A      3.450511   321A      3.487263  
     322A      3.509530   323A      3.532515   324A      3.541414  
     325A      3.549236   326A      3.580148   327A      3.585341  
     328A      3.601201   329A      3.610149   330A      3.620490  
     331A      3.625005   332A      3.701465   333A      3.709800  
     334A      3.729478   335A      3.738012   336A      3.794171  
     337A      3.838867   338A      3.867435   339A      3.920857  
     340A      3.926622   341A      3.954227   342A      3.963909  
     343A      4.026232   344A      4.538359   345A      4.547183  
     346A      4.564749   347A      4.569640   348A      4.588444  
     349A      4.627330   350A      4.632526   351A      4.640931  
     352A      4.653912   353A      4.658957   354A      4.670839  
     355A      4.694712   356A      4.714009   357A      4.739922  
     358A      4.748889   359A      4.763954   360A      4.778338  
     361A      4.782192   362A      4.820220   363A      4.826057  
     364A      4.836184   365A      4.844538   366A      4.854053  
     367A      4.867097   368A      4.875471   369A      4.898560  
     370A      4.906431   371A      4.939680   372A      4.981348  
     373A      5.019663   374A      5.028620   375A      5.049077  
     376A      5.056396   377A      5.073213   378A      5.095806  
     379A      5.105909   380A      5.122662   381A      5.135508  
     382A      5.144644   383A      5.170691   384A      5.186671  
     385A      5.232900   386A      5.250419   387A      5.261220  
     388A      5.331369   389A      5.363861   390A      5.374160  
     391A      5.382799   392A      5.441562   393A      5.506485  
     394A      5.525483   395A      5.612236   396A      5.664646  
     397A      5.692350   398A      5.702174   399A      5.714250  
     400A      5.721430   401A      5.726497   402A      5.779354  
     403A      5.800721   404A      5.815973   405A      5.846299  
     406A      5.861819   407A      5.871200   408A      5.882991  
     409A      5.890962   410A      5.968649   411A      5.981219  
     412A      6.012292   413A      6.021037   414A      6.123507  
     415A      6.274176   416A      6.318615   417A      6.329684  
     418A      6.371854   419A      6.388737   420A      6.486146  
     421A      6.520070   422A      6.575463   423A      6.592516  
     424A      6.614376   425A      6.671243   426A      6.836286  
     427A      6.895703   428A      6.949173   429A      7.003108  
     430A      7.093570   431A      7.250898   432A      7.297232  
     433A      7.306989   434A      7.317658   435A      7.860601  
     436A      7.870374   437A      7.887802   438A      7.903936  
     439A      7.913895   440A      7.937497   441A      7.953051  
     442A      7.964307   443A      7.990226   444A      8.074297  
     445A      8.154303   446A      8.238483   447A      8.240575  
     448A      8.249608   449A      8.276679   450A      8.289914  
     451A      8.329816   452A      8.385217   453A      8.412425  
     454A      8.450218   455A      8.456594   456A      8.459176  
     457A      8.472779   458A      8.513146   459A      8.535493  
     460A      8.756093   461A      8.875111   462A      8.907895  
     463A      8.944046   464A      8.973722   465A      9.008194  
     466A      9.092618   467A      9.122723   468A      9.180530  
     469A      9.225320   470A      9.779614   471A      9.872067  
     472A      9.888791   473A      9.924603   474A      9.947899  
     475A     10.001039   476A     10.006504   477A     10.014008  
     478A     10.049798   479A     10.090864   480A     10.197297  
     481A     10.207740   482A     10.217325   483A     10.229979  
     484A     10.271002   485A     10.395357   486A     10.440940  
     487A     10.453941   488A     10.465838   489A     10.485927  
     490A     11.210266   491A     11.262695   492A     11.302494  
     493A     11.397315   494A     11.505923   495A     11.789131  
     496A     11.829923   497A     11.889154   498A     11.907086  
     499A     11.943227   500A     12.042998   501A     12.291697  
     502A     12.364485   503A     12.377965   504A     12.444586  
     505A     13.563395   506A     13.703500   507A     13.778752  
     508A     13.794586   509A     13.827095   510A     14.022850  
     511A     14.047916   512A     14.064190   513A     14.100757  
     514A     14.178517   515A     63.661660   516A     65.533208  
     517A     66.246124   518A     66.403051   519A     67.022525  

    Final Occupation by Irrep:
              A 
    DOCC [    18 ]
    NA   [    18 ]
    NB   [    18 ]

  @DF-RHF Final Energy: -2572.53371655272213

   => Energetics <=

    Nuclear Repulsion Energy =              0.0000000000000000
    One-Electron Energy =               -3593.6662409470441162
    Two-Electron Energy =                1021.1325243943222176
    Total Energy =                      -2572.5337165527216712

Computation Completed


Properties will be evaluated at   0.000000,   0.000000,   0.000000 [a0]

Properties computed using the SCF density matrix


 Multipole Moments:

 ------------------------------------------------------------------------------------
     Multipole            Electronic (a.u.)      Nuclear  (a.u.)        Total (a.u.)
 ------------------------------------------------------------------------------------

 L = 1.  Multiply by 2.5417464519 to convert [e a0] to [Debye]
 Dipole X            :          0.0000544            0.0000000            0.0000544
 Dipole Y            :          0.0000306            0.0000000            0.0000306
 Dipole Z            :          0.0000331            0.0000000            0.0000331
 Magnitude           :                                                    0.0000707

 ------------------------------------------------------------------------------------

*** tstop() called on ddmfs1 at Mon Jan 22 22:56:20 2024
Module time:
	user time   =     123.55 seconds =       2.06 minutes
	system time =      11.18 seconds =       0.19 minutes
	total time  =         10 seconds =       0.17 minutes
Total time:
	user time   =     123.55 seconds =       2.06 minutes
	system time =      11.18 seconds =       0.19 minutes
	total time  =         10 seconds =       0.17 minutes

*** tstart() called on ddmfs1
*** at Mon Jan 22 22:56:20 2024


  //>>>>>>>>>>>>>>>>>>>>>>>>>>>>>>>>>>>//
  //               DFMP2               //
  //<<<<<<<<<<<<<<<<<<<<<<<<<<<<<<<<<<<//

   => Loading Basis Set <=

    Name: (AUG-CC-PVTZ AUX)
    Role: RIFIT
    Keyword: DF_BASIS_MP2
    atoms 1                            entry BR         line  1248 file /ddmfs1b/softs/psi4conda/share/psi4/basis/aug-cc-pvtz-ri.gbs 
    atoms 2, 5, 8, 11, 14              entry O          line   264 file /ddmfs1b/softs/psi4conda/share/psi4/basis/aug-cc-pvtz-ri.gbs 
    atoms 3-4, 6-7, 9-10, 12-13, 15-16 entry H          line    30 file /ddmfs1b/softs/psi4conda/share/psi4/basis/aug-cc-pvtz-ri.gbs 

	 --------------------------------------------------------
	                          DF-MP2                         
	      2nd-Order Density-Fitted Moller-Plesset Theory     
	              RMP2 Wavefunction,  20 Threads             
	                                                         
	        Rob Parrish, Justin Turney, Andy Simmonett,      
	           Ed Hohenstein, and C. David Sherrill          
	 --------------------------------------------------------

   => Auxiliary Basis Set <=

  Basis Set: (AUG-CC-PVTZ AUX)
    Blend: AUG-CC-PVTZ-RI
    Number of shells: 323
    Number of basis functions: 1181
    Number of Cartesian functions: 1491
    Spherical Harmonics?: true
    Max angular momentum: 5

	 --------------------------------------------------------
	                 NBF =   519, NAUX =  1181
	 --------------------------------------------------------
	   CLASS    FOCC     OCC    AOCC    AVIR     VIR    FVIR
	   PAIRS       0      18      18     501     501       0
	 --------------------------------------------------------

	-----------------------------------------------------------
	 ==================> DF-MP2 Energies <==================== 
	-----------------------------------------------------------
	 Reference Energy          =   -2572.5337165527221259 [Eh]
	 Singles Energy            =      -0.0000000000000000 [Eh]
	 Same-Spin Energy          =      -0.0900273033020033 [Eh]
	 Opposite-Spin Energy      =      -0.2094200902055405 [Eh]
	 Correlation Energy        =      -0.2994473935075438 [Eh]
	 Total Energy              =   -2572.8331639462298881 [Eh]
	-----------------------------------------------------------
	 ================> DF-SCS-MP2 Energies <================== 
	-----------------------------------------------------------
	 SCS Same-Spin Scale       =       0.3333333333333333 [-]
	 SCS Opposite-Spin Scale   =       1.2000000000000000 [-]
	 SCS Same-Spin Energy      =      -0.0300091011006678 [Eh]
	 SCS Opposite-Spin Energy  =      -0.2513041082466486 [Eh]
	 SCS Correlation Energy    =      -0.2813132093473163 [Eh]
	 SCS Total Energy          =   -2572.8150297620695710 [Eh]
	-----------------------------------------------------------


*** tstop() called on ddmfs1 at Mon Jan 22 22:56:32 2024
Module time:
	user time   =      41.51 seconds =       0.69 minutes
	system time =       2.73 seconds =       0.05 minutes
	total time  =         12 seconds =       0.20 minutes
Total time:
	user time   =     165.08 seconds =       2.75 minutes
	system time =      13.91 seconds =       0.23 minutes
	total time  =         22 seconds =       0.37 minutes

    Psi4 stopped on: Monday, 22 January 2024 10:56PM
    Psi4 wall time for execution: 0:00:22.20

*** Psi4 exiting successfully. Buy a developer a beer!
