
    -----------------------------------------------------------------------
          Psi4: An Open-Source Ab Initio Electronic Structure Package
                               Psi4 1.8.2 release

                         Git: Rev {} zzzzzzz 


    D. G. A. Smith, L. A. Burns, A. C. Simmonett, R. M. Parrish,
    M. C. Schieber, R. Galvelis, P. Kraus, H. Kruse, R. Di Remigio,
    A. Alenaizan, A. M. James, S. Lehtola, J. P. Misiewicz, M. Scheurer,
    R. A. Shaw, J. B. Schriber, Y. Xie, Z. L. Glick, D. A. Sirianni,
    J. S. O'Brien, J. M. Waldrop, A. Kumar, E. G. Hohenstein,
    B. P. Pritchard, B. R. Brooks, H. F. Schaefer III, A. Yu. Sokolov,
    K. Patkowski, A. E. DePrince III, U. Bozkaya, R. A. King,
    F. A. Evangelista, J. M. Turney, T. D. Crawford, C. D. Sherrill,
    J. Chem. Phys. 152(18) 184108 (2020). https://doi.org/10.1063/5.0006002

                            Additional Code Authors
    E. T. Seidl, C. L. Janssen, E. F. Valeev, M. L. Leininger,
    J. F. Gonthier, R. M. Richard, H. R. McAlexander, M. Saitow, X. Wang,
    P. Verma, M. H. Lechner, A. Jiang, S. Behnle, A. G. Heide,
    M. F. Herbst, and D. L. Poole

             Previous Authors, Complete List of Code Contributors,
                       and Citations for Specific Modules
    https://github.com/psi4/psi4/blob/master/codemeta.json
    https://github.com/psi4/psi4/graphs/contributors
    http://psicode.org/psi4manual/master/introduction.html#citing-psifour

    -----------------------------------------------------------------------


    Psi4 started on: Tuesday, 23 January 2024 01:22AM

    Process ID: 123883
    Host:       ddmfs1
    PSIDATADIR: /ddmfs1b/softs/psi4conda/share/psi4
    Memory:     500.0 MiB
    Threads:    20
    
  ==> Input File <==

--------------------------------------------------------------------------
MEMORY 60 GB

molecule dimer {
0 1
Gh(Br)     0.000000     0.000000     0.000000
O         -0.589641     1.981122    -2.700950
H         -0.352083     1.498565    -1.927478
H          0.291278     2.138304    -3.079812
Gh(O)     -0.614349     3.140419     0.660389
Gh(H)     -1.466447     3.242082     0.197508
Gh(H)     -0.129896     2.300579     0.382244
Gh(O)      1.920213    -0.518193     2.687699
Gh(H)      2.197835     0.425939     2.874306
Gh(H)      1.083802    -0.483503     2.156645
Gh(O)     -1.496158    -2.247040     1.826228
Gh(H)     -1.236232    -1.353537     1.456673
Gh(H)     -0.761899    -2.827253     1.477870
Gh(O)     -0.445692     1.514137     3.176920
Gh(H)     -0.182736     0.818354     3.872867
Gh(H)     -0.524766     1.099695     2.328947
Gh(O)     -3.061657     0.895335    -0.093977
Gh(H)     -2.099177     0.663244     0.089351
Gh(H)     -3.264239     0.403587    -0.926203

units ang
no_reorient
no_com
symmetry c1
}

set {
basis        aug-cc-pVTZ
scf_type     df
}

energy("mp2")
--------------------------------------------------------------------------

  Memory set to  55.879 GiB by Python driver.

Scratch directory: /ddmfs1a/scratch/
   => Libint2 <=

    Primary   basis highest AM E, G, H:  5, 4, 3
    Auxiliary basis highest AM E, G, H:  6, 5, 4
    Onebody   basis highest AM E, G, H:  6, 5, 4
    Solid Harmonics ordering:            gaussian

*** tstart() called on ddmfs1
*** at Tue Jan 23 01:22:46 2024

   => Loading Basis Set <=

    Name: AUG-CC-PVTZ
    Role: ORBITAL
    Keyword: BASIS
    atoms 1                                   entry BR         line  4208 file /ddmfs1b/softs/psi4conda/share/psi4/basis/aug-cc-pvtz.gbs 
    atoms 2, 5, 8, 11, 14, 17                 entry O          line   331 file /ddmfs1b/softs/psi4conda/share/psi4/basis/aug-cc-pvtz.gbs 
    atoms 3-4, 6-7, 9-10, 12-13, 15-16, 18-19 entry H          line    40 file /ddmfs1b/softs/psi4conda/share/psi4/basis/aug-cc-pvtz.gbs 


         ---------------------------------------------------------
                                   SCF
               by Justin Turney, Rob Parrish, Andy Simmonett
                          and Daniel G. A. Smith
                              RHF Reference
                       20 Threads,  57220 MiB Core
         ---------------------------------------------------------

  ==> Geometry <==

    Molecular point group: c1
    Full point group: C1

    Geometry (in Angstrom), charge = 0, multiplicity = 1:

       Center              X                  Y                   Z               Mass       
    ------------   -----------------  -----------------  -----------------  -----------------
      Gh(BR)          0.000000000000     0.000000000000     0.000000000000    78.918337600000
         O           -0.589641000000     1.981122000000    -2.700950000000    15.994914619570
         H           -0.352083000000     1.498565000000    -1.927478000000     1.007825032230
         H            0.291278000000     2.138304000000    -3.079812000000     1.007825032230
      Gh(O)          -0.614349000000     3.140419000000     0.660389000000    15.994914619570
      Gh(H)          -1.466447000000     3.242082000000     0.197508000000     1.007825032230
      Gh(H)          -0.129896000000     2.300579000000     0.382244000000     1.007825032230
      Gh(O)           1.920213000000    -0.518193000000     2.687699000000    15.994914619570
      Gh(H)           2.197835000000     0.425939000000     2.874306000000     1.007825032230
      Gh(H)           1.083802000000    -0.483503000000     2.156645000000     1.007825032230
      Gh(O)          -1.496158000000    -2.247040000000     1.826228000000    15.994914619570
      Gh(H)          -1.236232000000    -1.353537000000     1.456673000000     1.007825032230
      Gh(H)          -0.761899000000    -2.827253000000     1.477870000000     1.007825032230
      Gh(O)          -0.445692000000     1.514137000000     3.176920000000    15.994914619570
      Gh(H)          -0.182736000000     0.818354000000     3.872867000000     1.007825032230
      Gh(H)          -0.524766000000     1.099695000000     2.328947000000     1.007825032230
      Gh(O)          -3.061657000000     0.895335000000    -0.093977000000    15.994914619570
      Gh(H)          -2.099177000000     0.663244000000     0.089351000000     1.007825032230
      Gh(H)          -3.264239000000     0.403587000000    -0.926203000000     1.007825032230

  Running in c1 symmetry.

  Rotational constants: A =      0.02714  B =      0.02078  C =      0.01807 [cm^-1]
  Rotational constants: A =    813.49469  B =    622.93906  C =    541.78313 [MHz]
  Nuclear repulsion =    9.210974705021977

  Charge       = 0
  Multiplicity = 1
  Electrons    = 10
  Nalpha       = 5
  Nbeta        = 5

  ==> Algorithm <==

  SCF Algorithm Type is DF.
  DIIS enabled.
  MOM disabled.
  Fractional occupation disabled.
  Guess Type is SAD.
  Energy threshold   = 1.00e-08
  Density threshold  = 1.00e-08
  Integral threshold = 1.00e-12

  ==> Primary Basis <==

  Basis Set: AUG-CC-PVTZ
    Blend: AUG-CC-PVTZ
    Number of shells: 211
    Number of basis functions: 611
    Number of Cartesian functions: 699
    Spherical Harmonics?: true
    Max angular momentum: 3

   => Loading Basis Set <=

    Name: (AUG-CC-PVTZ AUX)
    Role: JKFIT
    Keyword: DF_BASIS_SCF
    atoms 1                                   entry BR         line  1492 file /ddmfs1b/softs/psi4conda/share/psi4/basis/aug-cc-pvtz-jkfit.gbs 
    atoms 2, 5, 8, 11, 14, 17                 entry O          line   286 file /ddmfs1b/softs/psi4conda/share/psi4/basis/aug-cc-pvtz-jkfit.gbs 
    atoms 3-4, 6-7, 9-10, 12-13, 15-16, 18-19 entry H          line    70 file /ddmfs1b/softs/psi4conda/share/psi4/basis/aug-cc-pvtz-jkfit.gbs 

  ==> Integral Setup <==

  DFHelper Memory: AOs need 3.627 GiB; user supplied 41.910 GiB. 
  Using in-core AOs.

  ==> MemDFJK: Density-Fitted J/K Matrices <==

    J tasked:                   Yes
    K tasked:                   Yes
    wK tasked:                   No
    OpenMP threads:              20
    Memory [MiB]:             42915
    Algorithm:                 Core
    Schwarz Cutoff:           1E-12
    Mask sparsity (%):      12.1145
    Fitting Condition:        1E-10

   => Auxiliary Basis Set <=

  Basis Set: (AUG-CC-PVTZ AUX)
    Blend: AUG-CC-PVTZ-JKFIT
    Number of shells: 406
    Number of basis functions: 1424
    Number of Cartesian functions: 1775
    Spherical Harmonics?: true
    Max angular momentum: 4

  Minimum eigenvalue in the overlap matrix is 8.4070165670E-05.
  Reciprocal condition number of the overlap matrix is 5.5379247142E-06.
    Using symmetric orthogonalization.

  ==> Pre-Iterations <==

  SCF Guess: Superposition of Atomic Densities via on-the-fly atomic UHF (no occupation information).

   -------------------------
    Irrep   Nso     Nmo    
   -------------------------
     A        611     611 
   -------------------------
    Total     611     611
   -------------------------

  ==> Iterations <==

                           Total Energy        Delta E     RMS |[F,P]|

   @DF-RHF iter SAD:   -75.48298846211526   -7.54830e+01   0.00000e+00 
   @DF-RHF iter   1:   -75.97455791640672   -4.91569e-01   7.68047e-04 ADIIS/DIIS
   @DF-RHF iter   2:   -76.02734755346607   -5.27896e-02   5.24532e-04 ADIIS/DIIS
   @DF-RHF iter   3:   -76.05901440796166   -3.16669e-02   3.55305e-05 DIIS
   @DF-RHF iter   4:   -76.05939778300599   -3.83375e-04   8.49462e-06 DIIS
   @DF-RHF iter   5:   -76.05942197608570   -2.41931e-05   1.95951e-06 DIIS
   @DF-RHF iter   6:   -76.05942398979238   -2.01371e-06   4.24495e-07 DIIS
   @DF-RHF iter   7:   -76.05942409269454   -1.02902e-07   7.30769e-08 DIIS
   @DF-RHF iter   8:   -76.05942409534842   -2.65388e-09   1.21075e-08 DIIS
   @DF-RHF iter   9:   -76.05942409540374   -5.53229e-11   2.84902e-09 DIIS
  Energy and wave function converged.


  ==> Post-Iterations <==

    Orbital Energies [Eh]
    ---------------------

    Doubly Occupied:                                                      

       1A    -20.568927     2A     -1.357246     3A     -0.709092  
       4A     -0.593691     5A     -0.511670  

    Virtual:                                                              

       6A      0.015045     7A      0.031974     8A      0.035488  
       9A      0.037261    10A      0.051115    11A      0.055235  
      12A      0.057646    13A      0.063154    14A      0.069804  
      15A      0.078364    16A      0.082966    17A      0.089399  
      18A      0.092541    19A      0.104614    20A      0.112029  
      21A      0.128411    22A      0.136812    23A      0.139966  
      24A      0.142682    25A      0.151061    26A      0.154815  
      27A      0.159644    28A      0.167617    29A      0.168829  
      30A      0.170549    31A      0.186027    32A      0.187529  
      33A      0.190397    34A      0.193117    35A      0.197993  
      36A      0.203164    37A      0.207120    38A      0.212752  
      39A      0.216377    40A      0.225188    41A      0.231591  
      42A      0.236910    43A      0.241043    44A      0.248842  
      45A      0.255377    46A      0.258203    47A      0.280381  
      48A      0.283098    49A      0.291384    50A      0.298983  
      51A      0.302808    52A      0.308336    53A      0.315860  
      54A      0.320522    55A      0.326849    56A      0.334630  
      57A      0.341759    58A      0.344026    59A      0.345970  
      60A      0.354015    61A      0.362813    62A      0.363719  
      63A      0.376964    64A      0.378634    65A      0.388180  
      66A      0.390715    67A      0.401647    68A      0.405763  
      69A      0.406802    70A      0.412157    71A      0.414186  
      72A      0.425373    73A      0.430431    74A      0.431472  
      75A      0.435517    76A      0.439234    77A      0.445953  
      78A      0.454709    79A      0.465173    80A      0.472076  
      81A      0.475628    82A      0.483065    83A      0.486912  
      84A      0.495578    85A      0.500687    86A      0.507275  
      87A      0.517237    88A      0.530152    89A      0.533219  
      90A      0.539618    91A      0.546638    92A      0.575233  
      93A      0.581186    94A      0.584505    95A      0.600425  
      96A      0.609783    97A      0.615531    98A      0.627298  
      99A      0.639819   100A      0.659454   101A      0.662214  
     102A      0.683478   103A      0.695758   104A      0.708703  
     105A      0.717578   106A      0.728015   107A      0.733033  
     108A      0.739594   109A      0.747921   110A      0.761032  
     111A      0.761838   112A      0.767809   113A      0.773921  
     114A      0.778891   115A      0.781693   116A      0.798002  
     117A      0.801693   118A      0.806647   119A      0.810674  
     120A      0.822982   121A      0.826055   122A      0.831278  
     123A      0.837091   124A      0.851287   125A      0.855017  
     126A      0.859716   127A      0.864405   128A      0.866947  
     129A      0.875433   130A      0.878628   131A      0.889768  
     132A      0.890043   133A      0.897155   134A      0.901853  
     135A      0.909646   136A      0.910297   137A      0.925359  
     138A      0.930864   139A      0.934686   140A      0.935826  
     141A      0.943810   142A      0.946055   143A      0.950964  
     144A      0.956903   145A      0.973439   146A      0.977887  
     147A      0.983942   148A      0.985169   149A      0.989379  
     150A      0.990406   151A      1.000338   152A      1.006367  
     153A      1.011222   154A      1.019052   155A      1.024088  
     156A      1.031618   157A      1.035390   158A      1.039503  
     159A      1.053968   160A      1.057129   161A      1.061349  
     162A      1.067123   163A      1.072575   164A      1.081435  
     165A      1.091995   166A      1.094469   167A      1.101181  
     168A      1.106835   169A      1.109173   170A      1.121052  
     171A      1.125163   172A      1.129877   173A      1.140769  
     174A      1.151703   175A      1.161045   176A      1.165211  
     177A      1.171901   178A      1.178926   179A      1.185940  
     180A      1.198558   181A      1.203139   182A      1.210720  
     183A      1.215687   184A      1.219385   185A      1.235130  
     186A      1.247157   187A      1.258087   188A      1.269293  
     189A      1.276770   190A      1.280580   191A      1.288458  
     192A      1.297357   193A      1.305324   194A      1.312818  
     195A      1.318669   196A      1.324445   197A      1.333437  
     198A      1.343749   199A      1.348430   200A      1.352567  
     201A      1.368892   202A      1.375319   203A      1.379692  
     204A      1.389577   205A      1.402155   206A      1.417498  
     207A      1.430172   208A      1.440610   209A      1.446350  
     210A      1.466770   211A      1.477796   212A      1.482157  
     213A      1.496954   214A      1.507249   215A      1.521103  
     216A      1.531576   217A      1.535964   218A      1.539317  
     219A      1.554808   220A      1.569502   221A      1.573563  
     222A      1.576059   223A      1.595279   224A      1.604217  
     225A      1.618791   226A      1.621066   227A      1.634549  
     228A      1.646273   229A      1.654709   230A      1.660276  
     231A      1.673582   232A      1.685398   233A      1.700643  
     234A      1.710625   235A      1.733775   236A      1.738242  
     237A      1.742657   238A      1.754781   239A      1.766390  
     240A      1.769342   241A      1.778421   242A      1.782634  
     243A      1.794983   244A      1.802293   245A      1.816110  
     246A      1.825028   247A      1.842626   248A      1.859583  
     249A      1.866788   250A      1.878894   251A      1.889210  
     252A      1.900162   253A      1.905970   254A      1.909568  
     255A      1.919366   256A      1.947338   257A      1.950423  
     258A      1.960015   259A      1.966602   260A      1.980683  
     261A      2.003909   262A      2.007921   263A      2.016171  
     264A      2.027330   265A      2.029570   266A      2.038014  
     267A      2.060284   268A      2.079094   269A      2.089080  
     270A      2.104837   271A      2.110126   272A      2.124440  
     273A      2.142966   274A      2.161401   275A      2.179068  
     276A      2.188248   277A      2.206199   278A      2.219339  
     279A      2.333472   280A      2.349979   281A      2.446057  
     282A      2.470002   283A      2.477127   284A      2.487198  
     285A      2.490403   286A      2.498378   287A      2.512412  
     288A      2.519133   289A      2.526611   290A      2.543338  
     291A      2.548859   292A      2.557705   293A      2.585242  
     294A      2.590885   295A      2.610987   296A      2.621339  
     297A      2.626609   298A      2.641290   299A      2.654329  
     300A      2.667427   301A      2.671772   302A      2.682174  
     303A      2.689136   304A      2.702816   305A      2.714857  
     306A      2.720199   307A      2.724670   308A      2.739684  
     309A      2.747021   310A      2.751203   311A      2.768038  
     312A      2.775304   313A      2.779131   314A      2.786850  
     315A      2.805432   316A      2.810323   317A      2.821592  
     318A      2.833572   319A      2.844749   320A      2.854717  
     321A      2.872802   322A      2.878179   323A      2.890365  
     324A      2.900640   325A      2.924294   326A      2.932918  
     327A      2.944321   328A      2.953139   329A      2.970390  
     330A      3.003528   331A      3.007786   332A      3.022853  
     333A      3.043108   334A      3.048053   335A      3.063710  
     336A      3.074939   337A      3.113335   338A      3.165631  
     339A      3.175403   340A      3.190450   341A      3.199361  
     342A      3.202711   343A      3.216991   344A      3.229038  
     345A      3.246060   346A      3.258789   347A      3.266799  
     348A      3.285542   349A      3.295117   350A      3.306869  
     351A      3.314824   352A      3.334943   353A      3.360765  
     354A      3.380456   355A      3.395254   356A      3.423531  
     357A      3.426693   358A      3.435093   359A      3.441398  
     360A      3.463410   361A      3.493983   362A      3.518737  
     363A      3.538597   364A      3.564386   365A      3.570990  
     366A      3.581148   367A      3.591145   368A      3.613501  
     369A      3.626879   370A      3.640141   371A      3.651782  
     372A      3.681704   373A      3.696254   374A      3.703991  
     375A      3.738419   376A      3.770520   377A      3.794362  
     378A      3.804304   379A      3.817760   380A      3.824837  
     381A      3.835683   382A      3.860199   383A      3.875869  
     384A      3.881794   385A      3.905948   386A      3.916992  
     387A      3.998181   388A      4.037422   389A      4.057360  
     390A      4.125758   391A      4.218993   392A      4.260742  
     393A      4.329021   394A      4.349239   395A      4.377591  
     396A      4.399766   397A      4.416469   398A      4.437237  
     399A      4.440829   400A      4.457295   401A      4.471281  
     402A      4.484078   403A      4.498634   404A      4.507719  
     405A      4.514971   406A      4.519893   407A      4.533440  
     408A      4.543340   409A      4.562439   410A      4.594323  
     411A      4.604076   412A      4.620806   413A      4.628437  
     414A      4.642803   415A      4.647293   416A      4.665735  
     417A      4.684943   418A      4.698145   419A      4.709958  
     420A      4.720475   421A      4.725771   422A      4.752196  
     423A      4.759395   424A      4.814193   425A      4.837732  
     426A      4.862305   427A      4.881123   428A      4.894653  
     429A      4.914227   430A      4.935117   431A      4.945227  
     432A      4.955523   433A      4.978579   434A      4.993573  
     435A      5.001423   436A      5.013449   437A      5.055911  
     438A      5.068429   439A      5.083545   440A      5.107139  
     441A      5.111907   442A      5.145858   443A      5.157701  
     444A      5.179934   445A      5.198744   446A      5.230794  
     447A      5.259651   448A      5.269927   449A      5.307827  
     450A      5.311225   451A      5.318290   452A      5.324149  
     453A      5.354269   454A      5.405524   455A      5.422370  
     456A      5.430205   457A      5.459980   458A      5.476251  
     459A      5.487403   460A      5.490864   461A      5.508245  
     462A      5.517368   463A      5.538042   464A      5.555901  
     465A      5.569490   466A      5.583871   467A      5.589114  
     468A      5.590727   469A      5.614460   470A      5.691457  
     471A      5.737763   472A      5.743184   473A      5.753051  
     474A      5.796560   475A      5.829473   476A      5.861030  
     477A      5.903383   478A      6.157856   479A      6.164816  
     480A      6.197909   481A      6.223450   482A      6.256867  
     483A      6.294408   484A      6.332269   485A      6.346629  
     486A      6.383698   487A      6.415239   488A      6.486707  
     489A      6.515342   490A      6.561534   491A      6.619545  
     492A      6.659776   493A      6.743032   494A      6.755879  
     495A      6.797861   496A      6.933695   497A      6.957827  
     498A      6.977262   499A      7.022506   500A      7.067227  
     501A      7.120956   502A      7.150640   503A      7.285977  
     504A      7.306328   505A      7.385357   506A      7.456936  
     507A      7.505478   508A      7.727775   509A      7.740918  
     510A      7.763691   511A      7.765436   512A      7.780165  
     513A      7.796000   514A      7.810892   515A      7.836021  
     516A      7.854049   517A      7.869347   518A      7.881901  
     519A      7.973670   520A      8.042562   521A      8.053506  
     522A      8.066804   523A      8.121437   524A      8.135283  
     525A      8.170507   526A      8.180307   527A      8.210994  
     528A      8.223244   529A      8.228296   530A      8.253192  
     531A      8.265275   532A      8.280782   533A      8.284922  
     534A      8.302355   535A      8.340206   536A      8.621802  
     537A      8.643891   538A      8.666135   539A      8.699869  
     540A      8.735021   541A      8.790753   542A      8.808192  
     543A      8.852424   544A      8.884265   545A      8.906361  
     546A      9.061034   547A      9.750332   548A      9.754787  
     549A      9.775020   550A      9.806825   551A      9.839504  
     552A      9.903639   553A      9.911863   554A      9.922044  
     555A      9.949792   556A      9.969082   557A     10.084489  
     558A     10.099725   559A     10.108121   560A     10.121091  
     561A     10.171795   562A     10.270174   563A     10.297195  
     564A     10.335666   565A     10.361860   566A     10.420418  
     567A     10.960484   568A     10.980698   569A     10.987741  
     570A     11.029526   571A     11.045652   572A     11.626216  
     573A     11.721241   574A     11.751201   575A     11.764867  
     576A     11.800567   577A     11.821452   578A     11.842022  
     579A     11.878604   580A     11.949534   581A     12.044400  
     582A     12.215861   583A     13.439962   584A     13.454287  
     585A     13.481365   586A     13.530610   587A     13.587719  
     588A     13.956658   589A     13.972353   590A     13.985792  
     591A     13.995073   592A     14.022551   593A     14.101210  
     594A     14.207843   595A     14.260945   596A     16.941824  
     597A     26.409631   598A     26.546369   599A     26.582573  
     600A     26.763060   601A     26.826489   602A     47.083963  
     603A     64.208208   604A     64.441823   605A     64.751720  
     606A     65.173333   607A     66.039199   608A    139.218115  
     609A    139.462105   610A    139.666339   611A    713.604236  

    Final Occupation by Irrep:
              A 
    DOCC [     5 ]
    NA   [     5 ]
    NB   [     5 ]

  @DF-RHF Final Energy:   -76.05942409540374

   => Energetics <=

    Nuclear Repulsion Energy =              9.2109747050219770
    One-Electron Energy =                -123.0595414805953425
    Two-Electron Energy =                  37.7891426801696255
    Total Energy =                        -76.0594240954037275

Computation Completed


Properties will be evaluated at   0.000000,   0.000000,   0.000000 [a0]

Properties computed using the SCF density matrix


 Multipole Moments:

 ------------------------------------------------------------------------------------
     Multipole            Electronic (a.u.)      Nuclear  (a.u.)        Total (a.u.)
 ------------------------------------------------------------------------------------

 L = 1.  Multiply by 2.5417464519 to convert [e a0] to [Debye]
 Dipole X            :          9.7616475           -9.0289848            0.7326627
 Dipole Y            :        -37.0397121           36.8229104           -0.2168017
 Dipole Z            :         50.5589544          -50.2948530            0.2641014
 Magnitude           :                                                    0.8084226

 ------------------------------------------------------------------------------------

*** tstop() called on ddmfs1 at Tue Jan 23 01:22:58 2024
Module time:
	user time   =     148.95 seconds =       2.48 minutes
	system time =       8.62 seconds =       0.14 minutes
	total time  =         12 seconds =       0.20 minutes
Total time:
	user time   =     148.95 seconds =       2.48 minutes
	system time =       8.62 seconds =       0.14 minutes
	total time  =         12 seconds =       0.20 minutes

*** tstart() called on ddmfs1
*** at Tue Jan 23 01:22:58 2024


  //>>>>>>>>>>>>>>>>>>>>>>>>>>>>>>>>>>>//
  //               DFMP2               //
  //<<<<<<<<<<<<<<<<<<<<<<<<<<<<<<<<<<<//

   => Loading Basis Set <=

    Name: (AUG-CC-PVTZ AUX)
    Role: RIFIT
    Keyword: DF_BASIS_MP2
    atoms 1                                   entry BR         line  1248 file /ddmfs1b/softs/psi4conda/share/psi4/basis/aug-cc-pvtz-ri.gbs 
    atoms 2, 5, 8, 11, 14, 17                 entry O          line   264 file /ddmfs1b/softs/psi4conda/share/psi4/basis/aug-cc-pvtz-ri.gbs 
    atoms 3-4, 6-7, 9-10, 12-13, 15-16, 18-19 entry H          line    30 file /ddmfs1b/softs/psi4conda/share/psi4/basis/aug-cc-pvtz-ri.gbs 

	 --------------------------------------------------------
	                          DF-MP2                         
	      2nd-Order Density-Fitted Moller-Plesset Theory     
	              RMP2 Wavefunction,  20 Threads             
	                                                         
	        Rob Parrish, Justin Turney, Andy Simmonett,      
	           Ed Hohenstein, and C. David Sherrill          
	 --------------------------------------------------------

   => Auxiliary Basis Set <=

  Basis Set: (AUG-CC-PVTZ AUX)
    Blend: AUG-CC-PVTZ-RI
    Number of shells: 379
    Number of basis functions: 1379
    Number of Cartesian functions: 1737
    Spherical Harmonics?: true
    Max angular momentum: 5

	 --------------------------------------------------------
	                 NBF =   611, NAUX =  1379
	 --------------------------------------------------------
	   CLASS    FOCC     OCC    AOCC    AVIR     VIR    FVIR
	   PAIRS       0       5       5     606     606       0
	 --------------------------------------------------------

	-----------------------------------------------------------
	 ==================> DF-MP2 Energies <==================== 
	-----------------------------------------------------------
	 Reference Energy          =     -76.0594240954037417 [Eh]
	 Singles Energy            =      -0.0000000000000000 [Eh]
	 Same-Spin Energy          =      -0.0684993231039361 [Eh]
	 Opposite-Spin Energy      =      -0.2162208674892591 [Eh]
	 Correlation Energy        =      -0.2847201905931953 [Eh]
	 Total Energy              =     -76.3441442859969328 [Eh]
	-----------------------------------------------------------
	 ================> DF-SCS-MP2 Energies <================== 
	-----------------------------------------------------------
	 SCS Same-Spin Scale       =       0.3333333333333333 [-]
	 SCS Opposite-Spin Scale   =       1.2000000000000000 [-]
	 SCS Same-Spin Energy      =      -0.0228331077013120 [Eh]
	 SCS Opposite-Spin Energy  =      -0.2594650409871109 [Eh]
	 SCS Correlation Energy    =      -0.2822981486884230 [Eh]
	 SCS Total Energy          =     -76.3417222440921677 [Eh]
	-----------------------------------------------------------


*** tstop() called on ddmfs1 at Tue Jan 23 01:23:11 2024
Module time:
	user time   =      44.48 seconds =       0.74 minutes
	system time =       2.97 seconds =       0.05 minutes
	total time  =         13 seconds =       0.22 minutes
Total time:
	user time   =     193.44 seconds =       3.22 minutes
	system time =      11.60 seconds =       0.19 minutes
	total time  =         25 seconds =       0.42 minutes

    Psi4 stopped on: Tuesday, 23 January 2024 01:23AM
    Psi4 wall time for execution: 0:00:25.12

*** Psi4 exiting successfully. Buy a developer a beer!
