
    -----------------------------------------------------------------------
          Psi4: An Open-Source Ab Initio Electronic Structure Package
                               Psi4 1.8.2 release

                         Git: Rev {} zzzzzzz 


    D. G. A. Smith, L. A. Burns, A. C. Simmonett, R. M. Parrish,
    M. C. Schieber, R. Galvelis, P. Kraus, H. Kruse, R. Di Remigio,
    A. Alenaizan, A. M. James, S. Lehtola, J. P. Misiewicz, M. Scheurer,
    R. A. Shaw, J. B. Schriber, Y. Xie, Z. L. Glick, D. A. Sirianni,
    J. S. O'Brien, J. M. Waldrop, A. Kumar, E. G. Hohenstein,
    B. P. Pritchard, B. R. Brooks, H. F. Schaefer III, A. Yu. Sokolov,
    K. Patkowski, A. E. DePrince III, U. Bozkaya, R. A. King,
    F. A. Evangelista, J. M. Turney, T. D. Crawford, C. D. Sherrill,
    J. Chem. Phys. 152(18) 184108 (2020). https://doi.org/10.1063/5.0006002

                            Additional Code Authors
    E. T. Seidl, C. L. Janssen, E. F. Valeev, M. L. Leininger,
    J. F. Gonthier, R. M. Richard, H. R. McAlexander, M. Saitow, X. Wang,
    P. Verma, M. H. Lechner, A. Jiang, S. Behnle, A. G. Heide,
    M. F. Herbst, and D. L. Poole

             Previous Authors, Complete List of Code Contributors,
                       and Citations for Specific Modules
    https://github.com/psi4/psi4/blob/master/codemeta.json
    https://github.com/psi4/psi4/graphs/contributors
    http://psicode.org/psi4manual/master/introduction.html#citing-psifour

    -----------------------------------------------------------------------


    Psi4 started on: Monday, 22 January 2024 11:39PM

    Process ID: 117765
    Host:       ddmfs1
    PSIDATADIR: /ddmfs1b/softs/psi4conda/share/psi4
    Memory:     500.0 MiB
    Threads:    20
    
  ==> Input File <==

--------------------------------------------------------------------------
MEMORY 60 GB

molecule dimer {
0 1
Gh(Br)     0.000000     0.000000     0.000000
Gh(O)      2.943776    -1.291586    -0.717929
Gh(H)      3.240026    -1.464467     0.202400
Gh(H)      1.978967    -1.068027    -0.600416
Gh(O)     -0.095928    -0.517762     3.548290
Gh(H)     -0.814866    -1.197163     3.491646
Gh(H)     -0.072377    -0.113912     2.693842
O          0.527750    -0.312189    -3.389362
H          0.441500     0.034753    -2.536104
H          1.092442     0.303107    -3.915709
Gh(O)     -1.833587     2.369462     2.018259
Gh(H)     -2.428429     3.194020     1.901604
Gh(H)     -1.874762     2.017001     1.165854
Gh(O)     -0.596122    -3.194149    -0.160636
Gh(H)     -1.524899    -3.188801     0.101012
Gh(H)     -0.342956    -2.240154    -0.160816
Gh(O)      2.451296     2.621292    -0.011617
Gh(H)      1.651985     2.047015    -0.019684
Gh(H)      3.130850     2.123247    -0.509532

units ang
no_reorient
no_com
symmetry c1
}

set {
basis        aug-cc-pVTZ
scf_type     df
}

energy("mp2")
--------------------------------------------------------------------------

  Memory set to  55.879 GiB by Python driver.

Scratch directory: /ddmfs1a/scratch/
   => Libint2 <=

    Primary   basis highest AM E, G, H:  5, 4, 3
    Auxiliary basis highest AM E, G, H:  6, 5, 4
    Onebody   basis highest AM E, G, H:  6, 5, 4
    Solid Harmonics ordering:            gaussian

*** tstart() called on ddmfs1
*** at Mon Jan 22 23:39:19 2024

   => Loading Basis Set <=

    Name: AUG-CC-PVTZ
    Role: ORBITAL
    Keyword: BASIS
    atoms 1                                   entry BR         line  4208 file /ddmfs1b/softs/psi4conda/share/psi4/basis/aug-cc-pvtz.gbs 
    atoms 2, 5, 8, 11, 14, 17                 entry O          line   331 file /ddmfs1b/softs/psi4conda/share/psi4/basis/aug-cc-pvtz.gbs 
    atoms 3-4, 6-7, 9-10, 12-13, 15-16, 18-19 entry H          line    40 file /ddmfs1b/softs/psi4conda/share/psi4/basis/aug-cc-pvtz.gbs 


         ---------------------------------------------------------
                                   SCF
               by Justin Turney, Rob Parrish, Andy Simmonett
                          and Daniel G. A. Smith
                              RHF Reference
                       20 Threads,  57220 MiB Core
         ---------------------------------------------------------

  ==> Geometry <==

    Molecular point group: c1
    Full point group: C1

    Geometry (in Angstrom), charge = 0, multiplicity = 1:

       Center              X                  Y                   Z               Mass       
    ------------   -----------------  -----------------  -----------------  -----------------
      Gh(BR)          0.000000000000     0.000000000000     0.000000000000    78.918337600000
      Gh(O)           2.943776000000    -1.291586000000    -0.717929000000    15.994914619570
      Gh(H)           3.240026000000    -1.464467000000     0.202400000000     1.007825032230
      Gh(H)           1.978967000000    -1.068027000000    -0.600416000000     1.007825032230
      Gh(O)          -0.095928000000    -0.517762000000     3.548290000000    15.994914619570
      Gh(H)          -0.814866000000    -1.197163000000     3.491646000000     1.007825032230
      Gh(H)          -0.072377000000    -0.113912000000     2.693842000000     1.007825032230
         O            0.527750000000    -0.312189000000    -3.389362000000    15.994914619570
         H            0.441500000000     0.034753000000    -2.536104000000     1.007825032230
         H            1.092442000000     0.303107000000    -3.915709000000     1.007825032230
      Gh(O)          -1.833587000000     2.369462000000     2.018259000000    15.994914619570
      Gh(H)          -2.428429000000     3.194020000000     1.901604000000     1.007825032230
      Gh(H)          -1.874762000000     2.017001000000     1.165854000000     1.007825032230
      Gh(O)          -0.596122000000    -3.194149000000    -0.160636000000    15.994914619570
      Gh(H)          -1.524899000000    -3.188801000000     0.101012000000     1.007825032230
      Gh(H)          -0.342956000000    -2.240154000000    -0.160816000000     1.007825032230
      Gh(O)           2.451296000000     2.621292000000    -0.011617000000    15.994914619570
      Gh(H)           1.651985000000     2.047015000000    -0.019684000000     1.007825032230
      Gh(H)           3.130850000000     2.123247000000    -0.509532000000     1.007825032230

  Running in c1 symmetry.

  Rotational constants: A =      0.02544  B =      0.01941  C =      0.01623 [cm^-1]
  Rotational constants: A =    762.57003  B =    582.03161  C =    486.52569 [MHz]
  Nuclear repulsion =    9.206129675143028

  Charge       = 0
  Multiplicity = 1
  Electrons    = 10
  Nalpha       = 5
  Nbeta        = 5

  ==> Algorithm <==

  SCF Algorithm Type is DF.
  DIIS enabled.
  MOM disabled.
  Fractional occupation disabled.
  Guess Type is SAD.
  Energy threshold   = 1.00e-08
  Density threshold  = 1.00e-08
  Integral threshold = 1.00e-12

  ==> Primary Basis <==

  Basis Set: AUG-CC-PVTZ
    Blend: AUG-CC-PVTZ
    Number of shells: 211
    Number of basis functions: 611
    Number of Cartesian functions: 699
    Spherical Harmonics?: true
    Max angular momentum: 3

   => Loading Basis Set <=

    Name: (AUG-CC-PVTZ AUX)
    Role: JKFIT
    Keyword: DF_BASIS_SCF
    atoms 1                                   entry BR         line  1492 file /ddmfs1b/softs/psi4conda/share/psi4/basis/aug-cc-pvtz-jkfit.gbs 
    atoms 2, 5, 8, 11, 14, 17                 entry O          line   286 file /ddmfs1b/softs/psi4conda/share/psi4/basis/aug-cc-pvtz-jkfit.gbs 
    atoms 3-4, 6-7, 9-10, 12-13, 15-16, 18-19 entry H          line    70 file /ddmfs1b/softs/psi4conda/share/psi4/basis/aug-cc-pvtz-jkfit.gbs 

  ==> Integral Setup <==

  DFHelper Memory: AOs need 3.405 GiB; user supplied 41.910 GiB. 
  Using in-core AOs.

  ==> MemDFJK: Density-Fitted J/K Matrices <==

    J tasked:                   Yes
    K tasked:                   Yes
    wK tasked:                   No
    OpenMP threads:              20
    Memory [MiB]:             42915
    Algorithm:                 Core
    Schwarz Cutoff:           1E-12
    Mask sparsity (%):      17.7113
    Fitting Condition:        1E-10

   => Auxiliary Basis Set <=

  Basis Set: (AUG-CC-PVTZ AUX)
    Blend: AUG-CC-PVTZ-JKFIT
    Number of shells: 406
    Number of basis functions: 1424
    Number of Cartesian functions: 1775
    Spherical Harmonics?: true
    Max angular momentum: 4

  Minimum eigenvalue in the overlap matrix is 1.3515352147E-04.
  Reciprocal condition number of the overlap matrix is 1.0975435503E-05.
    Using symmetric orthogonalization.

  ==> Pre-Iterations <==

  SCF Guess: Superposition of Atomic Densities via on-the-fly atomic UHF (no occupation information).

   -------------------------
    Irrep   Nso     Nmo    
   -------------------------
     A        611     611 
   -------------------------
    Total     611     611
   -------------------------

  ==> Iterations <==

                           Total Energy        Delta E     RMS |[F,P]|

   @DF-RHF iter SAD:   -75.47459593430717   -7.54746e+01   0.00000e+00 
   @DF-RHF iter   1:   -75.97431421444819   -4.99718e-01   7.69255e-04 DIIS/ADIIS
   @DF-RHF iter   2:   -76.02707459516498   -5.27604e-02   5.21227e-04 DIIS/ADIIS
   @DF-RHF iter   3:   -76.05824969707810   -3.11751e-02   3.54949e-05 DIIS
   @DF-RHF iter   4:   -76.05864603404471   -3.96337e-04   8.50930e-06 DIIS
   @DF-RHF iter   5:   -76.05867075976511   -2.47257e-05   1.94965e-06 DIIS
   @DF-RHF iter   6:   -76.05867284249221   -2.08273e-06   4.39299e-07 DIIS
   @DF-RHF iter   7:   -76.05867295959828   -1.17106e-07   8.20086e-08 DIIS
   @DF-RHF iter   8:   -76.05867296319157   -3.59329e-09   1.36307e-08 DIIS
   @DF-RHF iter   9:   -76.05867296327031   -7.87423e-11   3.47850e-09 DIIS
  Energy and wave function converged.


  ==> Post-Iterations <==

    Orbital Energies [Eh]
    ---------------------

    Doubly Occupied:                                                      

       1A    -20.565123     2A     -1.352498     3A     -0.725567  
       4A     -0.577754     5A     -0.509442  

    Virtual:                                                              

       6A      0.014368     7A      0.028870     8A      0.033121  
       9A      0.037629    10A      0.048919    11A      0.050419  
      12A      0.054624    13A      0.061703    14A      0.068582  
      15A      0.069825    16A      0.081875    17A      0.086348  
      18A      0.096643    19A      0.112433    20A      0.114819  
      21A      0.123107    22A      0.125892    23A      0.131007  
      24A      0.141499    25A      0.148217    26A      0.151268  
      27A      0.152512    28A      0.157844    29A      0.164039  
      30A      0.165133    31A      0.170213    32A      0.179658  
      33A      0.182783    34A      0.186923    35A      0.188240  
      36A      0.189363    37A      0.202548    38A      0.210352  
      39A      0.211494    40A      0.219683    41A      0.222696  
      42A      0.227254    43A      0.232494    44A      0.236376  
      45A      0.241209    46A      0.259602    47A      0.272335  
      48A      0.281532    49A      0.283901    50A      0.287850  
      51A      0.289758    52A      0.293435    53A      0.301168  
      54A      0.311449    55A      0.315328    56A      0.323800  
      57A      0.327512    58A      0.328677    59A      0.334713  
      60A      0.342163    61A      0.346140    62A      0.351346  
      63A      0.354468    64A      0.363732    65A      0.367709  
      66A      0.370025    67A      0.376654    68A      0.378190  
      69A      0.382131    70A      0.391279    71A      0.393283  
      72A      0.395702    73A      0.400678    74A      0.406517  
      75A      0.414761    76A      0.419875    77A      0.425681  
      78A      0.428492    79A      0.438086    80A      0.445556  
      81A      0.449228    82A      0.460052    83A      0.462732  
      84A      0.473370    85A      0.480488    86A      0.487587  
      87A      0.491807    88A      0.504466    89A      0.514819  
      90A      0.528990    91A      0.540895    92A      0.542138  
      93A      0.566719    94A      0.579172    95A      0.595747  
      96A      0.601924    97A      0.608827    98A      0.622246  
      99A      0.639627   100A      0.644042   101A      0.651414  
     102A      0.663470   103A      0.679250   104A      0.693814  
     105A      0.700298   106A      0.708340   107A      0.718411  
     108A      0.725283   109A      0.731553   110A      0.739404  
     111A      0.744865   112A      0.750026   113A      0.753765  
     114A      0.768582   115A      0.772128   116A      0.778622  
     117A      0.783027   118A      0.788971   119A      0.794508  
     120A      0.799858   121A      0.803399   122A      0.809146  
     123A      0.812533   124A      0.817297   125A      0.824140  
     126A      0.825764   127A      0.828402   128A      0.831824  
     129A      0.838180   130A      0.846386   131A      0.850119  
     132A      0.858480   133A      0.862368   134A      0.867899  
     135A      0.872428   136A      0.875082   137A      0.882086  
     138A      0.885652   139A      0.887054   140A      0.890171  
     141A      0.895637   142A      0.899856   143A      0.906410  
     144A      0.911068   145A      0.913440   146A      0.917999  
     147A      0.922178   148A      0.931693   149A      0.939077  
     150A      0.946316   151A      0.949168   152A      0.959179  
     153A      0.962350   154A      0.966583   155A      0.977718  
     156A      0.986675   157A      0.989317   158A      0.995250  
     159A      1.000748   160A      1.004065   161A      1.007264  
     162A      1.013011   163A      1.015552   164A      1.026551  
     165A      1.030983   166A      1.037560   167A      1.047245  
     168A      1.048323   169A      1.049686   170A      1.060442  
     171A      1.060803   172A      1.064842   173A      1.069105  
     174A      1.076183   175A      1.080859   176A      1.091951  
     177A      1.097505   178A      1.101519   179A      1.107055  
     180A      1.115082   181A      1.122232   182A      1.126387  
     183A      1.135023   184A      1.143951   185A      1.149809  
     186A      1.154601   187A      1.165072   188A      1.166926  
     189A      1.174153   190A      1.185893   191A      1.192659  
     192A      1.202823   193A      1.206867   194A      1.208343  
     195A      1.222101   196A      1.233239   197A      1.239014  
     198A      1.259410   199A      1.265751   200A      1.269539  
     201A      1.278261   202A      1.282745   203A      1.288943  
     204A      1.302334   205A      1.316798   206A      1.322612  
     207A      1.323318   208A      1.343316   209A      1.355987  
     210A      1.359474   211A      1.367645   212A      1.376195  
     213A      1.393861   214A      1.407180   215A      1.416432  
     216A      1.425980   217A      1.431654   218A      1.438913  
     219A      1.453426   220A      1.465286   221A      1.469151  
     222A      1.480641   223A      1.488889   224A      1.497692  
     225A      1.516456   226A      1.532424   227A      1.539489  
     228A      1.556445   229A      1.562896   230A      1.578228  
     231A      1.590955   232A      1.615183   233A      1.635991  
     234A      1.659543   235A      1.680431   236A      1.689107  
     237A      1.700835   238A      1.709520   239A      1.717919  
     240A      1.724232   241A      1.735487   242A      1.735830  
     243A      1.741646   244A      1.750125   245A      1.753378  
     246A      1.761092   247A      1.770720   248A      1.779392  
     249A      1.781676   250A      1.796449   251A      1.805089  
     252A      1.821897   253A      1.826398   254A      1.838987  
     255A      1.842892   256A      1.855202   257A      1.870055  
     258A      1.873775   259A      1.883013   260A      1.889199  
     261A      1.906879   262A      1.923065   263A      1.935165  
     264A      1.940071   265A      1.953827   266A      1.974227  
     267A      1.985646   268A      1.995305   269A      2.004361  
     270A      2.023189   271A      2.031258   272A      2.056400  
     273A      2.070504   274A      2.086622   275A      2.109009  
     276A      2.154882   277A      2.198815   278A      2.260700  
     279A      2.304786   280A      2.331865   281A      2.387144  
     282A      2.404667   283A      2.423280   284A      2.434994  
     285A      2.447385   286A      2.448521   287A      2.459280  
     288A      2.474170   289A      2.482230   290A      2.492957  
     291A      2.500601   292A      2.506020   293A      2.514575  
     294A      2.521555   295A      2.531368   296A      2.537037  
     297A      2.542964   298A      2.552491   299A      2.552749  
     300A      2.568315   301A      2.575057   302A      2.585369  
     303A      2.589639   304A      2.597137   305A      2.614959  
     306A      2.619039   307A      2.624935   308A      2.639593  
     309A      2.644123   310A      2.653688   311A      2.659927  
     312A      2.665898   313A      2.674018   314A      2.683949  
     315A      2.687234   316A      2.691688   317A      2.701736  
     318A      2.727461   319A      2.733545   320A      2.743945  
     321A      2.759643   322A      2.774282   323A      2.782665  
     324A      2.793200   325A      2.810369   326A      2.834699  
     327A      2.840001   328A      2.854510   329A      2.876686  
     330A      2.880763   331A      2.907444   332A      2.945317  
     333A      2.953448   334A      2.974114   335A      2.980282  
     336A      3.002557   337A      3.032207   338A      3.135536  
     339A      3.142042   340A      3.155304   341A      3.172385  
     342A      3.178568   343A      3.180142   344A      3.188807  
     345A      3.201534   346A      3.203443   347A      3.206682  
     348A      3.223730   349A      3.228036   350A      3.231387  
     351A      3.265733   352A      3.296006   353A      3.317204  
     354A      3.320301   355A      3.339178   356A      3.361197  
     357A      3.370663   358A      3.375656   359A      3.404782  
     360A      3.417937   361A      3.437735   362A      3.451979  
     363A      3.467824   364A      3.473570   365A      3.489792  
     366A      3.510849   367A      3.533280   368A      3.551271  
     369A      3.567669   370A      3.575267   371A      3.580705  
     372A      3.590984   373A      3.635068   374A      3.646117  
     375A      3.653390   376A      3.664668   377A      3.670825  
     378A      3.697941   379A      3.724544   380A      3.769025  
     381A      3.788334   382A      3.798333   383A      3.807522  
     384A      3.819698   385A      3.838591   386A      3.853646  
     387A      3.902732   388A      3.951918   389A      4.020626  
     390A      4.064132   391A      4.098334   392A      4.255500  
     393A      4.288788   394A      4.315179   395A      4.357321  
     396A      4.379779   397A      4.392589   398A      4.397068  
     399A      4.409345   400A      4.416120   401A      4.427116  
     402A      4.441588   403A      4.454201   404A      4.457279  
     405A      4.463626   406A      4.485996   407A      4.486670  
     408A      4.494364   409A      4.499511   410A      4.509892  
     411A      4.534840   412A      4.562081   413A      4.576217  
     414A      4.584843   415A      4.591476   416A      4.602578  
     417A      4.609193   418A      4.612996   419A      4.633270  
     420A      4.667449   421A      4.684224   422A      4.694114  
     423A      4.710143   424A      4.717049   425A      4.727616  
     426A      4.769504   427A      4.776799   428A      4.786862  
     429A      4.869170   430A      4.870980   431A      4.882946  
     432A      4.887294   433A      4.888292   434A      4.901761  
     435A      4.904026   436A      4.913324   437A      4.930896  
     438A      4.936263   439A      4.944698   440A      4.947984  
     441A      4.962583   442A      4.977874   443A      5.006480  
     444A      5.063336   445A      5.072091   446A      5.094284  
     447A      5.154928   448A      5.171076   449A      5.213367  
     450A      5.239509   451A      5.300921   452A      5.306038  
     453A      5.344748   454A      5.356954   455A      5.451700  
     456A      5.454172   457A      5.460749   458A      5.501268  
     459A      5.508835   460A      5.513249   461A      5.538573  
     462A      5.544417   463A      5.556233   464A      5.567305  
     465A      5.572336   466A      5.575396   467A      5.583188  
     468A      5.590147   469A      5.627923   470A      5.718724  
     471A      5.763268   472A      5.804461   473A      5.814383  
     474A      5.837885   475A      5.847258   476A      5.885536  
     477A      5.892958   478A      6.133789   479A      6.143066  
     480A      6.150400   481A      6.164078   482A      6.170784  
     483A      6.220047   484A      6.353948   485A      6.356422  
     486A      6.366953   487A      6.410006   488A      6.433737  
     489A      6.504533   490A      6.576150   491A      6.600482  
     492A      6.606341   493A      6.626203   494A      6.661600  
     495A      6.785993   496A      6.928598   497A      6.989701  
     498A      7.011285   499A      7.066376   500A      7.105361  
     501A      7.115264   502A      7.153527   503A      7.267810  
     504A      7.347446   505A      7.379277   506A      7.451477  
     507A      7.494579   508A      7.686318   509A      7.699541  
     510A      7.706286   511A      7.719550   512A      7.737017  
     513A      7.759741   514A      7.816422   515A      7.832039  
     516A      7.862189   517A      7.862235   518A      7.873565  
     519A      7.943871   520A      7.985859   521A      8.033633  
     522A      8.034127   523A      8.037571   524A      8.064174  
     525A      8.074782   526A      8.082690   527A      8.147141  
     528A      8.195251   529A      8.197746   530A      8.210421  
     531A      8.239293   532A      8.257526   533A      8.277429  
     534A      8.297648   535A      8.303019   536A      8.689115  
     537A      8.690414   538A      8.706268   539A      8.747896  
     540A      8.759289   541A      8.810211   542A      8.830106  
     543A      8.837708   544A      8.868412   545A      8.938682  
     546A      8.966080   547A      9.693439   548A      9.697682  
     549A      9.714314   550A      9.725544   551A      9.750500  
     552A      9.844029   553A      9.864093   554A      9.879175  
     555A      9.891062   556A      9.910292   557A     10.004004  
     558A     10.038728   559A     10.065824   560A     10.083795  
     561A     10.100280   562A     10.269786   563A     10.284951  
     564A     10.292694   565A     10.326660   566A     10.358873  
     567A     10.995441   568A     11.077804   569A     11.083375  
     570A     11.111184   571A     11.130588   572A     11.167254  
     573A     11.625124   574A     11.657654   575A     11.711390  
     576A     11.742003   577A     11.785577   578A     11.899163  
     579A     11.929561   580A     12.068769   581A     12.151683  
     582A     12.279052   583A     13.471984   584A     13.503224  
     585A     13.522039   586A     13.556068   587A     13.566933  
     588A     13.803414   589A     13.865441   590A     13.909265  
     591A     13.951232   592A     13.958589   593A     13.969096  
     594A     14.045509   595A     14.156298   596A     16.703513  
     597A     26.349665   598A     26.357664   599A     26.451048  
     600A     26.666368   601A     26.789971   602A     46.564257  
     603A     64.566412   604A     64.835593   605A     64.994017  
     606A     65.780332   607A     65.971570   608A    138.949951  
     609A    139.270390   610A    139.388048   611A    711.919447  

    Final Occupation by Irrep:
              A 
    DOCC [     5 ]
    NA   [     5 ]
    NB   [     5 ]

  @DF-RHF Final Energy:   -76.05867296327031

   => Energetics <=

    Nuclear Repulsion Energy =              9.2061296751430284
    One-Electron Energy =                -123.0688356862897450
    Two-Electron Energy =                  37.8040330478763877
    Total Energy =                        -76.0586729632703253

Computation Completed


Properties will be evaluated at   0.000000,   0.000000,   0.000000 [a0]

Properties computed using the SCF density matrix


 Multipole Moments:

 ------------------------------------------------------------------------------------
     Multipole            Electronic (a.u.)      Nuclear  (a.u.)        Total (a.u.)
 ------------------------------------------------------------------------------------

 L = 1.  Multiply by 2.5417464519 to convert [e a0] to [Debye]
 Dipole X            :        -10.5591109           10.8771540            0.3180431
 Dipole Y            :          4.7281792           -4.0811508            0.6470284
 Dipole Z            :         63.6609230          -63.4318869            0.2290360
 Magnitude           :                                                    0.7564752

 ------------------------------------------------------------------------------------

*** tstop() called on ddmfs1 at Mon Jan 22 23:39:31 2024
Module time:
	user time   =     145.62 seconds =       2.43 minutes
	system time =       8.83 seconds =       0.15 minutes
	total time  =         12 seconds =       0.20 minutes
Total time:
	user time   =     145.62 seconds =       2.43 minutes
	system time =       8.83 seconds =       0.15 minutes
	total time  =         12 seconds =       0.20 minutes

*** tstart() called on ddmfs1
*** at Mon Jan 22 23:39:31 2024


  //>>>>>>>>>>>>>>>>>>>>>>>>>>>>>>>>>>>//
  //               DFMP2               //
  //<<<<<<<<<<<<<<<<<<<<<<<<<<<<<<<<<<<//

   => Loading Basis Set <=

    Name: (AUG-CC-PVTZ AUX)
    Role: RIFIT
    Keyword: DF_BASIS_MP2
    atoms 1                                   entry BR         line  1248 file /ddmfs1b/softs/psi4conda/share/psi4/basis/aug-cc-pvtz-ri.gbs 
    atoms 2, 5, 8, 11, 14, 17                 entry O          line   264 file /ddmfs1b/softs/psi4conda/share/psi4/basis/aug-cc-pvtz-ri.gbs 
    atoms 3-4, 6-7, 9-10, 12-13, 15-16, 18-19 entry H          line    30 file /ddmfs1b/softs/psi4conda/share/psi4/basis/aug-cc-pvtz-ri.gbs 

	 --------------------------------------------------------
	                          DF-MP2                         
	      2nd-Order Density-Fitted Moller-Plesset Theory     
	              RMP2 Wavefunction,  20 Threads             
	                                                         
	        Rob Parrish, Justin Turney, Andy Simmonett,      
	           Ed Hohenstein, and C. David Sherrill          
	 --------------------------------------------------------

   => Auxiliary Basis Set <=

  Basis Set: (AUG-CC-PVTZ AUX)
    Blend: AUG-CC-PVTZ-RI
    Number of shells: 379
    Number of basis functions: 1379
    Number of Cartesian functions: 1737
    Spherical Harmonics?: true
    Max angular momentum: 5

	 --------------------------------------------------------
	                 NBF =   611, NAUX =  1379
	 --------------------------------------------------------
	   CLASS    FOCC     OCC    AOCC    AVIR     VIR    FVIR
	   PAIRS       0       5       5     606     606       0
	 --------------------------------------------------------

	-----------------------------------------------------------
	 ==================> DF-MP2 Energies <==================== 
	-----------------------------------------------------------
	 Reference Energy          =     -76.0586729632703111 [Eh]
	 Singles Energy            =      -0.0000000000000000 [Eh]
	 Same-Spin Energy          =      -0.0683014764980236 [Eh]
	 Opposite-Spin Energy      =      -0.2155202362351195 [Eh]
	 Correlation Energy        =      -0.2838217127331431 [Eh]
	 Total Energy              =     -76.3424946760034544 [Eh]
	-----------------------------------------------------------
	 ================> DF-SCS-MP2 Energies <================== 
	-----------------------------------------------------------
	 SCS Same-Spin Scale       =       0.3333333333333333 [-]
	 SCS Opposite-Spin Scale   =       1.2000000000000000 [-]
	 SCS Same-Spin Energy      =      -0.0227671588326745 [Eh]
	 SCS Opposite-Spin Energy  =      -0.2586242834821434 [Eh]
	 SCS Correlation Energy    =      -0.2813914423148179 [Eh]
	 SCS Total Energy          =     -76.3400644055851245 [Eh]
	-----------------------------------------------------------


*** tstop() called on ddmfs1 at Mon Jan 22 23:39:45 2024
Module time:
	user time   =      43.93 seconds =       0.73 minutes
	system time =       3.03 seconds =       0.05 minutes
	total time  =         14 seconds =       0.23 minutes
Total time:
	user time   =     189.57 seconds =       3.16 minutes
	system time =      11.86 seconds =       0.20 minutes
	total time  =         26 seconds =       0.43 minutes

    Psi4 stopped on: Monday, 22 January 2024 11:39PM
    Psi4 wall time for execution: 0:00:25.22

*** Psi4 exiting successfully. Buy a developer a beer!
