
    -----------------------------------------------------------------------
          Psi4: An Open-Source Ab Initio Electronic Structure Package
                               Psi4 1.8.2 release

                         Git: Rev {} zzzzzzz 


    D. G. A. Smith, L. A. Burns, A. C. Simmonett, R. M. Parrish,
    M. C. Schieber, R. Galvelis, P. Kraus, H. Kruse, R. Di Remigio,
    A. Alenaizan, A. M. James, S. Lehtola, J. P. Misiewicz, M. Scheurer,
    R. A. Shaw, J. B. Schriber, Y. Xie, Z. L. Glick, D. A. Sirianni,
    J. S. O'Brien, J. M. Waldrop, A. Kumar, E. G. Hohenstein,
    B. P. Pritchard, B. R. Brooks, H. F. Schaefer III, A. Yu. Sokolov,
    K. Patkowski, A. E. DePrince III, U. Bozkaya, R. A. King,
    F. A. Evangelista, J. M. Turney, T. D. Crawford, C. D. Sherrill,
    J. Chem. Phys. 152(18) 184108 (2020). https://doi.org/10.1063/5.0006002

                            Additional Code Authors
    E. T. Seidl, C. L. Janssen, E. F. Valeev, M. L. Leininger,
    J. F. Gonthier, R. M. Richard, H. R. McAlexander, M. Saitow, X. Wang,
    P. Verma, M. H. Lechner, A. Jiang, S. Behnle, A. G. Heide,
    M. F. Herbst, and D. L. Poole

             Previous Authors, Complete List of Code Contributors,
                       and Citations for Specific Modules
    https://github.com/psi4/psi4/blob/master/codemeta.json
    https://github.com/psi4/psi4/graphs/contributors
    http://psicode.org/psi4manual/master/introduction.html#citing-psifour

    -----------------------------------------------------------------------


    Psi4 started on: Monday, 22 January 2024 11:29PM

    Process ID: 117117
    Host:       ddmfs1
    PSIDATADIR: /ddmfs1b/softs/psi4conda/share/psi4
    Memory:     500.0 MiB
    Threads:    20
    
  ==> Input File <==

--------------------------------------------------------------------------
MEMORY 60 GB

molecule dimer {
0 1
Gh(Br)     0.000000     0.000000     0.000000
O         -1.555931    -2.410735     1.903242
H         -1.336158    -1.685951     1.329705
H         -1.202065    -2.143102     2.753233
Gh(O)      1.417048     1.968120    -2.039520
Gh(H)      1.167136     1.401234    -1.339808
Gh(H)      2.306972     2.196646    -1.827799
Gh(O)     -2.508795     2.074873    -1.101146
Gh(H)     -3.092353     1.814461    -0.316996
Gh(H)     -1.909740     1.348917    -1.007525
Gh(O)      2.328483    -2.470186    -0.546566
Gh(H)      1.861807    -3.293107    -0.316598
Gh(H)      1.615156    -1.824846    -0.512308
Gh(O)     -1.332291    -0.652158    -3.288020
Gh(H)     -0.891184    -0.465234    -2.411088
Gh(H)     -0.886797    -0.114013    -3.927637

units ang
no_reorient
no_com
symmetry c1
}

set {
basis        aug-cc-pVTZ
scf_type     df
}

energy("mp2")
--------------------------------------------------------------------------

  Memory set to  55.879 GiB by Python driver.

Scratch directory: /ddmfs1a/scratch/
   => Libint2 <=

    Primary   basis highest AM E, G, H:  5, 4, 3
    Auxiliary basis highest AM E, G, H:  6, 5, 4
    Onebody   basis highest AM E, G, H:  6, 5, 4
    Solid Harmonics ordering:            gaussian

*** tstart() called on ddmfs1
*** at Mon Jan 22 23:29:00 2024

   => Loading Basis Set <=

    Name: AUG-CC-PVTZ
    Role: ORBITAL
    Keyword: BASIS
    atoms 1                            entry BR         line  4208 file /ddmfs1b/softs/psi4conda/share/psi4/basis/aug-cc-pvtz.gbs 
    atoms 2, 5, 8, 11, 14              entry O          line   331 file /ddmfs1b/softs/psi4conda/share/psi4/basis/aug-cc-pvtz.gbs 
    atoms 3-4, 6-7, 9-10, 12-13, 15-16 entry H          line    40 file /ddmfs1b/softs/psi4conda/share/psi4/basis/aug-cc-pvtz.gbs 


         ---------------------------------------------------------
                                   SCF
               by Justin Turney, Rob Parrish, Andy Simmonett
                          and Daniel G. A. Smith
                              RHF Reference
                       20 Threads,  57220 MiB Core
         ---------------------------------------------------------

  ==> Geometry <==

    Molecular point group: c1
    Full point group: C1

    Geometry (in Angstrom), charge = 0, multiplicity = 1:

       Center              X                  Y                   Z               Mass       
    ------------   -----------------  -----------------  -----------------  -----------------
      Gh(BR)          0.000000000000     0.000000000000     0.000000000000    78.918337600000
         O           -1.555931000000    -2.410735000000     1.903242000000    15.994914619570
         H           -1.336158000000    -1.685951000000     1.329705000000     1.007825032230
         H           -1.202065000000    -2.143102000000     2.753233000000     1.007825032230
      Gh(O)           1.417048000000     1.968120000000    -2.039520000000    15.994914619570
      Gh(H)           1.167136000000     1.401234000000    -1.339808000000     1.007825032230
      Gh(H)           2.306972000000     2.196646000000    -1.827799000000     1.007825032230
      Gh(O)          -2.508795000000     2.074873000000    -1.101146000000    15.994914619570
      Gh(H)          -3.092353000000     1.814461000000    -0.316996000000     1.007825032230
      Gh(H)          -1.909740000000     1.348917000000    -1.007525000000     1.007825032230
      Gh(O)           2.328483000000    -2.470186000000    -0.546566000000    15.994914619570
      Gh(H)           1.861807000000    -3.293107000000    -0.316598000000     1.007825032230
      Gh(H)           1.615156000000    -1.824846000000    -0.512308000000     1.007825032230
      Gh(O)          -1.332291000000    -0.652158000000    -3.288020000000    15.994914619570
      Gh(H)          -0.891184000000    -0.465234000000    -2.411088000000     1.007825032230
      Gh(H)          -0.886797000000    -0.114013000000    -3.927637000000     1.007825032230

  Running in c1 symmetry.

  Rotational constants: A =      0.03136  B =      0.02373  C =      0.02032 [cm^-1]
  Rotational constants: A =    940.03676  B =    711.40872  C =    609.06575 [MHz]
  Nuclear repulsion =    9.223850922281279

  Charge       = 0
  Multiplicity = 1
  Electrons    = 10
  Nalpha       = 5
  Nbeta        = 5

  ==> Algorithm <==

  SCF Algorithm Type is DF.
  DIIS enabled.
  MOM disabled.
  Fractional occupation disabled.
  Guess Type is SAD.
  Energy threshold   = 1.00e-08
  Density threshold  = 1.00e-08
  Integral threshold = 1.00e-12

  ==> Primary Basis <==

  Basis Set: AUG-CC-PVTZ
    Blend: AUG-CC-PVTZ
    Number of shells: 179
    Number of basis functions: 519
    Number of Cartesian functions: 594
    Spherical Harmonics?: true
    Max angular momentum: 3

   => Loading Basis Set <=

    Name: (AUG-CC-PVTZ AUX)
    Role: JKFIT
    Keyword: DF_BASIS_SCF
    atoms 1                            entry BR         line  1492 file /ddmfs1b/softs/psi4conda/share/psi4/basis/aug-cc-pvtz-jkfit.gbs 
    atoms 2, 5, 8, 11, 14              entry O          line   286 file /ddmfs1b/softs/psi4conda/share/psi4/basis/aug-cc-pvtz-jkfit.gbs 
    atoms 3-4, 6-7, 9-10, 12-13, 15-16 entry H          line    70 file /ddmfs1b/softs/psi4conda/share/psi4/basis/aug-cc-pvtz-jkfit.gbs 

  ==> Integral Setup <==

  DFHelper Memory: AOs need 2.199 GiB; user supplied 41.910 GiB. 
  Using in-core AOs.

  ==> MemDFJK: Density-Fitted J/K Matrices <==

    J tasked:                   Yes
    K tasked:                   Yes
    wK tasked:                   No
    OpenMP threads:              20
    Memory [MiB]:             42915
    Algorithm:                 Core
    Schwarz Cutoff:           1E-12
    Mask sparsity (%):      15.0452
    Fitting Condition:        1E-10

   => Auxiliary Basis Set <=

  Basis Set: (AUG-CC-PVTZ AUX)
    Blend: AUG-CC-PVTZ-JKFIT
    Number of shells: 348
    Number of basis functions: 1228
    Number of Cartesian functions: 1534
    Spherical Harmonics?: true
    Max angular momentum: 4

  Minimum eigenvalue in the overlap matrix is 1.2853777522E-04.
  Reciprocal condition number of the overlap matrix is 1.0979785090E-05.
    Using symmetric orthogonalization.

  ==> Pre-Iterations <==

  SCF Guess: Superposition of Atomic Densities via on-the-fly atomic UHF (no occupation information).

   -------------------------
    Irrep   Nso     Nmo    
   -------------------------
     A        519     519 
   -------------------------
    Total     519     519
   -------------------------

  ==> Iterations <==

                           Total Energy        Delta E     RMS |[F,P]|

   @DF-RHF iter SAD:   -75.48209283688092   -7.54821e+01   0.00000e+00 
   @DF-RHF iter   1:   -75.97646553346260   -4.94373e-01   9.03829e-04 DIIS/ADIIS
   @DF-RHF iter   2:   -76.02917455174031   -5.27090e-02   6.13037e-04 DIIS/ADIIS
   @DF-RHF iter   3:   -76.06030261547481   -3.11281e-02   4.16135e-05 DIIS
   @DF-RHF iter   4:   -76.06068485961281   -3.82244e-04   9.83898e-06 DIIS
   @DF-RHF iter   5:   -76.06070812067806   -2.32611e-05   2.22688e-06 DIIS
   @DF-RHF iter   6:   -76.06071000949188   -1.88881e-06   4.86863e-07 DIIS
   @DF-RHF iter   7:   -76.06071010911518   -9.96233e-08   8.80018e-08 DIIS
   @DF-RHF iter   8:   -76.06071011198502   -2.86984e-09   1.46195e-08 DIIS
   @DF-RHF iter   9:   -76.06071011204661   -6.15898e-11   3.54364e-09 DIIS
  Energy and wave function converged.


  ==> Post-Iterations <==

    Orbital Energies [Eh]
    ---------------------

    Doubly Occupied:                                                      

       1A    -20.566992     2A     -1.355633     3A     -0.717756  
       4A     -0.587027     5A     -0.510823  

    Virtual:                                                              

       6A      0.014837     7A      0.031550     8A      0.034500  
       9A      0.039375    10A      0.050022    11A      0.056439  
      12A      0.061115    13A      0.064351    14A      0.078736  
      15A      0.084504    16A      0.090000    17A      0.104144  
      18A      0.108807    19A      0.119414    20A      0.129350  
      21A      0.139223    22A      0.142654    23A      0.146774  
      24A      0.151874    25A      0.155837    26A      0.159597  
      27A      0.163555    28A      0.174519    29A      0.178059  
      30A      0.184146    31A      0.190485    32A      0.196212  
      33A      0.199436    34A      0.203990    35A      0.207431  
      36A      0.221462    37A      0.225333    38A      0.230840  
      39A      0.249685    40A      0.253689    41A      0.260745  
      42A      0.264989    43A      0.270748    44A      0.282800  
      45A      0.286248    46A      0.296422    47A      0.302221  
      48A      0.311343    49A      0.313183    50A      0.319987  
      51A      0.322461    52A      0.327262    53A      0.331880  
      54A      0.335310    55A      0.347188    56A      0.351687  
      57A      0.355106    58A      0.363311    59A      0.369460  
      60A      0.380289    61A      0.386663    62A      0.389483  
      63A      0.396950    64A      0.400510    65A      0.405521  
      66A      0.417762    67A      0.423180    68A      0.426031  
      69A      0.437150    70A      0.454661    71A      0.457302  
      72A      0.467625    73A      0.484894    74A      0.486221  
      75A      0.491455    76A      0.504624    77A      0.518471  
      78A      0.535262    79A      0.538567    80A      0.558421  
      81A      0.564831    82A      0.583595    83A      0.590589  
      84A      0.597139    85A      0.607923    86A      0.620914  
      87A      0.631908    88A      0.665897    89A      0.674292  
      90A      0.696690    91A      0.700725    92A      0.708176  
      93A      0.717511    94A      0.724911    95A      0.729667  
      96A      0.740936    97A      0.749502    98A      0.757211  
      99A      0.763050   100A      0.770515   101A      0.777562  
     102A      0.778963   103A      0.786651   104A      0.793527  
     105A      0.800290   106A      0.806180   107A      0.815220  
     108A      0.816278   109A      0.829166   110A      0.829344  
     111A      0.832691   112A      0.837653   113A      0.849868  
     114A      0.853408   115A      0.857712   116A      0.860802  
     117A      0.866839   118A      0.880259   119A      0.885204  
     120A      0.889184   121A      0.893255   122A      0.907131  
     123A      0.912511   124A      0.924185   125A      0.928382  
     126A      0.937367   127A      0.941614   128A      0.947529  
     129A      0.951861   130A      0.953461   131A      0.961579  
     132A      0.964368   133A      0.966400   134A      0.978674  
     135A      0.986970   136A      0.990344   137A      0.993396  
     138A      1.003094   139A      1.005890   140A      1.008866  
     141A      1.012052   142A      1.021884   143A      1.027945  
     144A      1.029919   145A      1.038079   146A      1.043652  
     147A      1.045400   148A      1.056153   149A      1.061631  
     150A      1.068749   151A      1.072016   152A      1.082300  
     153A      1.094742   154A      1.099101   155A      1.122915  
     156A      1.126019   157A      1.127469   158A      1.141228  
     159A      1.148913   160A      1.158332   161A      1.175269  
     162A      1.178793   163A      1.186317   164A      1.198241  
     165A      1.202316   166A      1.210452   167A      1.227046  
     168A      1.240268   169A      1.246493   170A      1.256466  
     171A      1.260494   172A      1.265978   173A      1.284804  
     174A      1.290783   175A      1.295410   176A      1.299851  
     177A      1.306489   178A      1.314845   179A      1.331818  
     180A      1.344298   181A      1.366894   182A      1.370316  
     183A      1.381851   184A      1.395471   185A      1.422339  
     186A      1.434070   187A      1.447595   188A      1.463805  
     189A      1.472701   190A      1.495641   191A      1.512090  
     192A      1.514011   193A      1.530851   194A      1.549245  
     195A      1.555030   196A      1.560579   197A      1.589071  
     198A      1.603008   199A      1.612245   200A      1.633637  
     201A      1.640761   202A      1.649373   203A      1.665348  
     204A      1.689540   205A      1.709532   206A      1.718079  
     207A      1.732349   208A      1.738201   209A      1.745790  
     210A      1.760324   211A      1.763622   212A      1.771669  
     213A      1.783353   214A      1.801589   215A      1.814050  
     216A      1.817622   217A      1.838675   218A      1.852084  
     219A      1.858691   220A      1.861748   221A      1.882127  
     222A      1.899762   223A      1.906216   224A      1.917183  
     225A      1.932031   226A      1.937718   227A      1.963478  
     228A      1.968176   229A      1.986446   230A      1.989229  
     231A      2.010529   232A      2.037517   233A      2.055234  
     234A      2.075097   235A      2.174273   236A      2.196936  
     237A      2.239127   238A      2.301340   239A      2.320309  
     240A      2.388674   241A      2.407622   242A      2.454288  
     243A      2.463225   244A      2.465119   245A      2.476711  
     246A      2.478969   247A      2.483014   248A      2.492684  
     249A      2.499913   250A      2.504174   251A      2.511590  
     252A      2.523342   253A      2.538450   254A      2.548197  
     255A      2.553689   256A      2.555898   257A      2.568051  
     258A      2.579185   259A      2.597341   260A      2.600521  
     261A      2.615445   262A      2.620369   263A      2.639701  
     264A      2.653038   265A      2.657819   266A      2.664155  
     267A      2.677554   268A      2.680594   269A      2.688739  
     270A      2.698082   271A      2.719173   272A      2.720771  
     273A      2.725159   274A      2.747545   275A      2.751996  
     276A      2.788149   277A      2.794550   278A      2.810114  
     279A      2.833032   280A      2.873716   281A      2.878444  
     282A      2.906964   283A      2.929680   284A      2.948501  
     285A      2.983516   286A      2.991108   287A      2.995822  
     288A      3.116174   289A      3.139655   290A      3.149175  
     291A      3.166161   292A      3.183951   293A      3.195299  
     294A      3.212029   295A      3.219321   296A      3.223215  
     297A      3.239409   298A      3.273915   299A      3.287048  
     300A      3.293714   301A      3.308071   302A      3.332200  
     303A      3.374163   304A      3.379761   305A      3.398972  
     306A      3.403822   307A      3.443013   308A      3.456215  
     309A      3.465228   310A      3.498252   311A      3.507163  
     312A      3.515201   313A      3.522862   314A      3.550235  
     315A      3.554094   316A      3.566961   317A      3.593424  
     318A      3.604534   319A      3.631483   320A      3.636438  
     321A      3.663780   322A      3.677866   323A      3.690293  
     324A      3.741128   325A      3.754691   326A      3.805518  
     327A      3.824042   328A      3.863224   329A      3.870157  
     330A      3.922037   331A      3.956218   332A      3.981651  
     333A      4.070026   334A      4.097074   335A      4.210473  
     336A      4.278978   337A      4.295544   338A      4.337075  
     339A      4.362827   340A      4.401113   341A      4.407612  
     342A      4.412591   343A      4.431150   344A      4.438093  
     345A      4.455196   346A      4.460962   347A      4.475350  
     348A      4.488626   349A      4.500891   350A      4.508095  
     351A      4.518766   352A      4.554469   353A      4.569137  
     354A      4.577928   355A      4.598001   356A      4.619202  
     357A      4.622178   358A      4.659756   359A      4.693576  
     360A      4.698441   361A      4.705926   362A      4.747176  
     363A      4.753737   364A      4.798525   365A      4.823741  
     366A      4.840087   367A      4.848644   368A      4.882261  
     369A      4.889932   370A      4.904800   371A      4.918955  
     372A      4.925046   373A      4.932931   374A      4.938048  
     375A      4.951286   376A      4.972409   377A      4.980288  
     378A      4.991882   379A      5.002997   380A      5.038251  
     381A      5.181597   382A      5.210053   383A      5.253324  
     384A      5.288537   385A      5.304391   386A      5.329585  
     387A      5.366175   388A      5.429050   389A      5.478895  
     390A      5.484227   391A      5.543807   392A      5.556806  
     393A      5.559806   394A      5.597311   395A      5.599775  
     396A      5.646847   397A      5.666178   398A      5.690729  
     399A      5.714967   400A      5.726850   401A      5.731240  
     402A      5.746743   403A      5.850593   404A      5.904741  
     405A      5.928024   406A      6.007078   407A      6.138620  
     408A      6.151111   409A      6.165323   410A      6.191996  
     411A      6.220755   412A      6.237936   413A      6.394479  
     414A      6.428480   415A      6.522283   416A      6.545274  
     417A      6.568350   418A      6.635578   419A      6.681412  
     420A      6.755727   421A      6.826508   422A      6.963554  
     423A      7.074109   424A      7.081697   425A      7.093253  
     426A      7.156414   427A      7.219784   428A      7.301711  
     429A      7.340743   430A      7.357924   431A      7.387371  
     432A      7.456238   433A      7.691666   434A      7.696612  
     435A      7.722063   436A      7.728382   437A      7.759422  
     438A      7.832840   439A      7.870964   440A      7.891355  
     441A      7.930834   442A      7.957844   443A      7.983854  
     444A      8.005582   445A      8.031526   446A      8.040066  
     447A      8.069958   448A      8.088031   449A      8.143737  
     450A      8.236894   451A      8.239855   452A      8.283365  
     453A      8.287154   454A      8.301633   455A      8.356411  
     456A      8.690655   457A      8.763745   458A      8.777822  
     459A      8.870373   460A      8.902011   461A      8.918603  
     462A      8.940699   463A      8.963852   464A      9.148768  
     465A      9.642242   466A      9.678876   467A      9.709687  
     468A      9.729549   469A      9.859929   470A      9.877485  
     471A      9.886598   472A      9.906585   473A     10.054934  
     474A     10.057683   475A     10.067257   476A     10.085913  
     477A     10.273483   478A     10.302362   479A     10.328615  
     480A     10.338677   481A     11.065546   482A     11.078008  
     483A     11.164618   484A     11.211356   485A     11.401365  
     486A     11.694260   487A     11.711753   488A     11.787754  
     489A     11.795952   490A     12.084240   491A     12.116857  
     492A     12.134542   493A     12.434577   494A     13.531258  
     495A     13.553105   496A     13.580507   497A     13.769266  
     498A     13.825349   499A     13.886667   500A     13.941700  
     501A     13.966804   502A     13.996415   503A     14.048612  
     504A     14.207218   505A     16.674569   506A     26.326098  
     507A     26.352427   508A     26.417603   509A     26.531794  
     510A     26.793147   511A     46.589850   512A     65.193224  
     513A     65.386706   514A     65.923797   515A     67.720630  
     516A    139.000248   517A    139.205020   518A    139.406347  
     519A    712.038876  

    Final Occupation by Irrep:
              A 
    DOCC [     5 ]
    NA   [     5 ]
    NB   [     5 ]

  @DF-RHF Final Energy:   -76.06071011204661

   => Energetics <=

    Nuclear Repulsion Energy =              9.2238509222812795
    One-Electron Energy =                -123.0926593138858038
    Two-Electron Energy =                  37.8080982795579175
    Total Energy =                        -76.0607101120465927

Computation Completed


Properties will be evaluated at   0.000000,   0.000000,   0.000000 [a0]

Properties computed using the SCF density matrix


 Multipole Moments:

 ------------------------------------------------------------------------------------
     Multipole            Electronic (a.u.)      Nuclear  (a.u.)        Total (a.u.)
 ------------------------------------------------------------------------------------

 L = 1.  Multiply by 2.5417464519 to convert [e a0] to [Debye]
 Dipole X            :         28.6998865          -28.3188140            0.3810725
 Dipole Y            :         44.3415872          -43.6808928            0.6606944
 Dipole Z            :        -36.3063138           36.4884837            0.1821698
 Magnitude           :                                                    0.7841678

 ------------------------------------------------------------------------------------

*** tstop() called on ddmfs1 at Mon Jan 22 23:29:08 2024
Module time:
	user time   =     101.38 seconds =       1.69 minutes
	system time =       6.80 seconds =       0.11 minutes
	total time  =          8 seconds =       0.13 minutes
Total time:
	user time   =     101.38 seconds =       1.69 minutes
	system time =       6.80 seconds =       0.11 minutes
	total time  =          8 seconds =       0.13 minutes

*** tstart() called on ddmfs1
*** at Mon Jan 22 23:29:08 2024


  //>>>>>>>>>>>>>>>>>>>>>>>>>>>>>>>>>>>//
  //               DFMP2               //
  //<<<<<<<<<<<<<<<<<<<<<<<<<<<<<<<<<<<//

   => Loading Basis Set <=

    Name: (AUG-CC-PVTZ AUX)
    Role: RIFIT
    Keyword: DF_BASIS_MP2
    atoms 1                            entry BR         line  1248 file /ddmfs1b/softs/psi4conda/share/psi4/basis/aug-cc-pvtz-ri.gbs 
    atoms 2, 5, 8, 11, 14              entry O          line   264 file /ddmfs1b/softs/psi4conda/share/psi4/basis/aug-cc-pvtz-ri.gbs 
    atoms 3-4, 6-7, 9-10, 12-13, 15-16 entry H          line    30 file /ddmfs1b/softs/psi4conda/share/psi4/basis/aug-cc-pvtz-ri.gbs 

	 --------------------------------------------------------
	                          DF-MP2                         
	      2nd-Order Density-Fitted Moller-Plesset Theory     
	              RMP2 Wavefunction,  20 Threads             
	                                                         
	        Rob Parrish, Justin Turney, Andy Simmonett,      
	           Ed Hohenstein, and C. David Sherrill          
	 --------------------------------------------------------

   => Auxiliary Basis Set <=

  Basis Set: (AUG-CC-PVTZ AUX)
    Blend: AUG-CC-PVTZ-RI
    Number of shells: 323
    Number of basis functions: 1181
    Number of Cartesian functions: 1491
    Spherical Harmonics?: true
    Max angular momentum: 5

	 --------------------------------------------------------
	                 NBF =   519, NAUX =  1181
	 --------------------------------------------------------
	   CLASS    FOCC     OCC    AOCC    AVIR     VIR    FVIR
	   PAIRS       0       5       5     514     514       0
	 --------------------------------------------------------

	-----------------------------------------------------------
	 ==================> DF-MP2 Energies <==================== 
	-----------------------------------------------------------
	 Reference Energy          =     -76.0607101120466069 [Eh]
	 Singles Energy            =      -0.0000000000000000 [Eh]
	 Same-Spin Energy          =      -0.0683470263732278 [Eh]
	 Opposite-Spin Energy      =      -0.2156102957350127 [Eh]
	 Correlation Energy        =      -0.2839573221082405 [Eh]
	 Total Energy              =     -76.3446674341548430 [Eh]
	-----------------------------------------------------------
	 ================> DF-SCS-MP2 Energies <================== 
	-----------------------------------------------------------
	 SCS Same-Spin Scale       =       0.3333333333333333 [-]
	 SCS Opposite-Spin Scale   =       1.2000000000000000 [-]
	 SCS Same-Spin Energy      =      -0.0227823421244093 [Eh]
	 SCS Opposite-Spin Energy  =      -0.2587323548820152 [Eh]
	 SCS Correlation Energy    =      -0.2815146970064245 [Eh]
	 SCS Total Energy          =     -76.3422248090530360 [Eh]
	-----------------------------------------------------------


*** tstop() called on ddmfs1 at Mon Jan 22 23:29:19 2024
Module time:
	user time   =      34.31 seconds =       0.57 minutes
	system time =       2.43 seconds =       0.04 minutes
	total time  =         11 seconds =       0.18 minutes
Total time:
	user time   =     135.71 seconds =       2.26 minutes
	system time =       9.23 seconds =       0.15 minutes
	total time  =         19 seconds =       0.32 minutes

    Psi4 stopped on: Monday, 22 January 2024 11:29PM
    Psi4 wall time for execution: 0:00:19.74

*** Psi4 exiting successfully. Buy a developer a beer!
