
    -----------------------------------------------------------------------
          Psi4: An Open-Source Ab Initio Electronic Structure Package
                               Psi4 1.8.2 release

                         Git: Rev {} zzzzzzz 


    D. G. A. Smith, L. A. Burns, A. C. Simmonett, R. M. Parrish,
    M. C. Schieber, R. Galvelis, P. Kraus, H. Kruse, R. Di Remigio,
    A. Alenaizan, A. M. James, S. Lehtola, J. P. Misiewicz, M. Scheurer,
    R. A. Shaw, J. B. Schriber, Y. Xie, Z. L. Glick, D. A. Sirianni,
    J. S. O'Brien, J. M. Waldrop, A. Kumar, E. G. Hohenstein,
    B. P. Pritchard, B. R. Brooks, H. F. Schaefer III, A. Yu. Sokolov,
    K. Patkowski, A. E. DePrince III, U. Bozkaya, R. A. King,
    F. A. Evangelista, J. M. Turney, T. D. Crawford, C. D. Sherrill,
    J. Chem. Phys. 152(18) 184108 (2020). https://doi.org/10.1063/5.0006002

                            Additional Code Authors
    E. T. Seidl, C. L. Janssen, E. F. Valeev, M. L. Leininger,
    J. F. Gonthier, R. M. Richard, H. R. McAlexander, M. Saitow, X. Wang,
    P. Verma, M. H. Lechner, A. Jiang, S. Behnle, A. G. Heide,
    M. F. Herbst, and D. L. Poole

             Previous Authors, Complete List of Code Contributors,
                       and Citations for Specific Modules
    https://github.com/psi4/psi4/blob/master/codemeta.json
    https://github.com/psi4/psi4/graphs/contributors
    http://psicode.org/psi4manual/master/introduction.html#citing-psifour

    -----------------------------------------------------------------------


    Psi4 started on: Monday, 22 January 2024 10:33PM

    Process ID: 113753
    Host:       ddmfs1
    PSIDATADIR: /ddmfs1b/softs/psi4conda/share/psi4
    Memory:     500.0 MiB
    Threads:    20
    
  ==> Input File <==

--------------------------------------------------------------------------
MEMORY 60 GB

molecule dimer {
0 1
Gh(Br)     0.000000     0.000000     0.000000
O         -2.781246     1.510084     1.569551
H         -2.072540     1.009944     1.041255
H         -3.635131     1.011783     1.573126
Gh(O)     -1.440121    -2.331353    -1.915099
Gh(H)     -1.006754    -1.730021    -1.255599
Gh(H)     -1.064572    -3.197794    -1.969547
Gh(O)     -3.247932     0.467714    -1.516885
Gh(H)     -2.362877     0.540347    -1.151819
Gh(H)     -3.475365    -0.447640    -1.620254
Gh(O)      0.031526     3.421465    -0.300243
Gh(H)     -0.878325     3.780621    -0.011616
Gh(H)      0.054833     2.497967    -0.083518
Gh(O)      0.960104     0.920447    -2.955719
Gh(H)      0.402808     0.917896    -2.160409
Gh(H)      0.692381     1.632242    -3.631367

units ang
no_reorient
no_com
symmetry c1
}

set {
basis        aug-cc-pVTZ
scf_type     df
}

energy("mp2")
--------------------------------------------------------------------------

  Memory set to  55.879 GiB by Python driver.

Scratch directory: /ddmfs1a/scratch/
   => Libint2 <=

    Primary   basis highest AM E, G, H:  5, 4, 3
    Auxiliary basis highest AM E, G, H:  6, 5, 4
    Onebody   basis highest AM E, G, H:  6, 5, 4
    Solid Harmonics ordering:            gaussian

*** tstart() called on ddmfs1
*** at Mon Jan 22 22:33:13 2024

   => Loading Basis Set <=

    Name: AUG-CC-PVTZ
    Role: ORBITAL
    Keyword: BASIS
    atoms 1                            entry BR         line  4208 file /ddmfs1b/softs/psi4conda/share/psi4/basis/aug-cc-pvtz.gbs 
    atoms 2, 5, 8, 11, 14              entry O          line   331 file /ddmfs1b/softs/psi4conda/share/psi4/basis/aug-cc-pvtz.gbs 
    atoms 3-4, 6-7, 9-10, 12-13, 15-16 entry H          line    40 file /ddmfs1b/softs/psi4conda/share/psi4/basis/aug-cc-pvtz.gbs 


         ---------------------------------------------------------
                                   SCF
               by Justin Turney, Rob Parrish, Andy Simmonett
                          and Daniel G. A. Smith
                              RHF Reference
                       20 Threads,  57220 MiB Core
         ---------------------------------------------------------

  ==> Geometry <==

    Molecular point group: c1
    Full point group: C1

    Geometry (in Angstrom), charge = 0, multiplicity = 1:

       Center              X                  Y                   Z               Mass       
    ------------   -----------------  -----------------  -----------------  -----------------
      Gh(BR)          0.000000000000     0.000000000000     0.000000000000    78.918337600000
         O           -2.781246000000     1.510084000000     1.569551000000    15.994914619570
         H           -2.072540000000     1.009944000000     1.041255000000     1.007825032230
         H           -3.635131000000     1.011783000000     1.573126000000     1.007825032230
      Gh(O)          -1.440121000000    -2.331353000000    -1.915099000000    15.994914619570
      Gh(H)          -1.006754000000    -1.730021000000    -1.255599000000     1.007825032230
      Gh(H)          -1.064572000000    -3.197794000000    -1.969547000000     1.007825032230
      Gh(O)          -3.247932000000     0.467714000000    -1.516885000000    15.994914619570
      Gh(H)          -2.362877000000     0.540347000000    -1.151819000000     1.007825032230
      Gh(H)          -3.475365000000    -0.447640000000    -1.620254000000     1.007825032230
      Gh(O)           0.031526000000     3.421465000000    -0.300243000000    15.994914619570
      Gh(H)          -0.878325000000     3.780621000000    -0.011616000000     1.007825032230
      Gh(H)           0.054833000000     2.497967000000    -0.083518000000     1.007825032230
      Gh(O)           0.960104000000     0.920447000000    -2.955719000000    15.994914619570
      Gh(H)           0.402808000000     0.917896000000    -2.160409000000     1.007825032230
      Gh(H)           0.692381000000     1.632242000000    -3.631367000000     1.007825032230

  Running in c1 symmetry.

  Rotational constants: A =      0.02590  B =      0.02456  C =      0.02185 [cm^-1]
  Rotational constants: A =    776.40434  B =    736.32558  C =    655.11952 [MHz]
  Nuclear repulsion =    8.770867846797055

  Charge       = 0
  Multiplicity = 1
  Electrons    = 10
  Nalpha       = 5
  Nbeta        = 5

  ==> Algorithm <==

  SCF Algorithm Type is DF.
  DIIS enabled.
  MOM disabled.
  Fractional occupation disabled.
  Guess Type is SAD.
  Energy threshold   = 1.00e-08
  Density threshold  = 1.00e-08
  Integral threshold = 1.00e-12

  ==> Primary Basis <==

  Basis Set: AUG-CC-PVTZ
    Blend: AUG-CC-PVTZ
    Number of shells: 179
    Number of basis functions: 519
    Number of Cartesian functions: 594
    Spherical Harmonics?: true
    Max angular momentum: 3

   => Loading Basis Set <=

    Name: (AUG-CC-PVTZ AUX)
    Role: JKFIT
    Keyword: DF_BASIS_SCF
    atoms 1                            entry BR         line  1492 file /ddmfs1b/softs/psi4conda/share/psi4/basis/aug-cc-pvtz-jkfit.gbs 
    atoms 2, 5, 8, 11, 14              entry O          line   286 file /ddmfs1b/softs/psi4conda/share/psi4/basis/aug-cc-pvtz-jkfit.gbs 
    atoms 3-4, 6-7, 9-10, 12-13, 15-16 entry H          line    70 file /ddmfs1b/softs/psi4conda/share/psi4/basis/aug-cc-pvtz-jkfit.gbs 

  ==> Integral Setup <==

  DFHelper Memory: AOs need 2.297 GiB; user supplied 41.910 GiB. 
  Using in-core AOs.

  ==> MemDFJK: Density-Fitted J/K Matrices <==

    J tasked:                   Yes
    K tasked:                   Yes
    wK tasked:                   No
    OpenMP threads:              20
    Memory [MiB]:             42915
    Algorithm:                 Core
    Schwarz Cutoff:           1E-12
    Mask sparsity (%):      11.0848
    Fitting Condition:        1E-10

   => Auxiliary Basis Set <=

  Basis Set: (AUG-CC-PVTZ AUX)
    Blend: AUG-CC-PVTZ-JKFIT
    Number of shells: 348
    Number of basis functions: 1228
    Number of Cartesian functions: 1534
    Spherical Harmonics?: true
    Max angular momentum: 4

  Minimum eigenvalue in the overlap matrix is 1.5461179900E-04.
  Reciprocal condition number of the overlap matrix is 1.1785369323E-05.
    Using symmetric orthogonalization.

  ==> Pre-Iterations <==

  SCF Guess: Superposition of Atomic Densities via on-the-fly atomic UHF (no occupation information).

   -------------------------
    Irrep   Nso     Nmo    
   -------------------------
     A        519     519 
   -------------------------
    Total     519     519
   -------------------------

  ==> Iterations <==

                           Total Energy        Delta E     RMS |[F,P]|

   @DF-RHF iter SAD:   -75.41908702980338   -7.54191e+01   0.00000e+00 
   @DF-RHF iter   1:   -75.96678044002763   -5.47693e-01   8.97892e-04 DIIS/ADIIS
   @DF-RHF iter   2:   -76.01774684349212   -5.09664e-02   6.38613e-04 DIIS/ADIIS
   @DF-RHF iter   3:   -76.05225361238119   -3.45068e-02   4.37106e-05 DIIS
   @DF-RHF iter   4:   -76.05271748473514   -4.63872e-04   1.15196e-05 DIIS
   @DF-RHF iter   5:   -76.05275314503574   -3.56603e-05   2.71594e-06 DIIS
   @DF-RHF iter   6:   -76.05275630671940   -3.16168e-06   6.16119e-07 DIIS
   @DF-RHF iter   7:   -76.05275648337539   -1.76656e-07   1.16006e-07 DIIS
   @DF-RHF iter   8:   -76.05275648879459   -5.41920e-09   2.05380e-08 DIIS
   @DF-RHF iter   9:   -76.05275648893824   -1.43658e-10   5.55837e-09 DIIS
  Energy and wave function converged.


  ==> Post-Iterations <==

    Orbital Energies [Eh]
    ---------------------

    Doubly Occupied:                                                      

       1A    -20.571594     2A     -1.327640     3A     -0.704685  
       4A     -0.564171     5A     -0.504763  

    Virtual:                                                              

       6A      0.014685     7A      0.033288     8A      0.035335  
       9A      0.039922    10A      0.053658    11A      0.055890  
      12A      0.061424    13A      0.068054    14A      0.079257  
      15A      0.081981    16A      0.089342    17A      0.109413  
      18A      0.114738    19A      0.121464    20A      0.131644  
      21A      0.133941    22A      0.140135    23A      0.144466  
      24A      0.150356    25A      0.156271    26A      0.163195  
      27A      0.168078    28A      0.173216    29A      0.182166  
      30A      0.188552    31A      0.191227    32A      0.196827  
      33A      0.201565    34A      0.208067    35A      0.215453  
      36A      0.222502    37A      0.229014    38A      0.236894  
      39A      0.245316    40A      0.253809    41A      0.264911  
      42A      0.271869    43A      0.279260    44A      0.295308  
      45A      0.304515    46A      0.308236    47A      0.317972  
      48A      0.322692    49A      0.326897    50A      0.331979  
      51A      0.340649    52A      0.341789    53A      0.349807  
      54A      0.358468    55A      0.359682    56A      0.368221  
      57A      0.371441    58A      0.377040    59A      0.388528  
      60A      0.389819    61A      0.394507    62A      0.402094  
      63A      0.407731    64A      0.413598    65A      0.424847  
      66A      0.428159    67A      0.435199    68A      0.442420  
      69A      0.447807    70A      0.452709    71A      0.461765  
      72A      0.475374    73A      0.476642    74A      0.481694  
      75A      0.488678    76A      0.508998    77A      0.517387  
      78A      0.531536    79A      0.541055    80A      0.543708  
      81A      0.565274    82A      0.576120    83A      0.580782  
      84A      0.589813    85A      0.609706    86A      0.627685  
      87A      0.651601    88A      0.668111    89A      0.676849  
      90A      0.690440    91A      0.694774    92A      0.702841  
      93A      0.718554    94A      0.725685    95A      0.729718  
      96A      0.743769    97A      0.749189    98A      0.757912  
      99A      0.764037   100A      0.769967   101A      0.781778  
     102A      0.783273   103A      0.796494   104A      0.801813  
     105A      0.808759   106A      0.818423   107A      0.826945  
     108A      0.828553   109A      0.835334   110A      0.841380  
     111A      0.848843   112A      0.855984   113A      0.859383  
     114A      0.874354   115A      0.878303   116A      0.881597  
     117A      0.889913   118A      0.894493   119A      0.899720  
     120A      0.906186   121A      0.915171   122A      0.920445  
     123A      0.924746   124A      0.930025   125A      0.938191  
     126A      0.943763   127A      0.949121   128A      0.952517  
     129A      0.960260   130A      0.965794   131A      0.973552  
     132A      0.979903   133A      0.986858   134A      0.999210  
     135A      1.012128   136A      1.012949   137A      1.024092  
     138A      1.027634   139A      1.031584   140A      1.037803  
     141A      1.041671   142A      1.045530   143A      1.060063  
     144A      1.071170   145A      1.073795   146A      1.077530  
     147A      1.089639   148A      1.098417   149A      1.106574  
     150A      1.108455   151A      1.115844   152A      1.129956  
     153A      1.135379   154A      1.141439   155A      1.144804  
     156A      1.148917   157A      1.151903   158A      1.164253  
     159A      1.175615   160A      1.180227   161A      1.195737  
     162A      1.215186   163A      1.219726   164A      1.230305  
     165A      1.243429   166A      1.249045   167A      1.263075  
     168A      1.267832   169A      1.273030   170A      1.277622  
     171A      1.282656   172A      1.302200   173A      1.311329  
     174A      1.318681   175A      1.328630   176A      1.350685  
     177A      1.351214   178A      1.361154   179A      1.386117  
     180A      1.391242   181A      1.406798   182A      1.411451  
     183A      1.422303   184A      1.425221   185A      1.444485  
     186A      1.460075   187A      1.476635   188A      1.485600  
     189A      1.507753   190A      1.525629   191A      1.537167  
     192A      1.544521   193A      1.557455   194A      1.565984  
     195A      1.579717   196A      1.593995   197A      1.613418  
     198A      1.623744   199A      1.636843   200A      1.643931  
     201A      1.664869   202A      1.679813   203A      1.692378  
     204A      1.703008   205A      1.720289   206A      1.724644  
     207A      1.734122   208A      1.746581   209A      1.758753  
     210A      1.765252   211A      1.786741   212A      1.793832  
     213A      1.796499   214A      1.814191   215A      1.832146  
     216A      1.843099   217A      1.854296   218A      1.862532  
     219A      1.866742   220A      1.886189   221A      1.896425  
     222A      1.913013   223A      1.920366   224A      1.944547  
     225A      1.961057   226A      1.965212   227A      1.988229  
     228A      1.994265   229A      2.016434   230A      2.024122  
     231A      2.041653   232A      2.052585   233A      2.079389  
     234A      2.094656   235A      2.119193   236A      2.160462  
     237A      2.184378   238A      2.223837   239A      2.367589  
     240A      2.406536   241A      2.426339   242A      2.442803  
     243A      2.447051   244A      2.469740   245A      2.488328  
     246A      2.492673   247A      2.501888   248A      2.505191  
     249A      2.512736   250A      2.523961   251A      2.534117  
     252A      2.552515   253A      2.561992   254A      2.568251  
     255A      2.572759   256A      2.589786   257A      2.599741  
     258A      2.613422   259A      2.621278   260A      2.632821  
     261A      2.647414   262A      2.656794   263A      2.663478  
     264A      2.673303   265A      2.688781   266A      2.701931  
     267A      2.721548   268A      2.732041   269A      2.741405  
     270A      2.760140   271A      2.770864   272A      2.785433  
     273A      2.797715   274A      2.804801   275A      2.811363  
     276A      2.834084   277A      2.849010   278A      2.863046  
     279A      2.878645   280A      2.913864   281A      2.942649  
     282A      2.973093   283A      2.981450   284A      2.999487  
     285A      3.018551   286A      3.047218   287A      3.083161  
     288A      3.146501   289A      3.154575   290A      3.171289  
     291A      3.182353   292A      3.198212   293A      3.204402  
     294A      3.224359   295A      3.233565   296A      3.246740  
     297A      3.253899   298A      3.259305   299A      3.280104  
     300A      3.294348   301A      3.322759   302A      3.340227  
     303A      3.358672   304A      3.375259   305A      3.392182  
     306A      3.394277   307A      3.419263   308A      3.423537  
     309A      3.438514   310A      3.463732   311A      3.470800  
     312A      3.493152   313A      3.530478   314A      3.548013  
     315A      3.551195   316A      3.575034   317A      3.592406  
     318A      3.615524   319A      3.622882   320A      3.644836  
     321A      3.647592   322A      3.675858   323A      3.709302  
     324A      3.721695   325A      3.776237   326A      3.802930  
     327A      3.807051   328A      3.839678   329A      3.878802  
     330A      3.904491   331A      3.945991   332A      3.997998  
     333A      4.086885   334A      4.121545   335A      4.218380  
     336A      4.250666   337A      4.281597   338A      4.351968  
     339A      4.369093   340A      4.378161   341A      4.382758  
     342A      4.414282   343A      4.444114   344A      4.454787  
     345A      4.466474   346A      4.475116   347A      4.514093  
     348A      4.523548   349A      4.539404   350A      4.553951  
     351A      4.585427   352A      4.588387   353A      4.614224  
     354A      4.618425   355A      4.638775   356A      4.648368  
     357A      4.654605   358A      4.667470   359A      4.682445  
     360A      4.692478   361A      4.710793   362A      4.737620  
     363A      4.774829   364A      4.789337   365A      4.849166  
     366A      4.870578   367A      4.876740   368A      4.907630  
     369A      4.914342   370A      4.933684   371A      4.941082  
     372A      4.962653   373A      4.968377   374A      4.987730  
     375A      4.993664   376A      5.013190   377A      5.052940  
     378A      5.088206   379A      5.111588   380A      5.135709  
     381A      5.153818   382A      5.167780   383A      5.193189  
     384A      5.222609   385A      5.240643   386A      5.259498  
     387A      5.302649   388A      5.370296   389A      5.409131  
     390A      5.430897   391A      5.445376   392A      5.460483  
     393A      5.467166   394A      5.509754   395A      5.522779  
     396A      5.547489   397A      5.642682   398A      5.670797  
     399A      5.700917   400A      5.713552   401A      5.720580  
     402A      5.740748   403A      5.752566   404A      5.789513  
     405A      5.815820   406A      5.875106   407A      6.134149  
     408A      6.146296   409A      6.172951   410A      6.181479  
     411A      6.207784   412A      6.252049   413A      6.342984  
     414A      6.372655   415A      6.458825   416A      6.616580  
     417A      6.621635   418A      6.729433   419A      6.785927  
     420A      6.842535   421A      6.869217   422A      6.881076  
     423A      7.004155   424A      7.095551   425A      7.120678  
     426A      7.166305   427A      7.186382   428A      7.234412  
     429A      7.296224   430A      7.333420   431A      7.386656  
     432A      7.472115   433A      7.661686   434A      7.678049  
     435A      7.702754   436A      7.729027   437A      7.736427  
     438A      7.740793   439A      7.771894   440A      7.810587  
     441A      7.821147   442A      7.852156   443A      7.984480  
     444A      8.048038   445A      8.077502   446A      8.116270  
     447A      8.146412   448A      8.206201   449A      8.224514  
     450A      8.232217   451A      8.245795   452A      8.293825  
     453A      8.325326   454A      8.337221   455A      8.396775  
     456A      8.562531   457A      8.619190   458A      8.696233  
     459A      8.739954   460A      8.827071   461A      8.851931  
     462A      8.964540   463A      8.999133   464A      9.058764  
     465A      9.703461   466A      9.720336   467A      9.745169  
     468A      9.810761   469A      9.846959   470A      9.876311  
     471A      9.886665   472A      9.893799   473A     10.064771  
     474A     10.081658   475A     10.086636   476A     10.124130  
     477A     10.218917   478A     10.255800   479A     10.271784  
     480A     10.303729   481A     10.919221   482A     10.965605  
     483A     11.048133   484A     11.212565   485A     11.291012  
     486A     11.700540   487A     11.707584   488A     11.780057  
     489A     11.796932   490A     11.909248   491A     12.099347  
     492A     12.177788   493A     12.272061   494A     13.356190  
     495A     13.489847   496A     13.554688   497A     13.721089  
     498A     13.843260   499A     13.942658   500A     13.968467  
     501A     13.981862   502A     14.006898   503A     14.036736  
     504A     14.156527   505A     15.266306   506A     26.316757  
     507A     26.386480   508A     26.488692   509A     26.536182  
     510A     26.751972   511A     46.688261   512A     64.145426  
     513A     65.442279   514A     65.744435   515A     66.906641  
     516A    139.027428   517A    139.190187   518A    139.380405  
     519A    712.332938  

    Final Occupation by Irrep:
              A 
    DOCC [     5 ]
    NA   [     5 ]
    NB   [     5 ]

  @DF-RHF Final Energy:   -76.05275648893824

   => Energetics <=

    Nuclear Repulsion Energy =              8.7708678467970547
    One-Electron Energy =                -122.3015361848469951
    Two-Electron Energy =                  37.4779118491116776
    Total Energy =                        -76.0527564889382575

Computation Completed


Properties will be evaluated at   0.000000,   0.000000,   0.000000 [a0]

Properties computed using the SCF density matrix


 Multipole Moments:

 ------------------------------------------------------------------------------------
     Multipole            Electronic (a.u.)      Nuclear  (a.u.)        Total (a.u.)
 ------------------------------------------------------------------------------------

 L = 1.  Multiply by 2.5417464519 to convert [e a0] to [Debye]
 Dipole X            :         52.7333251          -52.8322808           -0.0989558
 Dipole Y            :        -27.3085565           26.6496718           -0.6588847
 Dipole Z            :        -29.0135576           28.6686363           -0.3449212
 Magnitude           :                                                    0.7502613

 ------------------------------------------------------------------------------------

*** tstop() called on ddmfs1 at Mon Jan 22 22:33:21 2024
Module time:
	user time   =     102.68 seconds =       1.71 minutes
	system time =       7.20 seconds =       0.12 minutes
	total time  =          8 seconds =       0.13 minutes
Total time:
	user time   =     102.68 seconds =       1.71 minutes
	system time =       7.20 seconds =       0.12 minutes
	total time  =          8 seconds =       0.13 minutes

*** tstart() called on ddmfs1
*** at Mon Jan 22 22:33:21 2024


  //>>>>>>>>>>>>>>>>>>>>>>>>>>>>>>>>>>>//
  //               DFMP2               //
  //<<<<<<<<<<<<<<<<<<<<<<<<<<<<<<<<<<<//

   => Loading Basis Set <=

    Name: (AUG-CC-PVTZ AUX)
    Role: RIFIT
    Keyword: DF_BASIS_MP2
    atoms 1                            entry BR         line  1248 file /ddmfs1b/softs/psi4conda/share/psi4/basis/aug-cc-pvtz-ri.gbs 
    atoms 2, 5, 8, 11, 14              entry O          line   264 file /ddmfs1b/softs/psi4conda/share/psi4/basis/aug-cc-pvtz-ri.gbs 
    atoms 3-4, 6-7, 9-10, 12-13, 15-16 entry H          line    30 file /ddmfs1b/softs/psi4conda/share/psi4/basis/aug-cc-pvtz-ri.gbs 

	 --------------------------------------------------------
	                          DF-MP2                         
	      2nd-Order Density-Fitted Moller-Plesset Theory     
	              RMP2 Wavefunction,  20 Threads             
	                                                         
	        Rob Parrish, Justin Turney, Andy Simmonett,      
	           Ed Hohenstein, and C. David Sherrill          
	 --------------------------------------------------------

   => Auxiliary Basis Set <=

  Basis Set: (AUG-CC-PVTZ AUX)
    Blend: AUG-CC-PVTZ-RI
    Number of shells: 323
    Number of basis functions: 1181
    Number of Cartesian functions: 1491
    Spherical Harmonics?: true
    Max angular momentum: 5

	 --------------------------------------------------------
	                 NBF =   519, NAUX =  1181
	 --------------------------------------------------------
	   CLASS    FOCC     OCC    AOCC    AVIR     VIR    FVIR
	   PAIRS       0       5       5     514     514       0
	 --------------------------------------------------------

	-----------------------------------------------------------
	 ==================> DF-MP2 Energies <==================== 
	-----------------------------------------------------------
	 Reference Energy          =     -76.0527564889382433 [Eh]
	 Singles Energy            =      -0.0000000000000000 [Eh]
	 Same-Spin Energy          =      -0.0690883899341598 [Eh]
	 Opposite-Spin Energy      =      -0.2179184120412294 [Eh]
	 Correlation Energy        =      -0.2870068019753891 [Eh]
	 Total Energy              =     -76.3397632909136377 [Eh]
	-----------------------------------------------------------
	 ================> DF-SCS-MP2 Energies <================== 
	-----------------------------------------------------------
	 SCS Same-Spin Scale       =       0.3333333333333333 [-]
	 SCS Opposite-Spin Scale   =       1.2000000000000000 [-]
	 SCS Same-Spin Energy      =      -0.0230294633113866 [Eh]
	 SCS Opposite-Spin Energy  =      -0.2615020944494752 [Eh]
	 SCS Correlation Energy    =      -0.2845315577608618 [Eh]
	 SCS Total Energy          =     -76.3372880466991006 [Eh]
	-----------------------------------------------------------


*** tstop() called on ddmfs1 at Mon Jan 22 22:33:32 2024
Module time:
	user time   =      34.03 seconds =       0.57 minutes
	system time =       2.40 seconds =       0.04 minutes
	total time  =         11 seconds =       0.18 minutes
Total time:
	user time   =     136.73 seconds =       2.28 minutes
	system time =       9.60 seconds =       0.16 minutes
	total time  =         19 seconds =       0.32 minutes

    Psi4 stopped on: Monday, 22 January 2024 10:33PM
    Psi4 wall time for execution: 0:00:19.83

*** Psi4 exiting successfully. Buy a developer a beer!
