
    -----------------------------------------------------------------------
          Psi4: An Open-Source Ab Initio Electronic Structure Package
                               Psi4 1.8.2 release

                         Git: Rev {} zzzzzzz 


    D. G. A. Smith, L. A. Burns, A. C. Simmonett, R. M. Parrish,
    M. C. Schieber, R. Galvelis, P. Kraus, H. Kruse, R. Di Remigio,
    A. Alenaizan, A. M. James, S. Lehtola, J. P. Misiewicz, M. Scheurer,
    R. A. Shaw, J. B. Schriber, Y. Xie, Z. L. Glick, D. A. Sirianni,
    J. S. O'Brien, J. M. Waldrop, A. Kumar, E. G. Hohenstein,
    B. P. Pritchard, B. R. Brooks, H. F. Schaefer III, A. Yu. Sokolov,
    K. Patkowski, A. E. DePrince III, U. Bozkaya, R. A. King,
    F. A. Evangelista, J. M. Turney, T. D. Crawford, C. D. Sherrill,
    J. Chem. Phys. 152(18) 184108 (2020). https://doi.org/10.1063/5.0006002

                            Additional Code Authors
    E. T. Seidl, C. L. Janssen, E. F. Valeev, M. L. Leininger,
    J. F. Gonthier, R. M. Richard, H. R. McAlexander, M. Saitow, X. Wang,
    P. Verma, M. H. Lechner, A. Jiang, S. Behnle, A. G. Heide,
    M. F. Herbst, and D. L. Poole

             Previous Authors, Complete List of Code Contributors,
                       and Citations for Specific Modules
    https://github.com/psi4/psi4/blob/master/codemeta.json
    https://github.com/psi4/psi4/graphs/contributors
    http://psicode.org/psi4manual/master/introduction.html#citing-psifour

    -----------------------------------------------------------------------


    Psi4 started on: Tuesday, 23 January 2024 12:20AM

    Process ID: 120244
    Host:       ddmfs1
    PSIDATADIR: /ddmfs1b/softs/psi4conda/share/psi4
    Memory:     500.0 MiB
    Threads:    20
    
  ==> Input File <==

--------------------------------------------------------------------------
MEMORY 60 GB

molecule dimer {
0 1
Gh(Br)     0.000000     0.000000     0.000000
Gh(O)     -0.715270    -2.143185    -2.690953
Gh(H)     -0.563893    -1.589694    -1.915422
Gh(H)     -1.625719    -2.500042    -2.562483
O         -0.675884     1.561881     2.819312
H         -0.778240     0.984108     2.081935
H         -0.783142     0.966168     3.565114
Gh(O)      3.548531     0.288888     0.674836
Gh(H)      3.267816     0.447228    -0.188013
Gh(H)      2.925434     0.795554     1.221031
Gh(O)      0.805282    -3.287647     0.275183
Gh(H)      0.393183    -3.703796    -0.501561
Gh(H)      0.316995    -2.472699     0.427040
Gh(O)      0.567571     0.362353    -3.511137
Gh(H)      0.176105    -0.507486    -3.248833
Gh(H)      0.283747     0.465117    -4.388978
Gh(O)     -3.239559    -1.622188     0.083527
Gh(H)     -3.422506    -1.982973     0.976307
Gh(H)     -2.282082    -1.379107     0.094225
Gh(O)     -2.191170     2.688530    -0.728488
Gh(H)     -2.809150     2.418920    -1.425226
Gh(H)     -1.544401     2.015253    -0.624480

units ang
no_reorient
no_com
symmetry c1
}

set {
basis        aug-cc-pVTZ
scf_type     df
}

energy("mp2")
--------------------------------------------------------------------------

  Memory set to  55.879 GiB by Python driver.

Scratch directory: /ddmfs1a/scratch/
   => Libint2 <=

    Primary   basis highest AM E, G, H:  5, 4, 3
    Auxiliary basis highest AM E, G, H:  6, 5, 4
    Onebody   basis highest AM E, G, H:  6, 5, 4
    Solid Harmonics ordering:            gaussian

*** tstart() called on ddmfs1
*** at Tue Jan 23 00:20:11 2024

   => Loading Basis Set <=

    Name: AUG-CC-PVTZ
    Role: ORBITAL
    Keyword: BASIS
    atoms 1                                          entry BR         line  4208 file /ddmfs1b/softs/psi4conda/share/psi4/basis/aug-cc-pvtz.gbs 
    atoms 2, 5, 8, 11, 14, 17, 20                    entry O          line   331 file /ddmfs1b/softs/psi4conda/share/psi4/basis/aug-cc-pvtz.gbs 
    atoms 3-4, 6-7, 9-10, 12-13, 15-16, 18-19, 21-22 entry H          line    40 file /ddmfs1b/softs/psi4conda/share/psi4/basis/aug-cc-pvtz.gbs 


         ---------------------------------------------------------
                                   SCF
               by Justin Turney, Rob Parrish, Andy Simmonett
                          and Daniel G. A. Smith
                              RHF Reference
                       20 Threads,  57220 MiB Core
         ---------------------------------------------------------

  ==> Geometry <==

    Molecular point group: c1
    Full point group: C1

    Geometry (in Angstrom), charge = 0, multiplicity = 1:

       Center              X                  Y                   Z               Mass       
    ------------   -----------------  -----------------  -----------------  -----------------
      Gh(BR)          0.000000000000     0.000000000000     0.000000000000    78.918337600000
      Gh(O)          -0.715270000000    -2.143185000000    -2.690953000000    15.994914619570
      Gh(H)          -0.563893000000    -1.589694000000    -1.915422000000     1.007825032230
      Gh(H)          -1.625719000000    -2.500042000000    -2.562483000000     1.007825032230
         O           -0.675884000000     1.561881000000     2.819312000000    15.994914619570
         H           -0.778240000000     0.984108000000     2.081935000000     1.007825032230
         H           -0.783142000000     0.966168000000     3.565114000000     1.007825032230
      Gh(O)           3.548531000000     0.288888000000     0.674836000000    15.994914619570
      Gh(H)           3.267816000000     0.447228000000    -0.188013000000     1.007825032230
      Gh(H)           2.925434000000     0.795554000000     1.221031000000     1.007825032230
      Gh(O)           0.805282000000    -3.287647000000     0.275183000000    15.994914619570
      Gh(H)           0.393183000000    -3.703796000000    -0.501561000000     1.007825032230
      Gh(H)           0.316995000000    -2.472699000000     0.427040000000     1.007825032230
      Gh(O)           0.567571000000     0.362353000000    -3.511137000000    15.994914619570
      Gh(H)           0.176105000000    -0.507486000000    -3.248833000000     1.007825032230
      Gh(H)           0.283747000000     0.465117000000    -4.388978000000     1.007825032230
      Gh(O)          -3.239559000000    -1.622188000000     0.083527000000    15.994914619570
      Gh(H)          -3.422506000000    -1.982973000000     0.976307000000     1.007825032230
      Gh(H)          -2.282082000000    -1.379107000000     0.094225000000     1.007825032230
      Gh(O)          -2.191170000000     2.688530000000    -0.728488000000    15.994914619570
      Gh(H)          -2.809150000000     2.418920000000    -1.425226000000     1.007825032230
      Gh(H)          -1.544401000000     2.015253000000    -0.624480000000     1.007825032230

  Running in c1 symmetry.

  Rotational constants: A =      0.01820  B =      0.01676  C =      0.01461 [cm^-1]
  Rotational constants: A =    545.76520  B =    502.31444  C =    437.91455 [MHz]
  Nuclear repulsion =    9.256585554319285

  Charge       = 0
  Multiplicity = 1
  Electrons    = 10
  Nalpha       = 5
  Nbeta        = 5

  ==> Algorithm <==

  SCF Algorithm Type is DF.
  DIIS enabled.
  MOM disabled.
  Fractional occupation disabled.
  Guess Type is SAD.
  Energy threshold   = 1.00e-08
  Density threshold  = 1.00e-08
  Integral threshold = 1.00e-12

  ==> Primary Basis <==

  Basis Set: AUG-CC-PVTZ
    Blend: AUG-CC-PVTZ
    Number of shells: 243
    Number of basis functions: 703
    Number of Cartesian functions: 804
    Spherical Harmonics?: true
    Max angular momentum: 3

   => Loading Basis Set <=

    Name: (AUG-CC-PVTZ AUX)
    Role: JKFIT
    Keyword: DF_BASIS_SCF
    atoms 1                                          entry BR         line  1492 file /ddmfs1b/softs/psi4conda/share/psi4/basis/aug-cc-pvtz-jkfit.gbs 
    atoms 2, 5, 8, 11, 14, 17, 20                    entry O          line   286 file /ddmfs1b/softs/psi4conda/share/psi4/basis/aug-cc-pvtz-jkfit.gbs 
    atoms 3-4, 6-7, 9-10, 12-13, 15-16, 18-19, 21-22 entry H          line    70 file /ddmfs1b/softs/psi4conda/share/psi4/basis/aug-cc-pvtz-jkfit.gbs 

  ==> Integral Setup <==

  DFHelper Memory: AOs need 5.036 GiB; user supplied 41.910 GiB. 
  Using in-core AOs.

  ==> MemDFJK: Density-Fitted J/K Matrices <==

    J tasked:                   Yes
    K tasked:                   Yes
    wK tasked:                   No
    OpenMP threads:              20
    Memory [MiB]:             42915
    Algorithm:                 Core
    Schwarz Cutoff:           1E-12
    Mask sparsity (%):      18.8034
    Fitting Condition:        1E-10

   => Auxiliary Basis Set <=

  Basis Set: (AUG-CC-PVTZ AUX)
    Blend: AUG-CC-PVTZ-JKFIT
    Number of shells: 464
    Number of basis functions: 1620
    Number of Cartesian functions: 2016
    Spherical Harmonics?: true
    Max angular momentum: 4

  Minimum eigenvalue in the overlap matrix is 9.8497135055E-05.
  Reciprocal condition number of the overlap matrix is 7.1693458293E-06.
    Using symmetric orthogonalization.

  ==> Pre-Iterations <==

  SCF Guess: Superposition of Atomic Densities via on-the-fly atomic UHF (no occupation information).

   -------------------------
    Irrep   Nso     Nmo    
   -------------------------
     A        703     703 
   -------------------------
    Total     703     703
   -------------------------

  ==> Iterations <==

                           Total Energy        Delta E     RMS |[F,P]|

   @DF-RHF iter SAD:   -75.48677214453765   -7.54868e+01   0.00000e+00 
   @DF-RHF iter   1:   -75.97622064393464   -4.89448e-01   6.67914e-04 DIIS/ADIIS
   @DF-RHF iter   2:   -76.02909682082662   -5.28762e-02   4.52094e-04 DIIS/ADIIS
   @DF-RHF iter   3:   -76.06012453426405   -3.10277e-02   3.06476e-05 DIIS
   @DF-RHF iter   4:   -76.06050199371251   -3.77459e-04   7.20964e-06 DIIS
   @DF-RHF iter   5:   -76.06052475192989   -2.27582e-05   1.63411e-06 DIIS
   @DF-RHF iter   6:   -76.06052659950133   -1.84757e-06   3.55720e-07 DIIS
   @DF-RHF iter   7:   -76.06052669595196   -9.64506e-08   6.35978e-08 DIIS
   @DF-RHF iter   8:   -76.06052669866851   -2.71655e-09   1.05350e-08 DIIS
   @DF-RHF iter   9:   -76.06052669872575   -5.72413e-11   2.51385e-09 DIIS
  Energy and wave function converged.


  ==> Post-Iterations <==

    Orbital Energies [Eh]
    ---------------------

    Doubly Occupied:                                                      

       1A    -20.566970     2A     -1.358211     3A     -0.716859  
       4A     -0.590092     5A     -0.511444  

    Virtual:                                                              

       6A      0.012533     7A      0.028201     8A      0.031525  
       9A      0.033568    10A      0.047032    11A      0.050610  
      12A      0.053274    13A      0.056187    14A      0.059848  
      15A      0.065938    16A      0.076159    17A      0.079352  
      18A      0.086209    19A      0.095301    20A      0.102033  
      21A      0.109766    22A      0.113481    23A      0.119838  
      24A      0.132084    25A      0.137507    26A      0.140819  
      27A      0.142952    28A      0.148330    29A      0.151264  
      30A      0.154475    31A      0.162075    32A      0.165675  
      33A      0.167425    34A      0.171140    35A      0.181410  
      36A      0.183483    37A      0.185341    38A      0.191360  
      39A      0.194818    40A      0.196135    41A      0.205145  
      42A      0.208453    43A      0.213754    44A      0.217867  
      45A      0.226107    46A      0.228026    47A      0.234814  
      48A      0.238733    49A      0.239988    50A      0.250411  
      51A      0.254031    52A      0.260298    53A      0.268529  
      54A      0.280265    55A      0.286357    56A      0.292715  
      57A      0.298937    58A      0.302734    59A      0.307042  
      60A      0.311154    61A      0.315210    62A      0.319466  
      63A      0.323803    64A      0.329464    65A      0.334412  
      66A      0.337407    67A      0.347733    68A      0.352275  
      69A      0.355845    70A      0.357060    71A      0.359697  
      72A      0.365916    73A      0.370426    74A      0.375761  
      75A      0.381996    76A      0.382386    77A      0.390279  
      78A      0.395324    79A      0.400276    80A      0.402135  
      81A      0.410530    82A      0.414143    83A      0.415166  
      84A      0.419317    85A      0.427565    86A      0.432133  
      87A      0.438484    88A      0.442519    89A      0.445041  
      90A      0.453040    91A      0.454862    92A      0.461763  
      93A      0.468090    94A      0.476578    95A      0.478216  
      96A      0.481688    97A      0.486297    98A      0.492533  
      99A      0.496526   100A      0.503625   101A      0.507731  
     102A      0.517312   103A      0.540483   104A      0.557072  
     105A      0.567855   106A      0.571020   107A      0.577547  
     108A      0.580753   109A      0.595920   110A      0.598837  
     111A      0.612071   112A      0.622727   113A      0.642847  
     114A      0.652360   115A      0.658751   116A      0.665493  
     117A      0.678976   118A      0.686774   119A      0.695848  
     120A      0.701720   121A      0.715021   122A      0.727175  
     123A      0.730471   124A      0.734901   125A      0.739010  
     126A      0.743387   127A      0.751515   128A      0.758624  
     129A      0.767018   130A      0.769029   131A      0.774546  
     132A      0.784595   133A      0.787792   134A      0.789837  
     135A      0.796025   136A      0.804372   137A      0.805031  
     138A      0.809309   139A      0.812991   140A      0.818426  
     141A      0.821022   142A      0.825610   143A      0.831007  
     144A      0.835680   145A      0.844801   146A      0.848383  
     147A      0.849700   148A      0.853355   149A      0.859887  
     150A      0.866045   151A      0.870054   152A      0.871850  
     153A      0.877008   154A      0.882618   155A      0.887551  
     156A      0.893568   157A      0.897109   158A      0.901951  
     159A      0.906382   160A      0.911733   161A      0.917890  
     162A      0.920364   163A      0.924619   164A      0.931728  
     165A      0.939515   166A      0.941297   167A      0.949173  
     168A      0.954987   169A      0.957094   170A      0.959549  
     171A      0.964555   172A      0.965458   173A      0.971476  
     174A      0.972420   175A      0.978396   176A      0.983120  
     177A      0.985532   178A      0.994889   179A      1.000866  
     180A      1.003185   181A      1.005360   182A      1.012978  
     183A      1.015816   184A      1.017780   185A      1.023866  
     186A      1.030439   187A      1.036044   188A      1.040539  
     189A      1.042783   190A      1.049235   191A      1.051613  
     192A      1.058715   193A      1.064772   194A      1.069878  
     195A      1.074778   196A      1.085829   197A      1.088867  
     198A      1.091443   199A      1.099038   200A      1.102311  
     201A      1.108705   202A      1.113063   203A      1.116189  
     204A      1.121316   205A      1.124652   206A      1.138055  
     207A      1.146852   208A      1.155764   209A      1.162376  
     210A      1.165735   211A      1.169360   212A      1.182785  
     213A      1.185223   214A      1.188670   215A      1.203187  
     216A      1.209361   217A      1.217036   218A      1.220227  
     219A      1.220918   220A      1.232884   221A      1.242317  
     222A      1.245617   223A      1.253210   224A      1.256208  
     225A      1.268789   226A      1.276033   227A      1.280710  
     228A      1.285306   229A      1.293285   230A      1.300268  
     231A      1.313168   232A      1.314890   233A      1.327727  
     234A      1.343226   235A      1.356846   236A      1.358025  
     237A      1.366294   238A      1.368297   239A      1.377556  
     240A      1.385330   241A      1.400196   242A      1.415291  
     243A      1.416297   244A      1.428585   245A      1.431954  
     246A      1.448603   247A      1.456640   248A      1.473844  
     249A      1.477448   250A      1.481734   251A      1.486305  
     252A      1.498459   253A      1.506032   254A      1.516014  
     255A      1.522483   256A      1.526684   257A      1.534844  
     258A      1.544702   259A      1.568775   260A      1.578088  
     261A      1.586460   262A      1.590761   263A      1.595651  
     264A      1.608893   265A      1.621213   266A      1.621979  
     267A      1.635896   268A      1.652799   269A      1.653419  
     270A      1.674548   271A      1.686925   272A      1.705119  
     273A      1.705474   274A      1.713291   275A      1.748643  
     276A      1.751346   277A      1.759154   278A      1.766380  
     279A      1.775130   280A      1.781244   281A      1.786553  
     282A      1.793072   283A      1.800005   284A      1.809044  
     285A      1.814257   286A      1.819737   287A      1.830690  
     288A      1.835365   289A      1.848370   290A      1.855366  
     291A      1.857012   292A      1.869244   293A      1.879560  
     294A      1.887328   295A      1.897462   296A      1.898891  
     297A      1.914277   298A      1.923284   299A      1.931250  
     300A      1.938068   301A      1.947215   302A      1.968497  
     303A      1.973272   304A      1.979600   305A      1.992266  
     306A      2.010156   307A      2.013124   308A      2.024301  
     309A      2.035451   310A      2.057969   311A      2.067150  
     312A      2.076966   313A      2.095695   314A      2.106544  
     315A      2.128590   316A      2.151696   317A      2.180213  
     318A      2.192959   319A      2.238661   320A      2.282125  
     321A      2.312152   322A      2.388879   323A      2.411217  
     324A      2.422286   325A      2.458266   326A      2.463857  
     327A      2.474421   328A      2.476675   329A      2.485022  
     330A      2.494125   331A      2.499557   332A      2.503874  
     333A      2.522147   334A      2.532438   335A      2.537078  
     336A      2.547411   337A      2.550633   338A      2.555309  
     339A      2.560850   340A      2.567182   341A      2.573424  
     342A      2.580766   343A      2.594026   344A      2.595651  
     345A      2.605156   346A      2.609681   347A      2.618068  
     348A      2.621376   349A      2.625015   350A      2.636445  
     351A      2.638848   352A      2.649155   353A      2.655746  
     354A      2.663973   355A      2.675441   356A      2.684535  
     357A      2.696164   358A      2.701258   359A      2.702703  
     360A      2.718561   361A      2.724919   362A      2.731751  
     363A      2.737853   364A      2.753541   365A      2.762302  
     366A      2.773398   367A      2.777098   368A      2.800364  
     369A      2.811398   370A      2.819589   371A      2.821190  
     372A      2.838791   373A      2.861587   374A      2.866366  
     375A      2.874674   376A      2.886316   377A      2.899411  
     378A      2.907990   379A      2.948842   380A      2.962278  
     381A      2.973686   382A      2.977518   383A      3.008415  
     384A      3.017909   385A      3.035277   386A      3.071611  
     387A      3.105294   388A      3.150878   389A      3.165302  
     390A      3.178419   391A      3.189581   392A      3.202067  
     393A      3.204115   394A      3.217515   395A      3.219676  
     396A      3.234544   397A      3.236091   398A      3.238323  
     399A      3.246006   400A      3.266672   401A      3.279169  
     402A      3.283541   403A      3.303961   404A      3.313592  
     405A      3.332979   406A      3.348715   407A      3.364385  
     408A      3.370428   409A      3.376055   410A      3.389833  
     411A      3.404795   412A      3.425539   413A      3.432852  
     414A      3.442967   415A      3.452106   416A      3.470260  
     417A      3.490466   418A      3.498676   419A      3.511718  
     420A      3.527109   421A      3.541145   422A      3.557245  
     423A      3.571528   424A      3.577488   425A      3.596153  
     426A      3.603763   427A      3.615338   428A      3.624818  
     429A      3.641310   430A      3.656269   431A      3.664794  
     432A      3.678050   433A      3.694484   434A      3.697283  
     435A      3.706789   436A      3.718867   437A      3.742746  
     438A      3.765978   439A      3.793485   440A      3.862159  
     441A      3.862232   442A      3.878570   443A      3.909094  
     444A      3.928113   445A      3.981216   446A      4.013078  
     447A      4.119143   448A      4.183423   449A      4.251072  
     450A      4.299423   451A      4.319731   452A      4.381569  
     453A      4.398654   454A      4.408821   455A      4.412438  
     456A      4.421931   457A      4.427082   458A      4.436674  
     459A      4.447644   460A      4.464413   461A      4.471006  
     462A      4.478316   463A      4.484519   464A      4.488980  
     465A      4.497550   466A      4.519711   467A      4.531380  
     468A      4.544733   469A      4.549213   470A      4.555138  
     471A      4.571651   472A      4.598761   473A      4.622265  
     474A      4.629762   475A      4.634578   476A      4.643945  
     477A      4.648295   478A      4.661963   479A      4.680929  
     480A      4.690323   481A      4.704906   482A      4.708128  
     483A      4.722285   484A      4.739473   485A      4.743777  
     486A      4.753011   487A      4.783131   488A      4.798714  
     489A      4.802532   490A      4.831643   491A      4.838942  
     492A      4.854870   493A      4.875456   494A      4.899265  
     495A      4.910539   496A      4.925256   497A      4.934038  
     498A      4.939333   499A      4.943791   500A      4.963782  
     501A      4.972225   502A      4.982201   503A      4.987770  
     504A      5.007626   505A      5.023984   506A      5.025386  
     507A      5.056360   508A      5.063221   509A      5.094753  
     510A      5.122175   511A      5.159816   512A      5.184863  
     513A      5.201325   514A      5.207196   515A      5.215663  
     516A      5.241287   517A      5.248995   518A      5.282779  
     519A      5.319418   520A      5.361710   521A      5.389170  
     522A      5.450929   523A      5.470588   524A      5.509077  
     525A      5.524542   526A      5.541470   527A      5.571244  
     528A      5.578230   529A      5.585775   530A      5.604231  
     531A      5.606878   532A      5.609383   533A      5.611440  
     534A      5.620912   535A      5.645713   536A      5.672648  
     537A      5.731858   538A      5.733906   539A      5.737551  
     540A      5.757253   541A      5.773828   542A      5.783622  
     543A      5.841595   544A      5.851497   545A      5.871741  
     546A      5.891751   547A      5.958100   548A      5.994738  
     549A      6.140048   550A      6.145128   551A      6.169637  
     552A      6.180942   553A      6.239545   554A      6.271815  
     555A      6.315025   556A      6.396026   557A      6.437671  
     558A      6.454380   559A      6.482911   560A      6.498892  
     561A      6.512769   562A      6.550666   563A      6.631881  
     564A      6.661223   565A      6.670803   566A      6.684681  
     567A      6.735444   568A      6.789736   569A      6.797266  
     570A      6.991074   571A      7.010051   572A      7.083278  
     573A      7.133599   574A      7.164055   575A      7.166620  
     576A      7.169295   577A      7.188361   578A      7.304858  
     579A      7.326214   580A      7.374404   581A      7.419427  
     582A      7.488754   583A      7.699603   584A      7.711840  
     585A      7.733643   586A      7.736806   587A      7.738732  
     588A      7.770554   589A      7.789427   590A      7.804474  
     591A      7.813372   592A      7.851715   593A      7.872868  
     594A      7.889207   595A      7.953381   596A      7.968181  
     597A      8.032576   598A      8.051842   599A      8.081962  
     600A      8.105483   601A      8.117277   602A      8.127662  
     603A      8.156949   604A      8.171854   605A      8.201690  
     606A      8.231300   607A      8.254451   608A      8.263383  
     609A      8.284723   610A      8.286888   611A      8.299718  
     612A      8.308245   613A      8.342855   614A      8.353203  
     615A      8.407067   616A      8.695646   617A      8.771271  
     618A      8.790215   619A      8.823812   620A      8.841025  
     621A      8.854241   622A      8.884612   623A      8.900814  
     624A      8.907975   625A      8.939108   626A      8.984522  
     627A      9.072147   628A      9.099642   629A      9.673545  
     630A      9.692673   631A      9.708188   632A      9.728850  
     633A      9.769874   634A      9.862782   635A      9.889022  
     636A      9.891256   637A      9.899222   638A      9.900904  
     639A      9.923997   640A     10.020839   641A     10.025738  
     642A     10.075133   643A     10.083635   644A     10.086479  
     645A     10.099979   646A     10.132696   647A     10.239399  
     648A     10.265557   649A     10.280756   650A     10.326919  
     651A     10.331496   652A     10.376687   653A     11.080355  
     654A     11.135734   655A     11.167579   656A     11.212311  
     657A     11.244982   658A     11.278818   659A     11.320883  
     660A     11.712210   661A     11.718255   662A     11.761191  
     663A     11.774499   664A     11.848377   665A     11.911309  
     666A     11.915699   667A     12.091962   668A     12.177977  
     669A     12.276376   670A     12.359074   671A     12.482516  
     672A     13.485572   673A     13.589824   674A     13.653181  
     675A     13.657357   676A     13.699355   677A     13.741777  
     678A     13.803966   679A     13.845337   680A     13.869143  
     681A     13.932479   682A     13.979979   683A     13.994327  
     684A     14.014782   685A     14.096835   686A     14.168616  
     687A     16.695149   688A     26.390797   689A     26.402701  
     690A     26.455632   691A     26.633432   692A     26.723392  
     693A     46.652527   694A     64.613726   695A     65.527084  
     696A     65.822038   697A     65.996177   698A     66.886230  
     699A     67.789026   700A    139.038933   701A    139.076224  
     702A    139.413419   703A    712.240002  

    Final Occupation by Irrep:
              A 
    DOCC [     5 ]
    NA   [     5 ]
    NB   [     5 ]

  @DF-RHF Final Energy:   -76.06052669872575

   => Energetics <=

    Nuclear Repulsion Energy =              9.2565855543192850
    One-Electron Energy =                -123.1470693964821237
    Two-Electron Energy =                  37.8299571434370918
    Total Energy =                        -76.0605266987257380

Computation Completed


Properties will be evaluated at   0.000000,   0.000000,   0.000000 [a0]

Properties computed using the SCF density matrix


 Multipole Moments:

 ------------------------------------------------------------------------------------
     Multipole            Electronic (a.u.)      Nuclear  (a.u.)        Total (a.u.)
 ------------------------------------------------------------------------------------

 L = 1.  Multiply by 2.5417464519 to convert [e a0] to [Debye]
 Dipole X            :         13.0288872          -13.1684696           -0.1395823
 Dipole Y            :        -28.0768404           27.2977062           -0.7791343
 Dipole Z            :        -53.2912124           53.2931964            0.0019840
 Magnitude           :                                                    0.7915411

 ------------------------------------------------------------------------------------

*** tstop() called on ddmfs1 at Tue Jan 23 00:20:26 2024
Module time:
	user time   =     207.28 seconds =       3.45 minutes
	system time =      10.67 seconds =       0.18 minutes
	total time  =         15 seconds =       0.25 minutes
Total time:
	user time   =     207.28 seconds =       3.45 minutes
	system time =      10.67 seconds =       0.18 minutes
	total time  =         15 seconds =       0.25 minutes

*** tstart() called on ddmfs1
*** at Tue Jan 23 00:20:26 2024


  //>>>>>>>>>>>>>>>>>>>>>>>>>>>>>>>>>>>//
  //               DFMP2               //
  //<<<<<<<<<<<<<<<<<<<<<<<<<<<<<<<<<<<//

   => Loading Basis Set <=

    Name: (AUG-CC-PVTZ AUX)
    Role: RIFIT
    Keyword: DF_BASIS_MP2
    atoms 1                                          entry BR         line  1248 file /ddmfs1b/softs/psi4conda/share/psi4/basis/aug-cc-pvtz-ri.gbs 
    atoms 2, 5, 8, 11, 14, 17, 20                    entry O          line   264 file /ddmfs1b/softs/psi4conda/share/psi4/basis/aug-cc-pvtz-ri.gbs 
    atoms 3-4, 6-7, 9-10, 12-13, 15-16, 18-19, 21-22 entry H          line    30 file /ddmfs1b/softs/psi4conda/share/psi4/basis/aug-cc-pvtz-ri.gbs 

	 --------------------------------------------------------
	                          DF-MP2                         
	      2nd-Order Density-Fitted Moller-Plesset Theory     
	              RMP2 Wavefunction,  20 Threads             
	                                                         
	        Rob Parrish, Justin Turney, Andy Simmonett,      
	           Ed Hohenstein, and C. David Sherrill          
	 --------------------------------------------------------

   => Auxiliary Basis Set <=

  Basis Set: (AUG-CC-PVTZ AUX)
    Blend: AUG-CC-PVTZ-RI
    Number of shells: 435
    Number of basis functions: 1577
    Number of Cartesian functions: 1983
    Spherical Harmonics?: true
    Max angular momentum: 5

	 --------------------------------------------------------
	                 NBF =   703, NAUX =  1577
	 --------------------------------------------------------
	   CLASS    FOCC     OCC    AOCC    AVIR     VIR    FVIR
	   PAIRS       0       5       5     698     698       0
	 --------------------------------------------------------

	-----------------------------------------------------------
	 ==================> DF-MP2 Energies <==================== 
	-----------------------------------------------------------
	 Reference Energy          =     -76.0605266987257522 [Eh]
	 Singles Energy            =      -0.0000000000000000 [Eh]
	 Same-Spin Energy          =      -0.0683297113710915 [Eh]
	 Opposite-Spin Energy      =      -0.2155385940381053 [Eh]
	 Correlation Energy        =      -0.2838683054091968 [Eh]
	 Total Energy              =     -76.3443950041349524 [Eh]
	-----------------------------------------------------------
	 ================> DF-SCS-MP2 Energies <================== 
	-----------------------------------------------------------
	 SCS Same-Spin Scale       =       0.3333333333333333 [-]
	 SCS Opposite-Spin Scale   =       1.2000000000000000 [-]
	 SCS Same-Spin Energy      =      -0.0227765704570305 [Eh]
	 SCS Opposite-Spin Energy  =      -0.2586463128457263 [Eh]
	 SCS Correlation Energy    =      -0.2814228833027568 [Eh]
	 SCS Total Energy          =     -76.3419495820285050 [Eh]
	-----------------------------------------------------------


*** tstop() called on ddmfs1 at Tue Jan 23 00:20:43 2024
Module time:
	user time   =      58.08 seconds =       0.97 minutes
	system time =       3.62 seconds =       0.06 minutes
	total time  =         17 seconds =       0.28 minutes
Total time:
	user time   =     265.38 seconds =       4.42 minutes
	system time =      14.29 seconds =       0.24 minutes
	total time  =         32 seconds =       0.53 minutes

    Psi4 stopped on: Tuesday, 23 January 2024 12:20AM
    Psi4 wall time for execution: 0:00:32.26

*** Psi4 exiting successfully. Buy a developer a beer!
