
    -----------------------------------------------------------------------
          Psi4: An Open-Source Ab Initio Electronic Structure Package
                               Psi4 1.8.2 release

                         Git: Rev {} zzzzzzz 


    D. G. A. Smith, L. A. Burns, A. C. Simmonett, R. M. Parrish,
    M. C. Schieber, R. Galvelis, P. Kraus, H. Kruse, R. Di Remigio,
    A. Alenaizan, A. M. James, S. Lehtola, J. P. Misiewicz, M. Scheurer,
    R. A. Shaw, J. B. Schriber, Y. Xie, Z. L. Glick, D. A. Sirianni,
    J. S. O'Brien, J. M. Waldrop, A. Kumar, E. G. Hohenstein,
    B. P. Pritchard, B. R. Brooks, H. F. Schaefer III, A. Yu. Sokolov,
    K. Patkowski, A. E. DePrince III, U. Bozkaya, R. A. King,
    F. A. Evangelista, J. M. Turney, T. D. Crawford, C. D. Sherrill,
    J. Chem. Phys. 152(18) 184108 (2020). https://doi.org/10.1063/5.0006002

                            Additional Code Authors
    E. T. Seidl, C. L. Janssen, E. F. Valeev, M. L. Leininger,
    J. F. Gonthier, R. M. Richard, H. R. McAlexander, M. Saitow, X. Wang,
    P. Verma, M. H. Lechner, A. Jiang, S. Behnle, A. G. Heide,
    M. F. Herbst, and D. L. Poole

             Previous Authors, Complete List of Code Contributors,
                       and Citations for Specific Modules
    https://github.com/psi4/psi4/blob/master/codemeta.json
    https://github.com/psi4/psi4/graphs/contributors
    http://psicode.org/psi4manual/master/introduction.html#citing-psifour

    -----------------------------------------------------------------------


    Psi4 started on: Monday, 22 January 2024 11:52PM

    Process ID: 118544
    Host:       ddmfs1
    PSIDATADIR: /ddmfs1b/softs/psi4conda/share/psi4
    Memory:     500.0 MiB
    Threads:    20
    
  ==> Input File <==

--------------------------------------------------------------------------
MEMORY 60 GB

molecule dimer {
0 1
Gh(Br)     0.000000     0.000000     0.000000
Gh(O)      2.811524     1.249320    -1.388987
Gh(H)      1.946830     1.247401    -0.997053
Gh(H)      3.333840     0.621936    -0.862941
Gh(O)      0.730217    -0.632562    -3.163435
Gh(H)      0.536797    -0.243198    -2.271879
Gh(H)     -0.106351    -1.015408    -3.475712
O          0.512458    -2.117774     2.783375
H         -0.374234    -2.073142     3.177067
H          0.435196    -1.601621     1.947776
Gh(O)     -2.791734     2.004077    -0.136779
Gh(H)     -2.751611     2.294819    -1.051084
Gh(H)     -2.113860     2.543174     0.294439
Gh(O)      1.179334    -3.203196    -0.267623
Gh(H)      1.473685    -3.396931    -1.169483
Gh(H)      0.786142    -2.333499    -0.274332
Gh(O)      2.267015     1.055756     2.263133
Gh(H)      1.546156     0.892135     2.866249
Gh(H)      2.080614     0.524899     1.492348

units ang
no_reorient
no_com
symmetry c1
}

set {
basis        aug-cc-pVTZ
scf_type     df
}

energy("mp2")
--------------------------------------------------------------------------

  Memory set to  55.879 GiB by Python driver.

Scratch directory: /ddmfs1a/scratch/
   => Libint2 <=

    Primary   basis highest AM E, G, H:  5, 4, 3
    Auxiliary basis highest AM E, G, H:  6, 5, 4
    Onebody   basis highest AM E, G, H:  6, 5, 4
    Solid Harmonics ordering:            gaussian

*** tstart() called on ddmfs1
*** at Mon Jan 22 23:52:19 2024

   => Loading Basis Set <=

    Name: AUG-CC-PVTZ
    Role: ORBITAL
    Keyword: BASIS
    atoms 1                                   entry BR         line  4208 file /ddmfs1b/softs/psi4conda/share/psi4/basis/aug-cc-pvtz.gbs 
    atoms 2, 5, 8, 11, 14, 17                 entry O          line   331 file /ddmfs1b/softs/psi4conda/share/psi4/basis/aug-cc-pvtz.gbs 
    atoms 3-4, 6-7, 9-10, 12-13, 15-16, 18-19 entry H          line    40 file /ddmfs1b/softs/psi4conda/share/psi4/basis/aug-cc-pvtz.gbs 


         ---------------------------------------------------------
                                   SCF
               by Justin Turney, Rob Parrish, Andy Simmonett
                          and Daniel G. A. Smith
                              RHF Reference
                       20 Threads,  57220 MiB Core
         ---------------------------------------------------------

  ==> Geometry <==

    Molecular point group: c1
    Full point group: C1

    Geometry (in Angstrom), charge = 0, multiplicity = 1:

       Center              X                  Y                   Z               Mass       
    ------------   -----------------  -----------------  -----------------  -----------------
      Gh(BR)          0.000000000000     0.000000000000     0.000000000000    78.918337600000
      Gh(O)           2.811524000000     1.249320000000    -1.388987000000    15.994914619570
      Gh(H)           1.946830000000     1.247401000000    -0.997053000000     1.007825032230
      Gh(H)           3.333840000000     0.621936000000    -0.862941000000     1.007825032230
      Gh(O)           0.730217000000    -0.632562000000    -3.163435000000    15.994914619570
      Gh(H)           0.536797000000    -0.243198000000    -2.271879000000     1.007825032230
      Gh(H)          -0.106351000000    -1.015408000000    -3.475712000000     1.007825032230
         O            0.512458000000    -2.117774000000     2.783375000000    15.994914619570
         H           -0.374234000000    -2.073142000000     3.177067000000     1.007825032230
         H            0.435196000000    -1.601621000000     1.947776000000     1.007825032230
      Gh(O)          -2.791734000000     2.004077000000    -0.136779000000    15.994914619570
      Gh(H)          -2.751611000000     2.294819000000    -1.051084000000     1.007825032230
      Gh(H)          -2.113860000000     2.543174000000     0.294439000000     1.007825032230
      Gh(O)           1.179334000000    -3.203196000000    -0.267623000000    15.994914619570
      Gh(H)           1.473685000000    -3.396931000000    -1.169483000000     1.007825032230
      Gh(H)           0.786142000000    -2.333499000000    -0.274332000000     1.007825032230
      Gh(O)           2.267015000000     1.055756000000     2.263133000000    15.994914619570
      Gh(H)           1.546156000000     0.892135000000     2.866249000000     1.007825032230
      Gh(H)           2.080614000000     0.524899000000     1.492348000000     1.007825032230

  Running in c1 symmetry.

  Rotational constants: A =      0.02311  B =      0.02081  C =      0.01795 [cm^-1]
  Rotational constants: A =    692.88413  B =    623.72059  C =    538.07581 [MHz]
  Nuclear repulsion =    8.998432447400759

  Charge       = 0
  Multiplicity = 1
  Electrons    = 10
  Nalpha       = 5
  Nbeta        = 5

  ==> Algorithm <==

  SCF Algorithm Type is DF.
  DIIS enabled.
  MOM disabled.
  Fractional occupation disabled.
  Guess Type is SAD.
  Energy threshold   = 1.00e-08
  Density threshold  = 1.00e-08
  Integral threshold = 1.00e-12

  ==> Primary Basis <==

  Basis Set: AUG-CC-PVTZ
    Blend: AUG-CC-PVTZ
    Number of shells: 211
    Number of basis functions: 611
    Number of Cartesian functions: 699
    Spherical Harmonics?: true
    Max angular momentum: 3

   => Loading Basis Set <=

    Name: (AUG-CC-PVTZ AUX)
    Role: JKFIT
    Keyword: DF_BASIS_SCF
    atoms 1                                   entry BR         line  1492 file /ddmfs1b/softs/psi4conda/share/psi4/basis/aug-cc-pvtz-jkfit.gbs 
    atoms 2, 5, 8, 11, 14, 17                 entry O          line   286 file /ddmfs1b/softs/psi4conda/share/psi4/basis/aug-cc-pvtz-jkfit.gbs 
    atoms 3-4, 6-7, 9-10, 12-13, 15-16, 18-19 entry H          line    70 file /ddmfs1b/softs/psi4conda/share/psi4/basis/aug-cc-pvtz-jkfit.gbs 

  ==> Integral Setup <==

  DFHelper Memory: AOs need 3.464 GiB; user supplied 41.910 GiB. 
  Using in-core AOs.

  ==> MemDFJK: Density-Fitted J/K Matrices <==

    J tasked:                   Yes
    K tasked:                   Yes
    wK tasked:                   No
    OpenMP threads:              20
    Memory [MiB]:             42915
    Algorithm:                 Core
    Schwarz Cutoff:           1E-12
    Mask sparsity (%):      16.2177
    Fitting Condition:        1E-10

   => Auxiliary Basis Set <=

  Basis Set: (AUG-CC-PVTZ AUX)
    Blend: AUG-CC-PVTZ-JKFIT
    Number of shells: 406
    Number of basis functions: 1424
    Number of Cartesian functions: 1775
    Spherical Harmonics?: true
    Max angular momentum: 4

  Minimum eigenvalue in the overlap matrix is 1.3293299730E-04.
  Reciprocal condition number of the overlap matrix is 1.0043555804E-05.
    Using symmetric orthogonalization.

  ==> Pre-Iterations <==

  SCF Guess: Superposition of Atomic Densities via on-the-fly atomic UHF (no occupation information).

   -------------------------
    Irrep   Nso     Nmo    
   -------------------------
     A        611     611 
   -------------------------
    Total     611     611
   -------------------------

  ==> Iterations <==

                           Total Energy        Delta E     RMS |[F,P]|

   @DF-RHF iter SAD:   -75.45374605195015   -7.54537e+01   0.00000e+00 
   @DF-RHF iter   1:   -75.97316256661136   -5.19417e-01   7.64358e-04 ADIIS/DIIS
   @DF-RHF iter   2:   -76.02505189078097   -5.18893e-02   5.32219e-04 ADIIS/DIIS
   @DF-RHF iter   3:   -76.05795253778987   -3.29006e-02   3.62848e-05 DIIS
   @DF-RHF iter   4:   -76.05836935786948   -4.16820e-04   9.05240e-06 DIIS
   @DF-RHF iter   5:   -76.05839803330586   -2.86754e-05   2.09473e-06 DIIS
   @DF-RHF iter   6:   -76.05840045385170   -2.42055e-06   4.60618e-07 DIIS
   @DF-RHF iter   7:   -76.05840058123283   -1.27381e-07   8.17916e-08 DIIS
   @DF-RHF iter   8:   -76.05840058471777   -3.48494e-09   1.40380e-08 DIIS
   @DF-RHF iter   9:   -76.05840058480068   -8.29061e-11   3.58808e-09 DIIS
  Energy and wave function converged.


  ==> Post-Iterations <==

    Orbital Energies [Eh]
    ---------------------

    Doubly Occupied:                                                      

       1A    -20.570829     2A     -1.343109     3A     -0.706180  
       4A     -0.581120     5A     -0.508693  

    Virtual:                                                              

       6A      0.013790     7A      0.030319     8A      0.033477  
       9A      0.035945    10A      0.050933    11A      0.053525  
      12A      0.057886    13A      0.058782    14A      0.065588  
      15A      0.072201    16A      0.081990    17A      0.090234  
      18A      0.094896    19A      0.104765    20A      0.111787  
      21A      0.120796    22A      0.123403    23A      0.138685  
      24A      0.143395    25A      0.149014    26A      0.150977  
      27A      0.156544    28A      0.159890    29A      0.161783  
      30A      0.171002    31A      0.175431    32A      0.176768  
      33A      0.183042    34A      0.188344    35A      0.191412  
      36A      0.199822    37A      0.206831    38A      0.216058  
      39A      0.221310    40A      0.225640    41A      0.228019  
      42A      0.230416    43A      0.232334    44A      0.241858  
      45A      0.249339    46A      0.259799    47A      0.264943  
      48A      0.269121    49A      0.278999    50A      0.287649  
      51A      0.289700    52A      0.303871    53A      0.310115  
      54A      0.314897    55A      0.321086    56A      0.324215  
      57A      0.331132    58A      0.337016    59A      0.338810  
      60A      0.340680    61A      0.347834    62A      0.351237  
      63A      0.357571    64A      0.360848    65A      0.366885  
      66A      0.372404    67A      0.378752    68A      0.386906  
      69A      0.388320    70A      0.394005    71A      0.401117  
      72A      0.406685    73A      0.412837    74A      0.413018  
      75A      0.416865    76A      0.427841    77A      0.431277  
      78A      0.435827    79A      0.438437    80A      0.445129  
      81A      0.455870    82A      0.459751    83A      0.463521  
      84A      0.470638    85A      0.479776    86A      0.484462  
      87A      0.491331    88A      0.499394    89A      0.518258  
      90A      0.532287    91A      0.543109    92A      0.548704  
      93A      0.561453    94A      0.566573    95A      0.570552  
      96A      0.585730    97A      0.599957    98A      0.616334  
      99A      0.621622   100A      0.636017   101A      0.644928  
     102A      0.661074   103A      0.678701   104A      0.688212  
     105A      0.698595   106A      0.702249   107A      0.710213  
     108A      0.717050   109A      0.723003   110A      0.734931  
     111A      0.747814   112A      0.756858   113A      0.759971  
     114A      0.762524   115A      0.773793   116A      0.778103  
     117A      0.779701   118A      0.784683   119A      0.792317  
     120A      0.800230   121A      0.805358   122A      0.808160  
     123A      0.817064   124A      0.818115   125A      0.828155  
     126A      0.829854   127A      0.834447   128A      0.840792  
     129A      0.843667   130A      0.850153   131A      0.854502  
     132A      0.860293   133A      0.865168   134A      0.869873  
     135A      0.878009   136A      0.882188   137A      0.884926  
     138A      0.892732   139A      0.899418   140A      0.900324  
     141A      0.908369   142A      0.910813   143A      0.917321  
     144A      0.924436   145A      0.927234   146A      0.931214  
     147A      0.933846   148A      0.939779   149A      0.949009  
     150A      0.957186   151A      0.957914   152A      0.964906  
     153A      0.970438   154A      0.977667   155A      0.983357  
     156A      0.986778   157A      0.999575   158A      1.001214  
     159A      1.006321   160A      1.014359   161A      1.016112  
     162A      1.029401   163A      1.034991   164A      1.043110  
     165A      1.043648   166A      1.048663   167A      1.052813  
     168A      1.059897   169A      1.063693   170A      1.070435  
     171A      1.083338   172A      1.088149   173A      1.093298  
     174A      1.104881   175A      1.106648   176A      1.109987  
     177A      1.116846   178A      1.118173   179A      1.125243  
     180A      1.136529   181A      1.146083   182A      1.150257  
     183A      1.154815   184A      1.159070   185A      1.171046  
     186A      1.180401   187A      1.185068   188A      1.191949  
     189A      1.199886   190A      1.204191   191A      1.221318  
     192A      1.223685   193A      1.234131   194A      1.244273  
     195A      1.250708   196A      1.251012   197A      1.261638  
     198A      1.266834   199A      1.282150   200A      1.289052  
     201A      1.297927   202A      1.319230   203A      1.321410  
     204A      1.329932   205A      1.339859   206A      1.346726  
     207A      1.350248   208A      1.361132   209A      1.377745  
     210A      1.383976   211A      1.390830   212A      1.405816  
     213A      1.409127   214A      1.423268   215A      1.428855  
     216A      1.442330   217A      1.462652   218A      1.471739  
     219A      1.483479   220A      1.487236   221A      1.496716  
     222A      1.508756   223A      1.520906   224A      1.535032  
     225A      1.543405   226A      1.546254   227A      1.562787  
     228A      1.571551   229A      1.578554   230A      1.604578  
     231A      1.613139   232A      1.617321   233A      1.630229  
     234A      1.649340   235A      1.661836   236A      1.673589  
     237A      1.679465   238A      1.686164   239A      1.700424  
     240A      1.711636   241A      1.720736   242A      1.726146  
     243A      1.753584   244A      1.765427   245A      1.768183  
     246A      1.780410   247A      1.783025   248A      1.799064  
     249A      1.805480   250A      1.808450   251A      1.815455  
     252A      1.826064   253A      1.836996   254A      1.841916  
     255A      1.855529   256A      1.865904   257A      1.871801  
     258A      1.874891   259A      1.893806   260A      1.907274  
     261A      1.913337   262A      1.921974   263A      1.933342  
     264A      1.948171   265A      1.959643   266A      1.972524  
     267A      1.978443   268A      1.987396   269A      2.000800  
     270A      2.026068   271A      2.031926   272A      2.051944  
     273A      2.073596   274A      2.084513   275A      2.113508  
     276A      2.129196   277A      2.205631   278A      2.223160  
     279A      2.272049   280A      2.337230   281A      2.390670  
     282A      2.415639   283A      2.447687   284A      2.453680  
     285A      2.458670   286A      2.463780   287A      2.476732  
     288A      2.478822   289A      2.492106   290A      2.497856  
     291A      2.505496   292A      2.524301   293A      2.535140  
     294A      2.544017   295A      2.548062   296A      2.557604  
     297A      2.562259   298A      2.576128   299A      2.580879  
     300A      2.590417   301A      2.593802   302A      2.597378  
     303A      2.605382   304A      2.609585   305A      2.622644  
     306A      2.632641   307A      2.633696   308A      2.649588  
     309A      2.651439   310A      2.668368   311A      2.672458  
     312A      2.687493   313A      2.698460   314A      2.707302  
     315A      2.715626   316A      2.725357   317A      2.736797  
     318A      2.746653   319A      2.755222   320A      2.761321  
     321A      2.780871   322A      2.804446   323A      2.813176  
     324A      2.839234   325A      2.844909   326A      2.856562  
     327A      2.863549   328A      2.872554   329A      2.893038  
     330A      2.938951   331A      2.952462   332A      2.963778  
     333A      2.990626   334A      3.010017   335A      3.032017  
     336A      3.048218   337A      3.107647   338A      3.148525  
     339A      3.169515   340A      3.174144   341A      3.186557  
     342A      3.205268   343A      3.210802   344A      3.221992  
     345A      3.225913   346A      3.229732   347A      3.231860  
     348A      3.240566   349A      3.252975   350A      3.259341  
     351A      3.271641   352A      3.287347   353A      3.306665  
     354A      3.325729   355A      3.329024   356A      3.339230  
     357A      3.341488   358A      3.378790   359A      3.402593  
     360A      3.411575   361A      3.425922   362A      3.432503  
     363A      3.444367   364A      3.451989   365A      3.463743  
     366A      3.489769   367A      3.495896   368A      3.516354  
     369A      3.536361   370A      3.545896   371A      3.561444  
     372A      3.583039   373A      3.601521   374A      3.611485  
     375A      3.646505   376A      3.663460   377A      3.685721  
     378A      3.714956   379A      3.716190   380A      3.742571  
     381A      3.763067   382A      3.773484   383A      3.790599  
     384A      3.801631   385A      3.820410   386A      3.847242  
     387A      3.873543   388A      3.927583   389A      3.950102  
     390A      4.103559   391A      4.187748   392A      4.257240  
     393A      4.269336   394A      4.281517   395A      4.368574  
     396A      4.377063   397A      4.395415   398A      4.410309  
     399A      4.419132   400A      4.456377   401A      4.465503  
     402A      4.476715   403A      4.486493   404A      4.490749  
     405A      4.505228   406A      4.519789   407A      4.526136  
     408A      4.538337   409A      4.550325   410A      4.563709  
     411A      4.578450   412A      4.595798   413A      4.601522  
     414A      4.608235   415A      4.623922   416A      4.648208  
     417A      4.653091   418A      4.660051   419A      4.664696  
     420A      4.675057   421A      4.690197   422A      4.709298  
     423A      4.732000   424A      4.743208   425A      4.758155  
     426A      4.788211   427A      4.800632   428A      4.807524  
     429A      4.850965   430A      4.855325   431A      4.871363  
     432A      4.890594   433A      4.894714   434A      4.918107  
     435A      4.918861   436A      4.960987   437A      4.964789  
     438A      4.970545   439A      4.988316   440A      5.007313  
     441A      5.026208   442A      5.039352   443A      5.071521  
     444A      5.104516   445A      5.117295   446A      5.125542  
     447A      5.160192   448A      5.189533   449A      5.212531  
     450A      5.227632   451A      5.276299   452A      5.301964  
     453A      5.321198   454A      5.328847   455A      5.358386  
     456A      5.483580   457A      5.499471   458A      5.535769  
     459A      5.538441   460A      5.548758   461A      5.570981  
     462A      5.580960   463A      5.607835   464A      5.612640  
     465A      5.625195   466A      5.633957   467A      5.643905  
     468A      5.679053   469A      5.685568   470A      5.707781  
     471A      5.723341   472A      5.731241   473A      5.830384  
     474A      5.845492   475A      5.873438   476A      5.889444  
     477A      5.897405   478A      6.104020   479A      6.151453  
     480A      6.167121   481A      6.173797   482A      6.179974  
     483A      6.250722   484A      6.378450   485A      6.382350  
     486A      6.458955   487A      6.472470   488A      6.505046  
     489A      6.582431   490A      6.589160   491A      6.659955  
     492A      6.687217   493A      6.729973   494A      6.775380  
     495A      6.846409   496A      6.928517   497A      7.027539  
     498A      7.047189   499A      7.120207   500A      7.137779  
     501A      7.146336   502A      7.157546   503A      7.295416  
     504A      7.314405   505A      7.356200   506A      7.411544  
     507A      7.496069   508A      7.675616   509A      7.701466  
     510A      7.730513   511A      7.734139   512A      7.771505  
     513A      7.794860   514A      7.833736   515A      7.841836  
     516A      7.871037   517A      7.879877   518A      7.886527  
     519A      7.938454   520A      7.957735   521A      8.051548  
     522A      8.055537   523A      8.086498   524A      8.135339  
     525A      8.142540   526A      8.158719   527A      8.203283  
     528A      8.241935   529A      8.271237   530A      8.289811  
     531A      8.299763   532A      8.303325   533A      8.314931  
     534A      8.326182   535A      8.349676   536A      8.696739  
     537A      8.722531   538A      8.761099   539A      8.806497  
     540A      8.810067   541A      8.823409   542A      8.861533  
     543A      8.868041   544A      8.944176   545A      8.975520  
     546A      9.062075   547A      9.705098   548A      9.739623  
     549A      9.742480   550A      9.762116   551A      9.790838  
     552A      9.869088   553A      9.877525   554A      9.888428  
     555A      9.894475   556A      9.901296   557A      9.996834  
     558A     10.062786   559A     10.073718   560A     10.086954  
     561A     10.089844   562A     10.219994   563A     10.300755  
     564A     10.304609   565A     10.320628   566A     10.344670  
     567A     11.093528   568A     11.207407   569A     11.215049  
     570A     11.217932   571A     11.266673   572A     11.307678  
     573A     11.655405   574A     11.748340   575A     11.760181  
     576A     11.822214   577A     11.844846   578A     11.982783  
     579A     12.087506   580A     12.198987   581A     12.223898  
     582A     12.228963   583A     13.496982   584A     13.514780  
     585A     13.639210   586A     13.656525   587A     13.687322  
     588A     13.797892   589A     13.831381   590A     13.873446  
     591A     13.920309   592A     13.939471   593A     13.986756  
     594A     14.086030   595A     14.136268   596A     16.062530  
     597A     26.366328   598A     26.460619   599A     26.504591  
     600A     26.561405   601A     26.655136   602A     46.715157  
     603A     64.719086   604A     65.057282   605A     65.970235  
     606A     66.110176   607A     66.560113   608A    139.004315  
     609A    139.191676   610A    139.446995   611A    712.405357  

    Final Occupation by Irrep:
              A 
    DOCC [     5 ]
    NA   [     5 ]
    NB   [     5 ]

  @DF-RHF Final Energy:   -76.05840058480068

   => Energetics <=

    Nuclear Repulsion Energy =              8.9984324474007593
    One-Electron Energy =                -122.6937993720402744
    Two-Electron Energy =                  37.6369663398388354
    Total Energy =                        -76.0584005848006797

Computation Completed


Properties will be evaluated at   0.000000,   0.000000,   0.000000 [a0]

Properties computed using the SCF density matrix


 Multipole Moments:

 ------------------------------------------------------------------------------------
     Multipole            Electronic (a.u.)      Nuclear  (a.u.)        Total (a.u.)
 ------------------------------------------------------------------------------------

 L = 1.  Multiply by 2.5417464519 to convert [e a0] to [Debye]
 Dipole X            :         -8.4966232            7.8624437           -0.6341796
 Dipole Y            :         39.3278988          -38.9603985            0.3675003
 Dipole Z            :        -52.0514851           51.7630813           -0.2884037
 Magnitude           :                                                    0.7876655

 ------------------------------------------------------------------------------------

*** tstop() called on ddmfs1 at Mon Jan 22 23:52:31 2024
Module time:
	user time   =     147.90 seconds =       2.47 minutes
	system time =       8.78 seconds =       0.15 minutes
	total time  =         12 seconds =       0.20 minutes
Total time:
	user time   =     147.90 seconds =       2.47 minutes
	system time =       8.78 seconds =       0.15 minutes
	total time  =         12 seconds =       0.20 minutes

*** tstart() called on ddmfs1
*** at Mon Jan 22 23:52:31 2024


  //>>>>>>>>>>>>>>>>>>>>>>>>>>>>>>>>>>>//
  //               DFMP2               //
  //<<<<<<<<<<<<<<<<<<<<<<<<<<<<<<<<<<<//

   => Loading Basis Set <=

    Name: (AUG-CC-PVTZ AUX)
    Role: RIFIT
    Keyword: DF_BASIS_MP2
    atoms 1                                   entry BR         line  1248 file /ddmfs1b/softs/psi4conda/share/psi4/basis/aug-cc-pvtz-ri.gbs 
    atoms 2, 5, 8, 11, 14, 17                 entry O          line   264 file /ddmfs1b/softs/psi4conda/share/psi4/basis/aug-cc-pvtz-ri.gbs 
    atoms 3-4, 6-7, 9-10, 12-13, 15-16, 18-19 entry H          line    30 file /ddmfs1b/softs/psi4conda/share/psi4/basis/aug-cc-pvtz-ri.gbs 

	 --------------------------------------------------------
	                          DF-MP2                         
	      2nd-Order Density-Fitted Moller-Plesset Theory     
	              RMP2 Wavefunction,  20 Threads             
	                                                         
	        Rob Parrish, Justin Turney, Andy Simmonett,      
	           Ed Hohenstein, and C. David Sherrill          
	 --------------------------------------------------------

   => Auxiliary Basis Set <=

  Basis Set: (AUG-CC-PVTZ AUX)
    Blend: AUG-CC-PVTZ-RI
    Number of shells: 379
    Number of basis functions: 1379
    Number of Cartesian functions: 1737
    Spherical Harmonics?: true
    Max angular momentum: 5

	 --------------------------------------------------------
	                 NBF =   611, NAUX =  1379
	 --------------------------------------------------------
	   CLASS    FOCC     OCC    AOCC    AVIR     VIR    FVIR
	   PAIRS       0       5       5     606     606       0
	 --------------------------------------------------------

	-----------------------------------------------------------
	 ==================> DF-MP2 Energies <==================== 
	-----------------------------------------------------------
	 Reference Energy          =     -76.0584005848006797 [Eh]
	 Singles Energy            =      -0.0000000000000000 [Eh]
	 Same-Spin Energy          =      -0.0687663237466005 [Eh]
	 Opposite-Spin Energy      =      -0.2170273154529564 [Eh]
	 Correlation Energy        =      -0.2857936391995570 [Eh]
	 Total Energy              =     -76.3441942240002334 [Eh]
	-----------------------------------------------------------
	 ================> DF-SCS-MP2 Energies <================== 
	-----------------------------------------------------------
	 SCS Same-Spin Scale       =       0.3333333333333333 [-]
	 SCS Opposite-Spin Scale   =       1.2000000000000000 [-]
	 SCS Same-Spin Energy      =      -0.0229221079155335 [Eh]
	 SCS Opposite-Spin Energy  =      -0.2604327785435477 [Eh]
	 SCS Correlation Energy    =      -0.2833548864590812 [Eh]
	 SCS Total Energy          =     -76.3417554712597592 [Eh]
	-----------------------------------------------------------


*** tstop() called on ddmfs1 at Mon Jan 22 23:52:44 2024
Module time:
	user time   =      43.91 seconds =       0.73 minutes
	system time =       2.94 seconds =       0.05 minutes
	total time  =         13 seconds =       0.22 minutes
Total time:
	user time   =     191.83 seconds =       3.20 minutes
	system time =      11.72 seconds =       0.20 minutes
	total time  =         25 seconds =       0.42 minutes

    Psi4 stopped on: Monday, 22 January 2024 11:52PM
    Psi4 wall time for execution: 0:00:25.05

*** Psi4 exiting successfully. Buy a developer a beer!
