
    -----------------------------------------------------------------------
          Psi4: An Open-Source Ab Initio Electronic Structure Package
                               Psi4 1.8.2 release

                         Git: Rev {} zzzzzzz 


    D. G. A. Smith, L. A. Burns, A. C. Simmonett, R. M. Parrish,
    M. C. Schieber, R. Galvelis, P. Kraus, H. Kruse, R. Di Remigio,
    A. Alenaizan, A. M. James, S. Lehtola, J. P. Misiewicz, M. Scheurer,
    R. A. Shaw, J. B. Schriber, Y. Xie, Z. L. Glick, D. A. Sirianni,
    J. S. O'Brien, J. M. Waldrop, A. Kumar, E. G. Hohenstein,
    B. P. Pritchard, B. R. Brooks, H. F. Schaefer III, A. Yu. Sokolov,
    K. Patkowski, A. E. DePrince III, U. Bozkaya, R. A. King,
    F. A. Evangelista, J. M. Turney, T. D. Crawford, C. D. Sherrill,
    J. Chem. Phys. 152(18) 184108 (2020). https://doi.org/10.1063/5.0006002

                            Additional Code Authors
    E. T. Seidl, C. L. Janssen, E. F. Valeev, M. L. Leininger,
    J. F. Gonthier, R. M. Richard, H. R. McAlexander, M. Saitow, X. Wang,
    P. Verma, M. H. Lechner, A. Jiang, S. Behnle, A. G. Heide,
    M. F. Herbst, and D. L. Poole

             Previous Authors, Complete List of Code Contributors,
                       and Citations for Specific Modules
    https://github.com/psi4/psi4/blob/master/codemeta.json
    https://github.com/psi4/psi4/graphs/contributors
    http://psicode.org/psi4manual/master/introduction.html#citing-psifour

    -----------------------------------------------------------------------


    Psi4 started on: Monday, 22 January 2024 10:12PM

    Process ID: 112434
    Host:       ddmfs1
    PSIDATADIR: /ddmfs1b/softs/psi4conda/share/psi4
    Memory:     500.0 MiB
    Threads:    20
    
  ==> Input File <==

--------------------------------------------------------------------------
MEMORY 60 GB

molecule dimer {
0 1
Gh(Br)     0.000000     0.000000     0.000000
Gh(O)     -1.840831    -1.774050     1.834568
Gh(H)     -1.901929    -2.503854     1.228639
Gh(H)     -1.270653    -1.166530     1.322161
O          1.154957    -1.856330     2.510722
H          0.297931    -2.172747     2.763830
H          1.068259    -1.392424     1.661516
Gh(O)      3.348506    -0.225290    -1.030075
Gh(H)      2.446439    -0.034057    -0.715322
Gh(H)      3.503325    -1.124527    -0.914376
Gh(O)     -1.970296     2.489958    -0.789570
Gh(H)     -2.695508     3.100915    -1.071316
Gh(H)     -1.197742     2.647194    -1.321328
Gh(O)      0.086673    -3.010722    -1.445107
Gh(H)      0.037079    -2.054659    -1.152701
Gh(H)      0.257774    -2.926956    -2.402717

units ang
no_reorient
no_com
symmetry c1
}

set {
basis        aug-cc-pVTZ
scf_type     df
}

energy("mp2")
--------------------------------------------------------------------------

  Memory set to  55.879 GiB by Python driver.

Scratch directory: /ddmfs1a/scratch/
   => Libint2 <=

    Primary   basis highest AM E, G, H:  5, 4, 3
    Auxiliary basis highest AM E, G, H:  6, 5, 4
    Onebody   basis highest AM E, G, H:  6, 5, 4
    Solid Harmonics ordering:            gaussian

*** tstart() called on ddmfs1
*** at Mon Jan 22 22:12:49 2024

   => Loading Basis Set <=

    Name: AUG-CC-PVTZ
    Role: ORBITAL
    Keyword: BASIS
    atoms 1                            entry BR         line  4208 file /ddmfs1b/softs/psi4conda/share/psi4/basis/aug-cc-pvtz.gbs 
    atoms 2, 5, 8, 11, 14              entry O          line   331 file /ddmfs1b/softs/psi4conda/share/psi4/basis/aug-cc-pvtz.gbs 
    atoms 3-4, 6-7, 9-10, 12-13, 15-16 entry H          line    40 file /ddmfs1b/softs/psi4conda/share/psi4/basis/aug-cc-pvtz.gbs 


         ---------------------------------------------------------
                                   SCF
               by Justin Turney, Rob Parrish, Andy Simmonett
                          and Daniel G. A. Smith
                              RHF Reference
                       20 Threads,  57220 MiB Core
         ---------------------------------------------------------

  ==> Geometry <==

    Molecular point group: c1
    Full point group: C1

    Geometry (in Angstrom), charge = 0, multiplicity = 1:

       Center              X                  Y                   Z               Mass       
    ------------   -----------------  -----------------  -----------------  -----------------
      Gh(BR)          0.000000000000     0.000000000000     0.000000000000    78.918337600000
      Gh(O)          -1.840831000000    -1.774050000000     1.834568000000    15.994914619570
      Gh(H)          -1.901929000000    -2.503854000000     1.228639000000     1.007825032230
      Gh(H)          -1.270653000000    -1.166530000000     1.322161000000     1.007825032230
         O            1.154957000000    -1.856330000000     2.510722000000    15.994914619570
         H            0.297931000000    -2.172747000000     2.763830000000     1.007825032230
         H            1.068259000000    -1.392424000000     1.661516000000     1.007825032230
      Gh(O)           3.348506000000    -0.225290000000    -1.030075000000    15.994914619570
      Gh(H)           2.446439000000    -0.034057000000    -0.715322000000     1.007825032230
      Gh(H)           3.503325000000    -1.124527000000    -0.914376000000     1.007825032230
      Gh(O)          -1.970296000000     2.489958000000    -0.789570000000    15.994914619570
      Gh(H)          -2.695508000000     3.100915000000    -1.071316000000     1.007825032230
      Gh(H)          -1.197742000000     2.647194000000    -1.321328000000     1.007825032230
      Gh(O)           0.086673000000    -3.010722000000    -1.445107000000    15.994914619570
      Gh(H)           0.037079000000    -2.054659000000    -1.152701000000     1.007825032230
      Gh(H)           0.257774000000    -2.926956000000    -2.402717000000     1.007825032230

  Running in c1 symmetry.

  Rotational constants: A =      0.03308  B =      0.02636  C =      0.02045 [cm^-1]
  Rotational constants: A =    991.60024  B =    790.27137  C =    613.01620 [MHz]
  Nuclear repulsion =    9.163510245046799

  Charge       = 0
  Multiplicity = 1
  Electrons    = 10
  Nalpha       = 5
  Nbeta        = 5

  ==> Algorithm <==

  SCF Algorithm Type is DF.
  DIIS enabled.
  MOM disabled.
  Fractional occupation disabled.
  Guess Type is SAD.
  Energy threshold   = 1.00e-08
  Density threshold  = 1.00e-08
  Integral threshold = 1.00e-12

  ==> Primary Basis <==

  Basis Set: AUG-CC-PVTZ
    Blend: AUG-CC-PVTZ
    Number of shells: 179
    Number of basis functions: 519
    Number of Cartesian functions: 594
    Spherical Harmonics?: true
    Max angular momentum: 3

   => Loading Basis Set <=

    Name: (AUG-CC-PVTZ AUX)
    Role: JKFIT
    Keyword: DF_BASIS_SCF
    atoms 1                            entry BR         line  1492 file /ddmfs1b/softs/psi4conda/share/psi4/basis/aug-cc-pvtz-jkfit.gbs 
    atoms 2, 5, 8, 11, 14              entry O          line   286 file /ddmfs1b/softs/psi4conda/share/psi4/basis/aug-cc-pvtz-jkfit.gbs 
    atoms 3-4, 6-7, 9-10, 12-13, 15-16 entry H          line    70 file /ddmfs1b/softs/psi4conda/share/psi4/basis/aug-cc-pvtz-jkfit.gbs 

  ==> Integral Setup <==

  DFHelper Memory: AOs need 2.204 GiB; user supplied 41.910 GiB. 
  Using in-core AOs.

  ==> MemDFJK: Density-Fitted J/K Matrices <==

    J tasked:                   Yes
    K tasked:                   Yes
    wK tasked:                   No
    OpenMP threads:              20
    Memory [MiB]:             42915
    Algorithm:                 Core
    Schwarz Cutoff:           1E-12
    Mask sparsity (%):      14.8670
    Fitting Condition:        1E-10

   => Auxiliary Basis Set <=

  Basis Set: (AUG-CC-PVTZ AUX)
    Blend: AUG-CC-PVTZ-JKFIT
    Number of shells: 348
    Number of basis functions: 1228
    Number of Cartesian functions: 1534
    Spherical Harmonics?: true
    Max angular momentum: 4

  Minimum eigenvalue in the overlap matrix is 1.2105007780E-04.
  Reciprocal condition number of the overlap matrix is 9.5847169548E-06.
    Using symmetric orthogonalization.

  ==> Pre-Iterations <==

  SCF Guess: Superposition of Atomic Densities via on-the-fly atomic UHF (no occupation information).

   -------------------------
    Irrep   Nso     Nmo    
   -------------------------
     A        519     519 
   -------------------------
    Total     519     519
   -------------------------

  ==> Iterations <==

                           Total Energy        Delta E     RMS |[F,P]|

   @DF-RHF iter SAD:   -75.47139732426164   -7.54714e+01   0.00000e+00 
   @DF-RHF iter   1:   -75.97604083835766   -5.04644e-01   9.02973e-04 DIIS/ADIIS
   @DF-RHF iter   2:   -76.02844007237286   -5.23992e-02   6.13716e-04 DIIS/ADIIS
   @DF-RHF iter   3:   -76.05967414014837   -3.12341e-02   4.17399e-05 DIIS
   @DF-RHF iter   4:   -76.06006860530162   -3.94465e-04   1.00155e-05 DIIS
   @DF-RHF iter   5:   -76.06009321781559   -2.46125e-05   2.26980e-06 DIIS
   @DF-RHF iter   6:   -76.06009524849270   -2.03068e-06   5.06536e-07 DIIS
   @DF-RHF iter   7:   -76.06009536077120   -1.12278e-07   9.53020e-08 DIIS
   @DF-RHF iter   8:   -76.06009536428523   -3.51403e-09   1.58356e-08 DIIS
   @DF-RHF iter   9:   -76.06009536436251   -7.72786e-11   3.97609e-09 DIIS
  Energy and wave function converged.


  ==> Post-Iterations <==

    Orbital Energies [Eh]
    ---------------------

    Doubly Occupied:                                                      

       1A    -20.565899     2A     -1.349789     3A     -0.723366  
       4A     -0.577231     5A     -0.509031  

    Virtual:                                                              

       6A      0.014264     7A      0.030599     8A      0.032353  
       9A      0.041072    10A      0.051586    11A      0.055496  
      12A      0.059337    13A      0.065420    14A      0.073007  
      15A      0.077635    16A      0.099724    17A      0.101639  
      18A      0.109879    19A      0.113832    20A      0.131426  
      21A      0.138736    22A      0.141642    23A      0.144514  
      24A      0.149164    25A      0.157825    26A      0.159161  
      27A      0.169016    28A      0.171835    29A      0.181406  
      30A      0.183236    31A      0.193143    32A      0.196639  
      33A      0.200758    34A      0.205602    35A      0.213448  
      36A      0.223257    37A      0.233459    38A      0.238628  
      39A      0.249728    40A      0.261013    41A      0.267613  
      42A      0.271084    43A      0.280316    44A      0.289986  
      45A      0.295866    46A      0.297894    47A      0.301595  
      48A      0.312654    49A      0.316114    50A      0.324653  
      51A      0.331903    52A      0.338454    53A      0.338518  
      54A      0.344926    55A      0.347110    56A      0.353979  
      57A      0.361600    58A      0.371240    59A      0.377460  
      60A      0.382183    61A      0.385515    62A      0.390971  
      63A      0.403006    64A      0.408763    65A      0.410739  
      66A      0.417505    67A      0.420585    68A      0.434072  
      69A      0.441817    70A      0.447522    71A      0.449465  
      72A      0.454813    73A      0.469688    74A      0.471354  
      75A      0.500328    76A      0.508451    77A      0.512688  
      78A      0.513855    79A      0.525681    80A      0.531371  
      81A      0.556206    82A      0.571564    83A      0.579854  
      84A      0.601309    85A      0.611365    86A      0.615276  
      87A      0.640880    88A      0.652613    89A      0.666941  
      90A      0.673090    91A      0.690899    92A      0.692474  
      93A      0.715849    94A      0.719108    95A      0.729737  
      96A      0.740121    97A      0.742107    98A      0.757879  
      99A      0.766085   100A      0.771441   101A      0.777554  
     102A      0.780721   103A      0.783480   104A      0.793658  
     105A      0.799018   106A      0.806397   107A      0.811161  
     108A      0.821771   109A      0.827389   110A      0.832273  
     111A      0.845747   112A      0.850505   113A      0.852754  
     114A      0.854968   115A      0.868857   116A      0.870280  
     117A      0.876376   118A      0.880862   119A      0.886163  
     120A      0.888362   121A      0.895744   122A      0.903065  
     123A      0.907159   124A      0.916402   125A      0.919740  
     126A      0.931393   127A      0.941180   128A      0.944161  
     129A      0.949424   130A      0.953610   131A      0.961263  
     132A      0.968217   133A      0.971958   134A      0.986609  
     135A      0.991426   136A      0.997322   137A      1.002115  
     138A      1.009056   139A      1.012504   140A      1.017291  
     141A      1.027414   142A      1.041666   143A      1.044906  
     144A      1.052238   145A      1.057711   146A      1.065319  
     147A      1.068032   148A      1.079381   149A      1.088412  
     150A      1.091775   151A      1.094910   152A      1.100710  
     153A      1.108539   154A      1.122512   155A      1.128845  
     156A      1.131904   157A      1.137748   158A      1.150062  
     159A      1.160697   160A      1.162595   161A      1.174170  
     162A      1.193605   163A      1.201286   164A      1.206829  
     165A      1.224631   166A      1.228350   167A      1.243116  
     168A      1.246790   169A      1.261524   170A      1.263376  
     171A      1.274945   172A      1.282186   173A      1.295006  
     174A      1.298672   175A      1.303233   176A      1.314191  
     177A      1.333932   178A      1.342354   179A      1.348051  
     180A      1.370304   181A      1.374421   182A      1.382434  
     183A      1.406959   184A      1.418622   185A      1.425105  
     186A      1.427844   187A      1.448638   188A      1.468619  
     189A      1.490511   190A      1.491564   191A      1.497433  
     192A      1.502475   193A      1.528303   194A      1.532469  
     195A      1.558859   196A      1.571970   197A      1.594489  
     198A      1.610076   199A      1.615425   200A      1.620801  
     201A      1.652505   202A      1.674402   203A      1.686642  
     204A      1.711375   205A      1.712566   206A      1.723736  
     207A      1.728649   208A      1.743892   209A      1.757669  
     210A      1.764325   211A      1.770958   212A      1.780782  
     213A      1.793730   214A      1.795503   215A      1.807039  
     216A      1.816238   217A      1.822728   218A      1.833459  
     219A      1.848660   220A      1.864520   221A      1.877897  
     222A      1.891033   223A      1.902213   224A      1.907027  
     225A      1.923051   226A      1.946286   227A      1.962780  
     228A      1.968822   229A      1.991452   230A      1.995735  
     231A      2.017093   232A      2.032033   233A      2.043616  
     234A      2.070207   235A      2.127256   236A      2.172144  
     237A      2.215613   238A      2.266093   239A      2.339077  
     240A      2.382323   241A      2.403062   242A      2.407200  
     243A      2.438976   244A      2.453407   245A      2.463158  
     246A      2.477563   247A      2.481003   248A      2.500725  
     249A      2.505710   250A      2.518437   251A      2.527525  
     252A      2.531571   253A      2.535004   254A      2.542138  
     255A      2.550006   256A      2.562759   257A      2.567677  
     258A      2.582912   259A      2.589332   260A      2.600693  
     261A      2.613091   262A      2.624995   263A      2.634950  
     264A      2.647917   265A      2.650445   266A      2.659348  
     267A      2.680490   268A      2.698674   269A      2.713520  
     270A      2.724541   271A      2.732148   272A      2.755204  
     273A      2.765838   274A      2.779309   275A      2.790948  
     276A      2.826504   277A      2.827072   278A      2.858270  
     279A      2.877983   280A      2.922953   281A      2.931590  
     282A      2.965951   283A      2.976244   284A      3.003014  
     285A      3.014509   286A      3.048291   287A      3.099297  
     288A      3.129866   289A      3.147094   290A      3.166607  
     291A      3.177024   292A      3.194944   293A      3.204068  
     294A      3.213133   295A      3.225130   296A      3.234468  
     297A      3.252392   298A      3.259638   299A      3.264326  
     300A      3.286277   301A      3.292316   302A      3.305075  
     303A      3.322615   304A      3.336640   305A      3.351986  
     306A      3.387559   307A      3.388802   308A      3.410488  
     309A      3.426437   310A      3.433327   311A      3.453443  
     312A      3.481440   313A      3.518781   314A      3.529195  
     315A      3.535328   316A      3.575194   317A      3.579288  
     318A      3.595455   319A      3.603999   320A      3.616676  
     321A      3.651712   322A      3.693674   323A      3.702357  
     324A      3.716110   325A      3.717110   326A      3.749940  
     327A      3.818903   328A      3.835800   329A      3.847557  
     330A      3.878652   331A      3.905416   332A      3.982352  
     333A      4.087615   334A      4.160644   335A      4.276097  
     336A      4.287859   337A      4.334111   338A      4.346194  
     339A      4.371368   340A      4.384144   341A      4.413799  
     342A      4.416657   343A      4.440602   344A      4.460495  
     345A      4.473098   346A      4.488116   347A      4.492022  
     348A      4.494007   349A      4.505561   350A      4.515894  
     351A      4.533446   352A      4.557405   353A      4.584607  
     354A      4.606799   355A      4.628384   356A      4.652030  
     357A      4.662028   358A      4.666970   359A      4.690905  
     360A      4.703180   361A      4.720544   362A      4.745094  
     363A      4.770624   364A      4.795185   365A      4.825161  
     366A      4.870998   367A      4.874351   368A      4.876135  
     369A      4.901782   370A      4.908275   371A      4.930625  
     372A      4.933441   373A      4.946731   374A      4.972878  
     375A      4.992137   376A      5.015978   377A      5.037190  
     378A      5.040818   379A      5.092325   380A      5.132970  
     381A      5.172664   382A      5.198661   383A      5.205384  
     384A      5.252891   385A      5.316096   386A      5.322019  
     387A      5.394051   388A      5.425715   389A      5.477929  
     390A      5.481874   391A      5.522986   392A      5.527728  
     393A      5.531193   394A      5.570276   395A      5.586140  
     396A      5.596785   397A      5.598369   398A      5.665613  
     399A      5.669039   400A      5.695812   401A      5.777701  
     402A      5.780869   403A      5.827371   404A      5.862136  
     405A      5.882251   406A      5.969139   407A      6.119856  
     408A      6.143623   409A      6.159765   410A      6.190363  
     411A      6.248948   412A      6.302969   413A      6.364532  
     414A      6.403887   415A      6.487775   416A      6.598642  
     417A      6.606710   418A      6.674256   419A      6.732357  
     420A      6.775208   421A      6.815602   422A      6.951988  
     423A      6.969145   424A      7.053242   425A      7.104138  
     426A      7.182419   427A      7.199638   428A      7.321528  
     429A      7.340206   430A      7.383114   431A      7.469883  
     432A      7.516226   433A      7.654038   434A      7.701046  
     435A      7.716021   436A      7.724385   437A      7.758065  
     438A      7.805460   439A      7.824587   440A      7.837609  
     441A      7.926043   442A      7.979004   443A      8.009737  
     444A      8.064670   445A      8.065517   446A      8.108109  
     447A      8.120823   448A      8.133549   449A      8.220580  
     450A      8.225650   451A      8.238812   452A      8.244462  
     453A      8.321457   454A      8.327370   455A      8.334121  
     456A      8.700401   457A      8.725564   458A      8.778058  
     459A      8.795952   460A      8.821136   461A      8.837665  
     462A      8.902774   463A      8.957940   464A      9.055586  
     465A      9.645210   466A      9.710527   467A      9.758665  
     468A      9.796381   469A      9.836791   470A      9.858925  
     471A      9.886744   472A      9.927484   473A     10.000871  
     474A     10.052869   475A     10.058325   476A     10.094174  
     477A     10.179283   478A     10.299592   479A     10.304111  
     480A     10.340980   481A     11.061987   482A     11.080463  
     483A     11.201609   484A     11.247859   485A     11.296110  
     486A     11.580037   487A     11.664524   488A     11.722612  
     489A     11.885875   490A     11.901541   491A     12.068833  
     492A     12.212174   493A     12.385300   494A     13.453606  
     495A     13.475210   496A     13.673423   497A     13.706801  
     498A     13.807295   499A     13.853235   500A     13.884037  
     501A     13.932048   502A     13.973003   503A     14.071076  
     504A     14.255491   505A     16.774047   506A     26.332710  
     507A     26.390723   508A     26.446705   509A     26.578435  
     510A     26.693270   511A     46.654913   512A     64.255345  
     513A     64.646503   514A     66.953239   515A     67.249517  
     516A    138.988620   517A    139.190513   518A    139.440591  
     519A    712.207315  

    Final Occupation by Irrep:
              A 
    DOCC [     5 ]
    NA   [     5 ]
    NB   [     5 ]

  @DF-RHF Final Energy:   -76.06009536436251

   => Energetics <=

    Nuclear Repulsion Energy =              9.1635102450467993
    One-Electron Energy =                -122.9965752411835638
    Two-Electron Energy =                  37.7729696317742594
    Total Energy =                        -76.0600953643625104

Computation Completed


Properties will be evaluated at   0.000000,   0.000000,   0.000000 [a0]

Properties computed using the SCF density matrix


 Multipole Moments:

 ------------------------------------------------------------------------------------
     Multipole            Electronic (a.u.)      Nuclear  (a.u.)        Total (a.u.)
 ------------------------------------------------------------------------------------

 L = 1.  Multiply by 2.5417464519 to convert [e a0] to [Debye]
 Dipole X            :        -20.6779671           20.0421443           -0.6358228
 Dipole Y            :         34.8983072          -34.8008392            0.0974681
 Dipole Z            :        -46.7173632           46.3193076           -0.3980556
 Magnitude           :                                                    0.7564516

 ------------------------------------------------------------------------------------

*** tstop() called on ddmfs1 at Mon Jan 22 22:12:58 2024
Module time:
	user time   =     100.86 seconds =       1.68 minutes
	system time =       7.05 seconds =       0.12 minutes
	total time  =          9 seconds =       0.15 minutes
Total time:
	user time   =     100.86 seconds =       1.68 minutes
	system time =       7.05 seconds =       0.12 minutes
	total time  =          9 seconds =       0.15 minutes

*** tstart() called on ddmfs1
*** at Mon Jan 22 22:12:58 2024


  //>>>>>>>>>>>>>>>>>>>>>>>>>>>>>>>>>>>//
  //               DFMP2               //
  //<<<<<<<<<<<<<<<<<<<<<<<<<<<<<<<<<<<//

   => Loading Basis Set <=

    Name: (AUG-CC-PVTZ AUX)
    Role: RIFIT
    Keyword: DF_BASIS_MP2
    atoms 1                            entry BR         line  1248 file /ddmfs1b/softs/psi4conda/share/psi4/basis/aug-cc-pvtz-ri.gbs 
    atoms 2, 5, 8, 11, 14              entry O          line   264 file /ddmfs1b/softs/psi4conda/share/psi4/basis/aug-cc-pvtz-ri.gbs 
    atoms 3-4, 6-7, 9-10, 12-13, 15-16 entry H          line    30 file /ddmfs1b/softs/psi4conda/share/psi4/basis/aug-cc-pvtz-ri.gbs 

	 --------------------------------------------------------
	                          DF-MP2                         
	      2nd-Order Density-Fitted Moller-Plesset Theory     
	              RMP2 Wavefunction,  20 Threads             
	                                                         
	        Rob Parrish, Justin Turney, Andy Simmonett,      
	           Ed Hohenstein, and C. David Sherrill          
	 --------------------------------------------------------

   => Auxiliary Basis Set <=

  Basis Set: (AUG-CC-PVTZ AUX)
    Blend: AUG-CC-PVTZ-RI
    Number of shells: 323
    Number of basis functions: 1181
    Number of Cartesian functions: 1491
    Spherical Harmonics?: true
    Max angular momentum: 5

	 --------------------------------------------------------
	                 NBF =   519, NAUX =  1181
	 --------------------------------------------------------
	   CLASS    FOCC     OCC    AOCC    AVIR     VIR    FVIR
	   PAIRS       0       5       5     514     514       0
	 --------------------------------------------------------

	-----------------------------------------------------------
	 ==================> DF-MP2 Energies <==================== 
	-----------------------------------------------------------
	 Reference Energy          =     -76.0600953643625104 [Eh]
	 Singles Energy            =      -0.0000000000000000 [Eh]
	 Same-Spin Energy          =      -0.0683819624274451 [Eh]
	 Opposite-Spin Energy      =      -0.2158850522062307 [Eh]
	 Correlation Energy        =      -0.2842670146336758 [Eh]
	 Total Energy              =     -76.3443623789961805 [Eh]
	-----------------------------------------------------------
	 ================> DF-SCS-MP2 Energies <================== 
	-----------------------------------------------------------
	 SCS Same-Spin Scale       =       0.3333333333333333 [-]
	 SCS Opposite-Spin Scale   =       1.2000000000000000 [-]
	 SCS Same-Spin Energy      =      -0.0227939874758150 [Eh]
	 SCS Opposite-Spin Energy  =      -0.2590620626474768 [Eh]
	 SCS Correlation Energy    =      -0.2818560501232918 [Eh]
	 SCS Total Energy          =     -76.3419514144858056 [Eh]
	-----------------------------------------------------------


*** tstop() called on ddmfs1 at Mon Jan 22 22:13:09 2024
Module time:
	user time   =      33.88 seconds =       0.56 minutes
	system time =       2.45 seconds =       0.04 minutes
	total time  =         11 seconds =       0.18 minutes
Total time:
	user time   =     134.76 seconds =       2.25 minutes
	system time =       9.50 seconds =       0.16 minutes
	total time  =         20 seconds =       0.33 minutes

    Psi4 stopped on: Monday, 22 January 2024 10:13PM
    Psi4 wall time for execution: 0:00:19.66

*** Psi4 exiting successfully. Buy a developer a beer!
