
    -----------------------------------------------------------------------
          Psi4: An Open-Source Ab Initio Electronic Structure Package
                               Psi4 1.8.2 release

                         Git: Rev {} zzzzzzz 


    D. G. A. Smith, L. A. Burns, A. C. Simmonett, R. M. Parrish,
    M. C. Schieber, R. Galvelis, P. Kraus, H. Kruse, R. Di Remigio,
    A. Alenaizan, A. M. James, S. Lehtola, J. P. Misiewicz, M. Scheurer,
    R. A. Shaw, J. B. Schriber, Y. Xie, Z. L. Glick, D. A. Sirianni,
    J. S. O'Brien, J. M. Waldrop, A. Kumar, E. G. Hohenstein,
    B. P. Pritchard, B. R. Brooks, H. F. Schaefer III, A. Yu. Sokolov,
    K. Patkowski, A. E. DePrince III, U. Bozkaya, R. A. King,
    F. A. Evangelista, J. M. Turney, T. D. Crawford, C. D. Sherrill,
    J. Chem. Phys. 152(18) 184108 (2020). https://doi.org/10.1063/5.0006002

                            Additional Code Authors
    E. T. Seidl, C. L. Janssen, E. F. Valeev, M. L. Leininger,
    J. F. Gonthier, R. M. Richard, H. R. McAlexander, M. Saitow, X. Wang,
    P. Verma, M. H. Lechner, A. Jiang, S. Behnle, A. G. Heide,
    M. F. Herbst, and D. L. Poole

             Previous Authors, Complete List of Code Contributors,
                       and Citations for Specific Modules
    https://github.com/psi4/psi4/blob/master/codemeta.json
    https://github.com/psi4/psi4/graphs/contributors
    http://psicode.org/psi4manual/master/introduction.html#citing-psifour

    -----------------------------------------------------------------------


    Psi4 started on: Tuesday, 23 January 2024 12:39AM

    Process ID: 121337
    Host:       ddmfs1
    PSIDATADIR: /ddmfs1b/softs/psi4conda/share/psi4
    Memory:     500.0 MiB
    Threads:    20
    
  ==> Input File <==

--------------------------------------------------------------------------
MEMORY 60 GB

molecule dimer {
0 1
Gh(Br)     0.000000     0.000000     0.000000
Gh(O)      2.452911    -0.995525     2.199232
Gh(H)      3.132083    -1.275402     2.790759
Gh(H)      2.338359    -1.739127     1.526334
O         -3.040005     0.614667    -1.483514
H         -2.166655     0.355003    -1.129877
H         -2.955149     0.617711    -2.466047
Gh(O)     -0.201879    -0.214965    -3.389215
Gh(H)     -0.892087    -0.868485    -3.563227
Gh(H)     -0.029122    -0.354479    -2.467663
Gh(O)      2.167253     1.963529    -1.986450
Gh(H)      1.432173     1.531595    -1.573186
Gh(H)      1.877952     2.248149    -2.830986
Gh(O)      1.737886     2.376316     1.902304
Gh(H)      1.869496     2.030453     2.758105
Gh(H)      1.995270     1.750043     1.235313
Gh(O)      1.036004    -2.754093    -1.296498
Gh(H)      1.857363    -2.562526    -1.734994
Gh(H)      0.655300    -2.037283    -0.779103

units ang
no_reorient
no_com
symmetry c1
}

set {
basis        aug-cc-pVTZ
scf_type     df
}

energy("mp2")
--------------------------------------------------------------------------

  Memory set to  55.879 GiB by Python driver.

Scratch directory: /ddmfs1a/scratch/
   => Libint2 <=

    Primary   basis highest AM E, G, H:  5, 4, 3
    Auxiliary basis highest AM E, G, H:  6, 5, 4
    Onebody   basis highest AM E, G, H:  6, 5, 4
    Solid Harmonics ordering:            gaussian

*** tstart() called on ddmfs1
*** at Tue Jan 23 00:39:37 2024

   => Loading Basis Set <=

    Name: AUG-CC-PVTZ
    Role: ORBITAL
    Keyword: BASIS
    atoms 1                                   entry BR         line  4208 file /ddmfs1b/softs/psi4conda/share/psi4/basis/aug-cc-pvtz.gbs 
    atoms 2, 5, 8, 11, 14, 17                 entry O          line   331 file /ddmfs1b/softs/psi4conda/share/psi4/basis/aug-cc-pvtz.gbs 
    atoms 3-4, 6-7, 9-10, 12-13, 15-16, 18-19 entry H          line    40 file /ddmfs1b/softs/psi4conda/share/psi4/basis/aug-cc-pvtz.gbs 


         ---------------------------------------------------------
                                   SCF
               by Justin Turney, Rob Parrish, Andy Simmonett
                          and Daniel G. A. Smith
                              RHF Reference
                       20 Threads,  57220 MiB Core
         ---------------------------------------------------------

  ==> Geometry <==

    Molecular point group: c1
    Full point group: C1

    Geometry (in Angstrom), charge = 0, multiplicity = 1:

       Center              X                  Y                   Z               Mass       
    ------------   -----------------  -----------------  -----------------  -----------------
      Gh(BR)          0.000000000000     0.000000000000     0.000000000000    78.918337600000
      Gh(O)           2.452911000000    -0.995525000000     2.199232000000    15.994914619570
      Gh(H)           3.132083000000    -1.275402000000     2.790759000000     1.007825032230
      Gh(H)           2.338359000000    -1.739127000000     1.526334000000     1.007825032230
         O           -3.040005000000     0.614667000000    -1.483514000000    15.994914619570
         H           -2.166655000000     0.355003000000    -1.129877000000     1.007825032230
         H           -2.955149000000     0.617711000000    -2.466047000000     1.007825032230
      Gh(O)          -0.201879000000    -0.214965000000    -3.389215000000    15.994914619570
      Gh(H)          -0.892087000000    -0.868485000000    -3.563227000000     1.007825032230
      Gh(H)          -0.029122000000    -0.354479000000    -2.467663000000     1.007825032230
      Gh(O)           2.167253000000     1.963529000000    -1.986450000000    15.994914619570
      Gh(H)           1.432173000000     1.531595000000    -1.573186000000     1.007825032230
      Gh(H)           1.877952000000     2.248149000000    -2.830986000000     1.007825032230
      Gh(O)           1.737886000000     2.376316000000     1.902304000000    15.994914619570
      Gh(H)           1.869496000000     2.030453000000     2.758105000000     1.007825032230
      Gh(H)           1.995270000000     1.750043000000     1.235313000000     1.007825032230
      Gh(O)           1.036004000000    -2.754093000000    -1.296498000000    15.994914619570
      Gh(H)           1.857363000000    -2.562526000000    -1.734994000000     1.007825032230
      Gh(H)           0.655300000000    -2.037283000000    -0.779103000000     1.007825032230

  Running in c1 symmetry.

  Rotational constants: A =      0.02660  B =      0.01796  C =      0.01765 [cm^-1]
  Rotational constants: A =    797.31633  B =    538.30420  C =    529.25513 [MHz]
  Nuclear repulsion =    8.960470752301974

  Charge       = 0
  Multiplicity = 1
  Electrons    = 10
  Nalpha       = 5
  Nbeta        = 5

  ==> Algorithm <==

  SCF Algorithm Type is DF.
  DIIS enabled.
  MOM disabled.
  Fractional occupation disabled.
  Guess Type is SAD.
  Energy threshold   = 1.00e-08
  Density threshold  = 1.00e-08
  Integral threshold = 1.00e-12

  ==> Primary Basis <==

  Basis Set: AUG-CC-PVTZ
    Blend: AUG-CC-PVTZ
    Number of shells: 211
    Number of basis functions: 611
    Number of Cartesian functions: 699
    Spherical Harmonics?: true
    Max angular momentum: 3

   => Loading Basis Set <=

    Name: (AUG-CC-PVTZ AUX)
    Role: JKFIT
    Keyword: DF_BASIS_SCF
    atoms 1                                   entry BR         line  1492 file /ddmfs1b/softs/psi4conda/share/psi4/basis/aug-cc-pvtz-jkfit.gbs 
    atoms 2, 5, 8, 11, 14, 17                 entry O          line   286 file /ddmfs1b/softs/psi4conda/share/psi4/basis/aug-cc-pvtz-jkfit.gbs 
    atoms 3-4, 6-7, 9-10, 12-13, 15-16, 18-19 entry H          line    70 file /ddmfs1b/softs/psi4conda/share/psi4/basis/aug-cc-pvtz-jkfit.gbs 

  ==> Integral Setup <==

  DFHelper Memory: AOs need 3.460 GiB; user supplied 41.910 GiB. 
  Using in-core AOs.

  ==> MemDFJK: Density-Fitted J/K Matrices <==

    J tasked:                   Yes
    K tasked:                   Yes
    wK tasked:                   No
    OpenMP threads:              20
    Memory [MiB]:             42915
    Algorithm:                 Core
    Schwarz Cutoff:           1E-12
    Mask sparsity (%):      16.3361
    Fitting Condition:        1E-10

   => Auxiliary Basis Set <=

  Basis Set: (AUG-CC-PVTZ AUX)
    Blend: AUG-CC-PVTZ-JKFIT
    Number of shells: 406
    Number of basis functions: 1424
    Number of Cartesian functions: 1775
    Spherical Harmonics?: true
    Max angular momentum: 4

  Minimum eigenvalue in the overlap matrix is 1.3039851855E-04.
  Reciprocal condition number of the overlap matrix is 9.9349049570E-06.
    Using symmetric orthogonalization.

  ==> Pre-Iterations <==

  SCF Guess: Superposition of Atomic Densities via on-the-fly atomic UHF (no occupation information).

   -------------------------
    Irrep   Nso     Nmo    
   -------------------------
     A        611     611 
   -------------------------
    Total     611     611
   -------------------------

  ==> Iterations <==

                           Total Energy        Delta E     RMS |[F,P]|

   @DF-RHF iter SAD:   -75.44740676953650   -7.54474e+01   0.00000e+00 
   @DF-RHF iter   1:   -75.97266605674476   -5.25259e-01   7.63859e-04 ADIIS/DIIS
   @DF-RHF iter   2:   -76.02436510773501   -5.16991e-02   5.32935e-04 ADIIS/DIIS
   @DF-RHF iter   3:   -76.05738832039819   -3.30232e-02   3.63694e-05 DIIS
   @DF-RHF iter   4:   -76.05781259764453   -4.24277e-04   9.14154e-06 DIIS
   @DF-RHF iter   5:   -76.05784213849581   -2.95409e-05   2.11396e-06 DIIS
   @DF-RHF iter   6:   -76.05784464304570   -2.50455e-06   4.68881e-07 DIIS
   @DF-RHF iter   7:   -76.05784477753139   -1.34486e-07   8.51787e-08 DIIS
   @DF-RHF iter   8:   -76.05784478139300   -3.86162e-09   1.46943e-08 DIIS
   @DF-RHF iter   9:   -76.05784478148693   -9.39337e-11   3.81931e-09 DIIS
  Energy and wave function converged.


  ==> Post-Iterations <==

    Orbital Energies [Eh]
    ---------------------

    Doubly Occupied:                                                      

       1A    -20.570487     2A     -1.339883     3A     -0.708208  
       4A     -0.576309     5A     -0.507745  

    Virtual:                                                              

       6A      0.013103     7A      0.027725     8A      0.034037  
       9A      0.037929    10A      0.046694    11A      0.050758  
      12A      0.058945    13A      0.063739    14A      0.065129  
      15A      0.074201    16A      0.078970    17A      0.091890  
      18A      0.099092    19A      0.103531    20A      0.112338  
      21A      0.114836    22A      0.127464    23A      0.131753  
      24A      0.138713    25A      0.140951    26A      0.150070  
      27A      0.156281    28A      0.158527    29A      0.163031  
      30A      0.167889    31A      0.171730    32A      0.176349  
      33A      0.178627    34A      0.188300    35A      0.190147  
      36A      0.197430    37A      0.205795    38A      0.209524  
      39A      0.212006    40A      0.224420    41A      0.229588  
      42A      0.232417    43A      0.241203    44A      0.244048  
      45A      0.255435    46A      0.264575    47A      0.273410  
      48A      0.274530    49A      0.277882    50A      0.287427  
      51A      0.290579    52A      0.298114    53A      0.305814  
      54A      0.315990    55A      0.321057    56A      0.324820  
      57A      0.330354    58A      0.334780    59A      0.339901  
      60A      0.347492    61A      0.352996    62A      0.359314  
      63A      0.364136    64A      0.368085    65A      0.373929  
      66A      0.378074    67A      0.379642    68A      0.386284  
      69A      0.389292    70A      0.393021    71A      0.399723  
      72A      0.404673    73A      0.411216    74A      0.412170  
      75A      0.413568    76A      0.422745    77A      0.430719  
      78A      0.436015    79A      0.442656    80A      0.446920  
      81A      0.456471    82A      0.457515    83A      0.463173  
      84A      0.470615    85A      0.479949    86A      0.486347  
      87A      0.488722    88A      0.500962    89A      0.507308  
      90A      0.526962    91A      0.533672    92A      0.542058  
      93A      0.551009    94A      0.564204    95A      0.567091  
      96A      0.587168    97A      0.598845    98A      0.602187  
      99A      0.617035   100A      0.631260   101A      0.641662  
     102A      0.647314   103A      0.674343   104A      0.691343  
     105A      0.701294   106A      0.704822   107A      0.707732  
     108A      0.712678   109A      0.719137   110A      0.724402  
     111A      0.731356   112A      0.744281   113A      0.756892  
     114A      0.761064   115A      0.765308   116A      0.767377  
     117A      0.778280   118A      0.783942   119A      0.787781  
     120A      0.794483   121A      0.804942   122A      0.808915  
     123A      0.813428   124A      0.818634   125A      0.825060  
     126A      0.826558   127A      0.833959   128A      0.839073  
     129A      0.846015   130A      0.853353   131A      0.854930  
     132A      0.862706   133A      0.870600   134A      0.873975  
     135A      0.878553   136A      0.879075   137A      0.881736  
     138A      0.889496   139A      0.895041   140A      0.897100  
     141A      0.903069   142A      0.910011   143A      0.913294  
     144A      0.918977   145A      0.923518   146A      0.927569  
     147A      0.935015   148A      0.944878   149A      0.949144  
     150A      0.959222   151A      0.963529   152A      0.966640  
     153A      0.967025   154A      0.972889   155A      0.980148  
     156A      0.986037   157A      0.992837   158A      0.997415  
     159A      1.014444   160A      1.015692   161A      1.020144  
     162A      1.028793   163A      1.034853   164A      1.036768  
     165A      1.043958   166A      1.049967   167A      1.052783  
     168A      1.060840   169A      1.067222   170A      1.073162  
     171A      1.076649   172A      1.085197   173A      1.093115  
     174A      1.099305   175A      1.102611   176A      1.115191  
     177A      1.124312   178A      1.130443   179A      1.132028  
     180A      1.135529   181A      1.143164   182A      1.152002  
     183A      1.156200   184A      1.161616   185A      1.171187  
     186A      1.178602   187A      1.187444   188A      1.191811  
     189A      1.205881   190A      1.213276   191A      1.220999  
     192A      1.221977   193A      1.234382   194A      1.239371  
     195A      1.242426   196A      1.259015   197A      1.265641  
     198A      1.273042   199A      1.277691   200A      1.284040  
     201A      1.299020   202A      1.302602   203A      1.319955  
     204A      1.328426   205A      1.338940   206A      1.345482  
     207A      1.348299   208A      1.356724   209A      1.366743  
     210A      1.373825   211A      1.389321   212A      1.403867  
     213A      1.406548   214A      1.425087   215A      1.427859  
     216A      1.436978   217A      1.445193   218A      1.451123  
     219A      1.465751   220A      1.486907   221A      1.504948  
     222A      1.512603   223A      1.532614   224A      1.534199  
     225A      1.548397   226A      1.560415   227A      1.566959  
     228A      1.583293   229A      1.596611   230A      1.599454  
     231A      1.602666   232A      1.629784   233A      1.643001  
     234A      1.653850   235A      1.659637   236A      1.670089  
     237A      1.688991   238A      1.693372   239A      1.713716  
     240A      1.725280   241A      1.730376   242A      1.735071  
     243A      1.754538   244A      1.763967   245A      1.776231  
     246A      1.778810   247A      1.782965   248A      1.785298  
     249A      1.795618   250A      1.806887   251A      1.819045  
     252A      1.822684   253A      1.838171   254A      1.847782  
     255A      1.849613   256A      1.853927   257A      1.876315  
     258A      1.885378   259A      1.886542   260A      1.889764  
     261A      1.904208   262A      1.912601   263A      1.929780  
     264A      1.942846   265A      1.958772   266A      1.965212  
     267A      1.973242   268A      1.984971   269A      1.992047  
     270A      2.019726   271A      2.038213   272A      2.047832  
     273A      2.061177   274A      2.078548   275A      2.088492  
     276A      2.154946   277A      2.177264   278A      2.235021  
     279A      2.287295   280A      2.314220   281A      2.381208  
     282A      2.394218   283A      2.415141   284A      2.442459  
     285A      2.446642   286A      2.460039   287A      2.468877  
     288A      2.481662   289A      2.487385   290A      2.494915  
     291A      2.502007   292A      2.507679   293A      2.524127  
     294A      2.534478   295A      2.547226   296A      2.553984  
     297A      2.565144   298A      2.571574   299A      2.573535  
     300A      2.593638   301A      2.599036   302A      2.601929  
     303A      2.606045   304A      2.613049   305A      2.626617  
     306A      2.634329   307A      2.647639   308A      2.659151  
     309A      2.665283   310A      2.669315   311A      2.675791  
     312A      2.687951   313A      2.697547   314A      2.699696  
     315A      2.702888   316A      2.725960   317A      2.734110  
     318A      2.748964   319A      2.763275   320A      2.769277  
     321A      2.775056   322A      2.781442   323A      2.791508  
     324A      2.812462   325A      2.815091   326A      2.845280  
     327A      2.893561   328A      2.912886   329A      2.925752  
     330A      2.950527   331A      2.957111   332A      2.967362  
     333A      2.989976   334A      3.009191   335A      3.033747  
     336A      3.041540   337A      3.061880   338A      3.151738  
     339A      3.177910   340A      3.189617   341A      3.208353  
     342A      3.211685   343A      3.221756   344A      3.230704  
     345A      3.238621   346A      3.246259   347A      3.251015  
     348A      3.252159   349A      3.263873   350A      3.268245  
     351A      3.282999   352A      3.289564   353A      3.299504  
     354A      3.325664   355A      3.352710   356A      3.359987  
     357A      3.375651   358A      3.379302   359A      3.399384  
     360A      3.406980   361A      3.424140   362A      3.429723  
     363A      3.454938   364A      3.465701   365A      3.470533  
     366A      3.475202   367A      3.505671   368A      3.515793  
     369A      3.545007   370A      3.570554   371A      3.588075  
     372A      3.596623   373A      3.604514   374A      3.617329  
     375A      3.626487   376A      3.643218   377A      3.662496  
     378A      3.677423   379A      3.701883   380A      3.710365  
     381A      3.738817   382A      3.759626   383A      3.782732  
     384A      3.791960   385A      3.832195   386A      3.853570  
     387A      3.860139   388A      3.941893   389A      3.990729  
     390A      4.067279   391A      4.109656   392A      4.250366  
     393A      4.258289   394A      4.306903   395A      4.336945  
     396A      4.354098   397A      4.387467   398A      4.405274  
     399A      4.422004   400A      4.443991   401A      4.459081  
     402A      4.462458   403A      4.489972   404A      4.497504  
     405A      4.501513   406A      4.520852   407A      4.542642  
     408A      4.546901   409A      4.547607   410A      4.569891  
     411A      4.579091   412A      4.598124   413A      4.636672  
     414A      4.644250   415A      4.658243   416A      4.661451  
     417A      4.672266   418A      4.686600   419A      4.702638  
     420A      4.709016   421A      4.716032   422A      4.721502  
     423A      4.735713   424A      4.758655   425A      4.763507  
     426A      4.768938   427A      4.798197   428A      4.814080  
     429A      4.826537   430A      4.879786   431A      4.885719  
     432A      4.906687   433A      4.919409   434A      4.920360  
     435A      4.928791   436A      4.940832   437A      4.945383  
     438A      4.968281   439A      4.972509   440A      5.010052  
     441A      5.019427   442A      5.049390   443A      5.066890  
     444A      5.103585   445A      5.117695   446A      5.125314  
     447A      5.130522   448A      5.132804   449A      5.195535  
     450A      5.244151   451A      5.275039   452A      5.284401  
     453A      5.310806   454A      5.340932   455A      5.368067  
     456A      5.461112   457A      5.476826   458A      5.482859  
     459A      5.545794   460A      5.574278   461A      5.595466  
     462A      5.600579   463A      5.614658   464A      5.634785  
     465A      5.675881   466A      5.705576   467A      5.707625  
     468A      5.712494   469A      5.747257   470A      5.752381  
     471A      5.762672   472A      5.765333   473A      5.793704  
     474A      5.822519   475A      5.860456   476A      5.944110  
     477A      5.965013   478A      6.132259   479A      6.161940  
     480A      6.165952   481A      6.175956   482A      6.196253  
     483A      6.206717   484A      6.345343   485A      6.372203  
     486A      6.452435   487A      6.479507   488A      6.532727  
     489A      6.583086   490A      6.631678   491A      6.725018  
     492A      6.788890   493A      6.825236   494A      6.878783  
     495A      6.915281   496A      6.949898   497A      7.095663  
     498A      7.136423   499A      7.155906   500A      7.163809  
     501A      7.194981   502A      7.196234   503A      7.262270  
     504A      7.298374   505A      7.357074   506A      7.399445  
     507A      7.465276   508A      7.670466   509A      7.688281  
     510A      7.709070   511A      7.719045   512A      7.724536  
     513A      7.760707   514A      7.778373   515A      7.796796  
     516A      7.811955   517A      7.855599   518A      7.908151  
     519A      7.947356   520A      7.981929   521A      8.036251  
     522A      8.093011   523A      8.142731   524A      8.151129  
     525A      8.161874   526A      8.192033   527A      8.236719  
     528A      8.257183   529A      8.277115   530A      8.303157  
     531A      8.321838   532A      8.336738   533A      8.346963  
     534A      8.383321   535A      8.426160   536A      8.708010  
     537A      8.727318   538A      8.781484   539A      8.786995  
     540A      8.839097   541A      8.896335   542A      8.919750  
     543A      9.012894   544A      9.019164   545A      9.091232  
     546A      9.115609   547A      9.713558   548A      9.737840  
     549A      9.744886   550A      9.785565   551A      9.834445  
     552A      9.859661   553A      9.893146   554A      9.896183  
     555A      9.926212   556A      9.928993   557A     10.010939  
     558A     10.063982   559A     10.082668   560A     10.099064  
     561A     10.104403   562A     10.240549   563A     10.248926  
     564A     10.293453   565A     10.308267   566A     10.316623  
     567A     11.036406   568A     11.127898   569A     11.189225  
     570A     11.269636   571A     11.290117   572A     11.331632  
     573A     11.613009   574A     11.755098   575A     11.795470  
     576A     11.799066   577A     11.858411   578A     12.098216  
     579A     12.244083   580A     12.295241   581A     12.349499  
     582A     12.354519   583A     13.492561   584A     13.703108  
     585A     13.734725   586A     13.752618   587A     13.769775  
     588A     13.850006   589A     13.865958   590A     13.910410  
     591A     13.936394   592A     13.977516   593A     14.016156  
     594A     14.052826   595A     14.134675   596A     15.990015  
     597A     26.337831   598A     26.401915   599A     26.526051  
     600A     26.552762   601A     26.613024   602A     46.623783  
     603A     64.213099   604A     66.424104   605A     66.906775  
     606A     66.931875   607A     67.852602   608A    139.099000  
     609A    139.260522   610A    139.362037   611A    712.115250  

    Final Occupation by Irrep:
              A 
    DOCC [     5 ]
    NA   [     5 ]
    NB   [     5 ]

  @DF-RHF Final Energy:   -76.05784478148693

   => Energetics <=

    Nuclear Repulsion Energy =              8.9604707523019744
    One-Electron Energy =                -122.6313629688383315
    Two-Electron Energy =                  37.6130474350494239
    Total Energy =                        -76.0578447814869349

Computation Completed


Properties will be evaluated at   0.000000,   0.000000,   0.000000 [a0]

Properties computed using the SCF density matrix


 Multipole Moments:

 ------------------------------------------------------------------------------------
     Multipole            Electronic (a.u.)      Nuclear  (a.u.)        Total (a.u.)
 ------------------------------------------------------------------------------------

 L = 1.  Multiply by 2.5417464519 to convert [e a0] to [Debye]
 Dipole X            :         56.2695886          -55.6370218            0.6325668
 Dipole Y            :        -11.3001286           11.1305814           -0.1695472
 Dipole Z            :         28.8095973          -29.2227928           -0.4131955
 Magnitude           :                                                    0.7743498

 ------------------------------------------------------------------------------------

*** tstop() called on ddmfs1 at Tue Jan 23 00:39:48 2024
Module time:
	user time   =     144.92 seconds =       2.42 minutes
	system time =       8.64 seconds =       0.14 minutes
	total time  =         11 seconds =       0.18 minutes
Total time:
	user time   =     144.92 seconds =       2.42 minutes
	system time =       8.64 seconds =       0.14 minutes
	total time  =         11 seconds =       0.18 minutes

*** tstart() called on ddmfs1
*** at Tue Jan 23 00:39:48 2024


  //>>>>>>>>>>>>>>>>>>>>>>>>>>>>>>>>>>>//
  //               DFMP2               //
  //<<<<<<<<<<<<<<<<<<<<<<<<<<<<<<<<<<<//

   => Loading Basis Set <=

    Name: (AUG-CC-PVTZ AUX)
    Role: RIFIT
    Keyword: DF_BASIS_MP2
    atoms 1                                   entry BR         line  1248 file /ddmfs1b/softs/psi4conda/share/psi4/basis/aug-cc-pvtz-ri.gbs 
    atoms 2, 5, 8, 11, 14, 17                 entry O          line   264 file /ddmfs1b/softs/psi4conda/share/psi4/basis/aug-cc-pvtz-ri.gbs 
    atoms 3-4, 6-7, 9-10, 12-13, 15-16, 18-19 entry H          line    30 file /ddmfs1b/softs/psi4conda/share/psi4/basis/aug-cc-pvtz-ri.gbs 

	 --------------------------------------------------------
	                          DF-MP2                         
	      2nd-Order Density-Fitted Moller-Plesset Theory     
	              RMP2 Wavefunction,  20 Threads             
	                                                         
	        Rob Parrish, Justin Turney, Andy Simmonett,      
	           Ed Hohenstein, and C. David Sherrill          
	 --------------------------------------------------------

   => Auxiliary Basis Set <=

  Basis Set: (AUG-CC-PVTZ AUX)
    Blend: AUG-CC-PVTZ-RI
    Number of shells: 379
    Number of basis functions: 1379
    Number of Cartesian functions: 1737
    Spherical Harmonics?: true
    Max angular momentum: 5

	 --------------------------------------------------------
	                 NBF =   611, NAUX =  1379
	 --------------------------------------------------------
	   CLASS    FOCC     OCC    AOCC    AVIR     VIR    FVIR
	   PAIRS       0       5       5     606     606       0
	 --------------------------------------------------------

	-----------------------------------------------------------
	 ==================> DF-MP2 Energies <==================== 
	-----------------------------------------------------------
	 Reference Energy          =     -76.0578447814869349 [Eh]
	 Singles Energy            =      -0.0000000000000000 [Eh]
	 Same-Spin Energy          =      -0.0687793980518160 [Eh]
	 Opposite-Spin Energy      =      -0.2170466124703876 [Eh]
	 Correlation Energy        =      -0.2858260105222036 [Eh]
	 Total Energy              =     -76.3436707920091351 [Eh]
	-----------------------------------------------------------
	 ================> DF-SCS-MP2 Energies <================== 
	-----------------------------------------------------------
	 SCS Same-Spin Scale       =       0.3333333333333333 [-]
	 SCS Opposite-Spin Scale   =       1.2000000000000000 [-]
	 SCS Same-Spin Energy      =      -0.0229264660172720 [Eh]
	 SCS Opposite-Spin Energy  =      -0.2604559349644651 [Eh]
	 SCS Correlation Energy    =      -0.2833824009817371 [Eh]
	 SCS Total Energy          =     -76.3412271824686712 [Eh]
	-----------------------------------------------------------


*** tstop() called on ddmfs1 at Tue Jan 23 00:40:02 2024
Module time:
	user time   =      44.38 seconds =       0.74 minutes
	system time =       3.03 seconds =       0.05 minutes
	total time  =         14 seconds =       0.23 minutes
Total time:
	user time   =     189.32 seconds =       3.16 minutes
	system time =      11.67 seconds =       0.19 minutes
	total time  =         25 seconds =       0.42 minutes

    Psi4 stopped on: Tuesday, 23 January 2024 12:40AM
    Psi4 wall time for execution: 0:00:24.90

*** Psi4 exiting successfully. Buy a developer a beer!
