
    -----------------------------------------------------------------------
          Psi4: An Open-Source Ab Initio Electronic Structure Package
                               Psi4 1.8.2 release

                         Git: Rev {} zzzzzzz 


    D. G. A. Smith, L. A. Burns, A. C. Simmonett, R. M. Parrish,
    M. C. Schieber, R. Galvelis, P. Kraus, H. Kruse, R. Di Remigio,
    A. Alenaizan, A. M. James, S. Lehtola, J. P. Misiewicz, M. Scheurer,
    R. A. Shaw, J. B. Schriber, Y. Xie, Z. L. Glick, D. A. Sirianni,
    J. S. O'Brien, J. M. Waldrop, A. Kumar, E. G. Hohenstein,
    B. P. Pritchard, B. R. Brooks, H. F. Schaefer III, A. Yu. Sokolov,
    K. Patkowski, A. E. DePrince III, U. Bozkaya, R. A. King,
    F. A. Evangelista, J. M. Turney, T. D. Crawford, C. D. Sherrill,
    J. Chem. Phys. 152(18) 184108 (2020). https://doi.org/10.1063/5.0006002

                            Additional Code Authors
    E. T. Seidl, C. L. Janssen, E. F. Valeev, M. L. Leininger,
    J. F. Gonthier, R. M. Richard, H. R. McAlexander, M. Saitow, X. Wang,
    P. Verma, M. H. Lechner, A. Jiang, S. Behnle, A. G. Heide,
    M. F. Herbst, and D. L. Poole

             Previous Authors, Complete List of Code Contributors,
                       and Citations for Specific Modules
    https://github.com/psi4/psi4/blob/master/codemeta.json
    https://github.com/psi4/psi4/graphs/contributors
    http://psicode.org/psi4manual/master/introduction.html#citing-psifour

    -----------------------------------------------------------------------


    Psi4 started on: Tuesday, 23 January 2024 01:18AM

    Process ID: 123637
    Host:       ddmfs1
    PSIDATADIR: /ddmfs1b/softs/psi4conda/share/psi4
    Memory:     500.0 MiB
    Threads:    20
    
  ==> Input File <==

--------------------------------------------------------------------------
MEMORY 60 GB

molecule dimer {
0 1
Gh(Br)     0.000000     0.000000     0.000000
Gh(O)      1.877253    -0.925629    -2.503878
Gh(H)      1.568959    -0.369866    -1.756608
Gh(H)      1.769866    -1.829815    -2.152507
Gh(O)      0.170065     2.901916    -1.500734
Gh(H)     -0.216467     2.541833    -2.272789
Gh(H)      0.178509     2.130837    -0.924963
Gh(O)      0.283163    -1.282719     3.211734
Gh(H)      0.144151    -0.907789     2.345728
Gh(H)     -0.490220    -1.053040     3.745017
Gh(O)      3.272579    -0.761567     0.566827
Gh(H)      2.477722    -0.224904     0.466952
Gh(H)      2.968580    -1.638178     0.298848
O          0.955461     2.446042     2.162195
H          0.814632     1.637742     1.624264
H          0.875880     2.278959     3.123204
Gh(O)     -1.258581    -1.316716    -3.035756
Gh(H)     -2.002288    -0.752139    -3.089390
Gh(H)     -0.819194    -1.250416    -2.138434

units ang
no_reorient
no_com
symmetry c1
}

set {
basis        aug-cc-pVTZ
scf_type     df
}

energy("mp2")
--------------------------------------------------------------------------

  Memory set to  55.879 GiB by Python driver.

Scratch directory: /ddmfs1a/scratch/
   => Libint2 <=

    Primary   basis highest AM E, G, H:  5, 4, 3
    Auxiliary basis highest AM E, G, H:  6, 5, 4
    Onebody   basis highest AM E, G, H:  6, 5, 4
    Solid Harmonics ordering:            gaussian

*** tstart() called on ddmfs1
*** at Tue Jan 23 01:18:17 2024

   => Loading Basis Set <=

    Name: AUG-CC-PVTZ
    Role: ORBITAL
    Keyword: BASIS
    atoms 1                                   entry BR         line  4208 file /ddmfs1b/softs/psi4conda/share/psi4/basis/aug-cc-pvtz.gbs 
    atoms 2, 5, 8, 11, 14, 17                 entry O          line   331 file /ddmfs1b/softs/psi4conda/share/psi4/basis/aug-cc-pvtz.gbs 
    atoms 3-4, 6-7, 9-10, 12-13, 15-16, 18-19 entry H          line    40 file /ddmfs1b/softs/psi4conda/share/psi4/basis/aug-cc-pvtz.gbs 


         ---------------------------------------------------------
                                   SCF
               by Justin Turney, Rob Parrish, Andy Simmonett
                          and Daniel G. A. Smith
                              RHF Reference
                       20 Threads,  57220 MiB Core
         ---------------------------------------------------------

  ==> Geometry <==

    Molecular point group: c1
    Full point group: C1

    Geometry (in Angstrom), charge = 0, multiplicity = 1:

       Center              X                  Y                   Z               Mass       
    ------------   -----------------  -----------------  -----------------  -----------------
      Gh(BR)          0.000000000000     0.000000000000     0.000000000000    78.918337600000
      Gh(O)           1.877253000000    -0.925629000000    -2.503878000000    15.994914619570
      Gh(H)           1.568959000000    -0.369866000000    -1.756608000000     1.007825032230
      Gh(H)           1.769866000000    -1.829815000000    -2.152507000000     1.007825032230
      Gh(O)           0.170065000000     2.901916000000    -1.500734000000    15.994914619570
      Gh(H)          -0.216467000000     2.541833000000    -2.272789000000     1.007825032230
      Gh(H)           0.178509000000     2.130837000000    -0.924963000000     1.007825032230
      Gh(O)           0.283163000000    -1.282719000000     3.211734000000    15.994914619570
      Gh(H)           0.144151000000    -0.907789000000     2.345728000000     1.007825032230
      Gh(H)          -0.490220000000    -1.053040000000     3.745017000000     1.007825032230
      Gh(O)           3.272579000000    -0.761567000000     0.566827000000    15.994914619570
      Gh(H)           2.477722000000    -0.224904000000     0.466952000000     1.007825032230
      Gh(H)           2.968580000000    -1.638178000000     0.298848000000     1.007825032230
         O            0.955461000000     2.446042000000     2.162195000000    15.994914619570
         H            0.814632000000     1.637742000000     1.624264000000     1.007825032230
         H            0.875880000000     2.278959000000     3.123204000000     1.007825032230
      Gh(O)          -1.258581000000    -1.316716000000    -3.035756000000    15.994914619570
      Gh(H)          -2.002288000000    -0.752139000000    -3.089390000000     1.007825032230
      Gh(H)          -0.819194000000    -1.250416000000    -2.138434000000     1.007825032230

  Running in c1 symmetry.

  Rotational constants: A =      0.02756  B =      0.01896  C =      0.01785 [cm^-1]
  Rotational constants: A =    826.27114  B =    568.31351  C =    535.25326 [MHz]
  Nuclear repulsion =    8.965037233388234

  Charge       = 0
  Multiplicity = 1
  Electrons    = 10
  Nalpha       = 5
  Nbeta        = 5

  ==> Algorithm <==

  SCF Algorithm Type is DF.
  DIIS enabled.
  MOM disabled.
  Fractional occupation disabled.
  Guess Type is SAD.
  Energy threshold   = 1.00e-08
  Density threshold  = 1.00e-08
  Integral threshold = 1.00e-12

  ==> Primary Basis <==

  Basis Set: AUG-CC-PVTZ
    Blend: AUG-CC-PVTZ
    Number of shells: 211
    Number of basis functions: 611
    Number of Cartesian functions: 699
    Spherical Harmonics?: true
    Max angular momentum: 3

   => Loading Basis Set <=

    Name: (AUG-CC-PVTZ AUX)
    Role: JKFIT
    Keyword: DF_BASIS_SCF
    atoms 1                                   entry BR         line  1492 file /ddmfs1b/softs/psi4conda/share/psi4/basis/aug-cc-pvtz-jkfit.gbs 
    atoms 2, 5, 8, 11, 14, 17                 entry O          line   286 file /ddmfs1b/softs/psi4conda/share/psi4/basis/aug-cc-pvtz-jkfit.gbs 
    atoms 3-4, 6-7, 9-10, 12-13, 15-16, 18-19 entry H          line    70 file /ddmfs1b/softs/psi4conda/share/psi4/basis/aug-cc-pvtz-jkfit.gbs 

  ==> Integral Setup <==

  DFHelper Memory: AOs need 3.504 GiB; user supplied 41.910 GiB. 
  Using in-core AOs.

  ==> MemDFJK: Density-Fitted J/K Matrices <==

    J tasked:                   Yes
    K tasked:                   Yes
    wK tasked:                   No
    OpenMP threads:              20
    Memory [MiB]:             42915
    Algorithm:                 Core
    Schwarz Cutoff:           1E-12
    Mask sparsity (%):      15.2148
    Fitting Condition:        1E-10

   => Auxiliary Basis Set <=

  Basis Set: (AUG-CC-PVTZ AUX)
    Blend: AUG-CC-PVTZ-JKFIT
    Number of shells: 406
    Number of basis functions: 1424
    Number of Cartesian functions: 1775
    Spherical Harmonics?: true
    Max angular momentum: 4

  Minimum eigenvalue in the overlap matrix is 9.7934083083E-05.
  Reciprocal condition number of the overlap matrix is 7.1585344804E-06.
    Using symmetric orthogonalization.

  ==> Pre-Iterations <==

  SCF Guess: Superposition of Atomic Densities via on-the-fly atomic UHF (no occupation information).

   -------------------------
    Irrep   Nso     Nmo    
   -------------------------
     A        611     611 
   -------------------------
    Total     611     611
   -------------------------

  ==> Iterations <==

                           Total Energy        Delta E     RMS |[F,P]|

   @DF-RHF iter SAD:   -75.44414659259445   -7.54441e+01   0.00000e+00 
   @DF-RHF iter   1:   -75.97228740267805   -5.28141e-01   7.64292e-04 DIIS/ADIIS
   @DF-RHF iter   2:   -76.02380507308000   -5.15177e-02   5.29285e-04 DIIS/ADIIS
   @DF-RHF iter   3:   -76.05628268124202   -3.24776e-02   3.60216e-05 DIIS
   @DF-RHF iter   4:   -76.05670922491720   -4.26544e-04   9.09178e-06 DIIS
   @DF-RHF iter   5:   -76.05673886892832   -2.96440e-05   2.10591e-06 DIIS
   @DF-RHF iter   6:   -76.05674144333452   -2.57441e-06   4.81020e-07 DIIS
   @DF-RHF iter   7:   -76.05674159142892   -1.48094e-07   9.25548e-08 DIIS
   @DF-RHF iter   8:   -76.05674159622119   -4.79227e-09   1.55039e-08 DIIS
   @DF-RHF iter   9:   -76.05674159633058   -1.09395e-10   4.01127e-09 DIIS
  Energy and wave function converged.


  ==> Post-Iterations <==

    Orbital Energies [Eh]
    ---------------------

    Doubly Occupied:                                                      

       1A    -20.567106     2A     -1.336697     3A     -0.719863  
       4A     -0.564888     5A     -0.505899  

    Virtual:                                                              

       6A      0.014797     7A      0.028115     8A      0.036593  
       9A      0.039280    10A      0.049943    11A      0.053998  
      12A      0.057124    13A      0.062708    14A      0.071012  
      15A      0.077836    16A      0.081967    17A      0.093600  
      18A      0.093916    19A      0.104907    20A      0.110791  
      21A      0.123681    22A      0.129799    23A      0.132154  
      24A      0.138903    25A      0.147451    26A      0.155349  
      27A      0.157815    28A      0.163311    29A      0.165122  
      30A      0.169062    31A      0.176511    32A      0.181035  
      33A      0.186133    34A      0.187765    35A      0.195772  
      36A      0.201703    37A      0.203406    38A      0.214492  
      39A      0.219132    40A      0.220410    41A      0.227587  
      42A      0.231472    43A      0.235517    44A      0.243186  
      45A      0.245629    46A      0.258245    47A      0.266947  
      48A      0.275762    49A      0.286691    50A      0.290023  
      51A      0.299592    52A      0.300669    53A      0.309521  
      54A      0.316303    55A      0.319646    56A      0.323300  
      57A      0.326529    58A      0.331853    59A      0.339327  
      60A      0.341346    61A      0.345018    62A      0.353631  
      63A      0.366006    64A      0.369332    65A      0.375976  
      66A      0.376730    67A      0.382003    68A      0.382772  
      69A      0.390917    70A      0.401273    71A      0.408190  
      72A      0.409488    73A      0.418176    74A      0.430348  
      75A      0.432654    76A      0.440023    77A      0.444974  
      78A      0.449515    79A      0.454597    80A      0.457351  
      81A      0.459543    82A      0.470500    83A      0.477056  
      84A      0.486817    85A      0.491905    86A      0.498196  
      87A      0.511464    88A      0.517606    89A      0.527586  
      90A      0.537206    91A      0.548937    92A      0.564893  
      93A      0.574489    94A      0.578304    95A      0.589376  
      96A      0.591397    97A      0.619303    98A      0.622238  
      99A      0.633602   100A      0.645569   101A      0.662365  
     102A      0.672319   103A      0.681542   104A      0.694446  
     105A      0.700845   106A      0.715546   107A      0.727158  
     108A      0.728662   109A      0.740300   110A      0.747269  
     111A      0.760708   112A      0.761958   113A      0.766793  
     114A      0.768718   115A      0.775988   116A      0.784529  
     117A      0.786201   118A      0.791528   119A      0.799137  
     120A      0.805166   121A      0.807416   122A      0.816007  
     123A      0.817318   124A      0.822987   125A      0.830061  
     126A      0.837278   127A      0.838628   128A      0.844788  
     129A      0.847684   130A      0.858154   131A      0.866458  
     132A      0.868399   133A      0.876270   134A      0.881307  
     135A      0.887049   136A      0.892455   137A      0.893007  
     138A      0.894601   139A      0.904150   140A      0.908030  
     141A      0.914600   142A      0.916617   143A      0.926365  
     144A      0.937270   145A      0.943050   146A      0.952939  
     147A      0.956692   148A      0.964572   149A      0.970496  
     150A      0.971891   151A      0.980061   152A      0.983346  
     153A      0.988921   154A      0.994539   155A      0.999733  
     156A      1.000232   157A      1.006356   158A      1.010106  
     159A      1.014964   160A      1.019569   161A      1.023765  
     162A      1.030314   163A      1.036913   164A      1.047004  
     165A      1.050429   166A      1.055999   167A      1.067141  
     168A      1.073578   169A      1.080542   170A      1.088298  
     171A      1.094747   172A      1.100137   173A      1.102514  
     174A      1.108380   175A      1.114332   176A      1.123947  
     177A      1.130982   178A      1.137600   179A      1.146470  
     180A      1.154565   181A      1.155714   182A      1.168302  
     183A      1.174970   184A      1.192251   185A      1.196991  
     186A      1.206480   187A      1.208376   188A      1.227754  
     189A      1.229848   190A      1.242022   191A      1.248854  
     192A      1.251568   193A      1.254848   194A      1.267543  
     195A      1.272314   196A      1.285500   197A      1.290878  
     198A      1.296804   199A      1.299256   200A      1.303235  
     201A      1.321212   202A      1.332584   203A      1.338019  
     204A      1.367067   205A      1.370447   206A      1.376416  
     207A      1.382287   208A      1.402234   209A      1.407783  
     210A      1.422605   211A      1.426629   212A      1.429878  
     213A      1.448170   214A      1.456971   215A      1.462108  
     216A      1.472523   217A      1.487182   218A      1.494805  
     219A      1.505919   220A      1.511803   221A      1.527689  
     222A      1.535707   223A      1.542934   224A      1.551022  
     225A      1.562145   226A      1.572423   227A      1.589330  
     228A      1.606419   229A      1.614536   230A      1.635339  
     231A      1.646884   232A      1.658966   233A      1.668156  
     234A      1.682206   235A      1.701468   236A      1.707604  
     237A      1.719046   238A      1.736639   239A      1.741520  
     240A      1.757776   241A      1.764511   242A      1.764932  
     243A      1.776034   244A      1.785444   245A      1.787828  
     246A      1.795321   247A      1.801546   248A      1.808032  
     249A      1.819837   250A      1.828009   251A      1.853789  
     252A      1.856365   253A      1.860649   254A      1.867986  
     255A      1.873573   256A      1.886705   257A      1.895290  
     258A      1.902200   259A      1.912719   260A      1.922661  
     261A      1.933651   262A      1.939556   263A      1.960043  
     264A      1.980024   265A      1.983602   266A      1.986722  
     267A      2.007963   268A      2.028807   269A      2.046346  
     270A      2.057606   271A      2.069949   272A      2.085338  
     273A      2.093168   274A      2.107297   275A      2.135450  
     276A      2.179984   277A      2.194957   278A      2.228653  
     279A      2.302868   280A      2.321713   281A      2.415105  
     282A      2.431397   283A      2.440160   284A      2.456248  
     285A      2.471945   286A      2.474736   287A      2.487725  
     288A      2.490588   289A      2.500956   290A      2.509999  
     291A      2.524200   292A      2.528605   293A      2.538478  
     294A      2.561005   295A      2.574766   296A      2.583501  
     297A      2.587577   298A      2.594599   299A      2.601218  
     300A      2.606335   301A      2.627939   302A      2.636002  
     303A      2.643229   304A      2.648676   305A      2.655265  
     306A      2.661651   307A      2.667150   308A      2.677493  
     309A      2.689775   310A      2.693349   311A      2.704485  
     312A      2.710351   313A      2.719676   314A      2.737660  
     315A      2.745780   316A      2.756725   317A      2.774886  
     318A      2.789964   319A      2.795036   320A      2.808002  
     321A      2.816303   322A      2.824422   323A      2.827446  
     324A      2.846333   325A      2.849039   326A      2.872370  
     327A      2.884368   328A      2.901184   329A      2.923551  
     330A      2.944004   331A      2.960157   332A      2.980825  
     333A      3.011243   334A      3.033748   335A      3.042648  
     336A      3.053543   337A      3.095548   338A      3.150089  
     339A      3.191638   340A      3.195875   341A      3.200883  
     342A      3.213160   343A      3.225480   344A      3.229718  
     345A      3.240809   346A      3.242518   347A      3.255206  
     348A      3.260140   349A      3.274540   350A      3.277814  
     351A      3.293000   352A      3.301569   353A      3.330682  
     354A      3.349141   355A      3.365191   356A      3.380928  
     357A      3.408030   358A      3.419170   359A      3.432369  
     360A      3.443622   361A      3.460444   362A      3.482700  
     363A      3.488598   364A      3.502882   365A      3.534803  
     366A      3.550273   367A      3.562098   368A      3.575647  
     369A      3.587554   370A      3.594183   371A      3.631370  
     372A      3.632765   373A      3.653736   374A      3.682879  
     375A      3.692126   376A      3.707162   377A      3.726026  
     378A      3.738284   379A      3.754122   380A      3.782483  
     381A      3.809697   382A      3.812804   383A      3.841706  
     384A      3.863307   385A      3.878105   386A      3.899844  
     387A      3.929272   388A      3.966084   389A      4.053218  
     390A      4.081500   391A      4.228367   392A      4.280709  
     393A      4.320034   394A      4.337586   395A      4.389979  
     396A      4.398361   397A      4.412279   398A      4.432483  
     399A      4.445804   400A      4.471888   401A      4.479997  
     402A      4.484464   403A      4.490285   404A      4.505656  
     405A      4.508503   406A      4.516902   407A      4.527107  
     408A      4.532562   409A      4.552738   410A      4.557870  
     411A      4.574691   412A      4.595339   413A      4.604780  
     414A      4.613453   415A      4.630640   416A      4.642174  
     417A      4.659417   418A      4.681364   419A      4.695679  
     420A      4.696614   421A      4.722114   422A      4.727332  
     423A      4.737322   424A      4.745660   425A      4.755593  
     426A      4.799630   427A      4.811566   428A      4.853227  
     429A      4.873070   430A      4.879765   431A      4.886977  
     432A      4.904239   433A      4.911708   434A      4.916158  
     435A      4.935390   436A      4.945783   437A      4.961221  
     438A      4.973517   439A      4.997288   440A      4.997796  
     441A      5.012970   442A      5.035900   443A      5.067625  
     444A      5.102501   445A      5.116623   446A      5.143233  
     447A      5.152785   448A      5.168053   449A      5.229905  
     450A      5.249983   451A      5.302115   452A      5.323246  
     453A      5.346421   454A      5.372205   455A      5.402071  
     456A      5.446812   457A      5.488822   458A      5.516147  
     459A      5.523917   460A      5.549804   461A      5.585530  
     462A      5.604511   463A      5.611874   464A      5.644677  
     465A      5.658210   466A      5.666242   467A      5.676663  
     468A      5.682816   469A      5.691239   470A      5.734148  
     471A      5.745149   472A      5.798698   473A      5.850704  
     474A      5.876243   475A      5.894407   476A      5.907927  
     477A      5.986337   478A      6.138990   479A      6.146156  
     480A      6.154520   481A      6.171145   482A      6.195182  
     483A      6.199741   484A      6.342524   485A      6.420595  
     486A      6.466246   487A      6.469827   488A      6.493902  
     489A      6.622661   490A      6.629775   491A      6.660433  
     492A      6.758438   493A      6.763138   494A      6.769597  
     495A      6.785060   496A      6.890510   497A      7.043856  
     498A      7.097404   499A      7.113796   500A      7.128708  
     501A      7.167586   502A      7.195740   503A      7.257856  
     504A      7.309791   505A      7.341181   506A      7.504120  
     507A      7.510823   508A      7.695578   509A      7.725310  
     510A      7.740211   511A      7.751301   512A      7.778903  
     513A      7.789266   514A      7.801721   515A      7.817637  
     516A      7.856285   517A      7.899053   518A      7.900732  
     519A      7.960694   520A      8.047825   521A      8.068066  
     522A      8.079060   523A      8.082412   524A      8.107501  
     525A      8.173582   526A      8.184037   527A      8.237357  
     528A      8.239287   529A      8.254094   530A      8.287901  
     531A      8.294328   532A      8.296813   533A      8.324473  
     534A      8.339026   535A      8.346960   536A      8.681215  
     537A      8.725021   538A      8.771793   539A      8.789928  
     540A      8.803904   541A      8.864713   542A      8.903705  
     543A      8.919520   544A      8.943475   545A      9.035399  
     546A      9.054914   547A      9.698750   548A      9.708830  
     549A      9.750211   550A      9.781255   551A      9.823124  
     552A      9.870073   553A      9.891348   554A      9.908703  
     555A      9.920338   556A      9.963620   557A     10.056575  
     558A     10.068737   559A     10.079111   560A     10.092791  
     561A     10.112472   562A     10.252679   563A     10.269465  
     564A     10.334902   565A     10.384369   566A     10.395801  
     567A     11.050839   568A     11.146087   569A     11.199848  
     570A     11.227571   571A     11.359731   572A     11.494702  
     573A     11.741535   574A     11.759842   575A     11.771996  
     576A     11.797237   577A     11.818538   578A     12.028407  
     579A     12.159053   580A     12.199910   581A     12.225013  
     582A     12.363523   583A     13.582999   584A     13.596651  
     585A     13.621633   586A     13.709494   587A     13.735039  
     588A     13.910190   589A     13.925114   590A     13.940070  
     591A     13.948021   592A     13.965784   593A     14.006135  
     594A     14.091949   595A     14.220939   596A     16.054621  
     597A     26.361092   598A     26.487625   599A     26.592459  
     600A     26.660551   601A     26.757974   602A     46.823741  
     603A     65.396998   604A     65.612686   605A     66.157534  
     606A     66.516054   607A     67.464025   608A    139.127119  
     609A    139.285312   610A    139.544880   611A    712.813989  

    Final Occupation by Irrep:
              A 
    DOCC [     5 ]
    NA   [     5 ]
    NB   [     5 ]

  @DF-RHF Final Energy:   -76.05674159633058

   => Energetics <=

    Nuclear Repulsion Energy =              8.9650372333882338
    One-Electron Energy =                -122.6546495582424257
    Two-Electron Energy =                  37.6328707285236135
    Total Energy =                        -76.0567415963305820

Computation Completed


Properties will be evaluated at   0.000000,   0.000000,   0.000000 [a0]

Properties computed using the SCF density matrix


 Multipole Moments:

 ------------------------------------------------------------------------------------
     Multipole            Electronic (a.u.)      Nuclear  (a.u.)        Total (a.u.)
 ------------------------------------------------------------------------------------

 L = 1.  Multiply by 2.5417464519 to convert [e a0] to [Debye]
 Dipole X            :        -17.7876666           17.6390816           -0.1485850
 Dipole Y            :        -45.0371007           44.3802880           -0.6568127
 Dipole Z            :        -41.3741685           41.6590653            0.2848968
 Magnitude           :                                                    0.7311953

 ------------------------------------------------------------------------------------

*** tstop() called on ddmfs1 at Tue Jan 23 01:18:28 2024
Module time:
	user time   =     149.19 seconds =       2.49 minutes
	system time =       9.17 seconds =       0.15 minutes
	total time  =         11 seconds =       0.18 minutes
Total time:
	user time   =     149.19 seconds =       2.49 minutes
	system time =       9.17 seconds =       0.15 minutes
	total time  =         11 seconds =       0.18 minutes

*** tstart() called on ddmfs1
*** at Tue Jan 23 01:18:28 2024


  //>>>>>>>>>>>>>>>>>>>>>>>>>>>>>>>>>>>//
  //               DFMP2               //
  //<<<<<<<<<<<<<<<<<<<<<<<<<<<<<<<<<<<//

   => Loading Basis Set <=

    Name: (AUG-CC-PVTZ AUX)
    Role: RIFIT
    Keyword: DF_BASIS_MP2
    atoms 1                                   entry BR         line  1248 file /ddmfs1b/softs/psi4conda/share/psi4/basis/aug-cc-pvtz-ri.gbs 
    atoms 2, 5, 8, 11, 14, 17                 entry O          line   264 file /ddmfs1b/softs/psi4conda/share/psi4/basis/aug-cc-pvtz-ri.gbs 
    atoms 3-4, 6-7, 9-10, 12-13, 15-16, 18-19 entry H          line    30 file /ddmfs1b/softs/psi4conda/share/psi4/basis/aug-cc-pvtz-ri.gbs 

	 --------------------------------------------------------
	                          DF-MP2                         
	      2nd-Order Density-Fitted Moller-Plesset Theory     
	              RMP2 Wavefunction,  20 Threads             
	                                                         
	        Rob Parrish, Justin Turney, Andy Simmonett,      
	           Ed Hohenstein, and C. David Sherrill          
	 --------------------------------------------------------

   => Auxiliary Basis Set <=

  Basis Set: (AUG-CC-PVTZ AUX)
    Blend: AUG-CC-PVTZ-RI
    Number of shells: 379
    Number of basis functions: 1379
    Number of Cartesian functions: 1737
    Spherical Harmonics?: true
    Max angular momentum: 5

	 --------------------------------------------------------
	                 NBF =   611, NAUX =  1379
	 --------------------------------------------------------
	   CLASS    FOCC     OCC    AOCC    AVIR     VIR    FVIR
	   PAIRS       0       5       5     606     606       0
	 --------------------------------------------------------

	-----------------------------------------------------------
	 ==================> DF-MP2 Energies <==================== 
	-----------------------------------------------------------
	 Reference Energy          =     -76.0567415963305820 [Eh]
	 Singles Energy            =      -0.0000000000000000 [Eh]
	 Same-Spin Energy          =      -0.0687034575120912 [Eh]
	 Opposite-Spin Energy      =      -0.2167122520757668 [Eh]
	 Correlation Energy        =      -0.2854157095878580 [Eh]
	 Total Energy              =     -76.3421573059184340 [Eh]
	-----------------------------------------------------------
	 ================> DF-SCS-MP2 Energies <================== 
	-----------------------------------------------------------
	 SCS Same-Spin Scale       =       0.3333333333333333 [-]
	 SCS Opposite-Spin Scale   =       1.2000000000000000 [-]
	 SCS Same-Spin Energy      =      -0.0229011525040304 [Eh]
	 SCS Opposite-Spin Energy  =      -0.2600547024909202 [Eh]
	 SCS Correlation Energy    =      -0.2829558549949506 [Eh]
	 SCS Total Energy          =     -76.3396974513255344 [Eh]
	-----------------------------------------------------------


*** tstop() called on ddmfs1 at Tue Jan 23 01:18:42 2024
Module time:
	user time   =      44.08 seconds =       0.73 minutes
	system time =       3.00 seconds =       0.05 minutes
	total time  =         14 seconds =       0.23 minutes
Total time:
	user time   =     193.28 seconds =       3.22 minutes
	system time =      12.17 seconds =       0.20 minutes
	total time  =         25 seconds =       0.42 minutes

    Psi4 stopped on: Tuesday, 23 January 2024 01:18AM
    Psi4 wall time for execution: 0:00:25.14

*** Psi4 exiting successfully. Buy a developer a beer!
