
    -----------------------------------------------------------------------
          Psi4: An Open-Source Ab Initio Electronic Structure Package
                               Psi4 1.8.2 release

                         Git: Rev {} zzzzzzz 


    D. G. A. Smith, L. A. Burns, A. C. Simmonett, R. M. Parrish,
    M. C. Schieber, R. Galvelis, P. Kraus, H. Kruse, R. Di Remigio,
    A. Alenaizan, A. M. James, S. Lehtola, J. P. Misiewicz, M. Scheurer,
    R. A. Shaw, J. B. Schriber, Y. Xie, Z. L. Glick, D. A. Sirianni,
    J. S. O'Brien, J. M. Waldrop, A. Kumar, E. G. Hohenstein,
    B. P. Pritchard, B. R. Brooks, H. F. Schaefer III, A. Yu. Sokolov,
    K. Patkowski, A. E. DePrince III, U. Bozkaya, R. A. King,
    F. A. Evangelista, J. M. Turney, T. D. Crawford, C. D. Sherrill,
    J. Chem. Phys. 152(18) 184108 (2020). https://doi.org/10.1063/5.0006002

                            Additional Code Authors
    E. T. Seidl, C. L. Janssen, E. F. Valeev, M. L. Leininger,
    J. F. Gonthier, R. M. Richard, H. R. McAlexander, M. Saitow, X. Wang,
    P. Verma, M. H. Lechner, A. Jiang, S. Behnle, A. G. Heide,
    M. F. Herbst, and D. L. Poole

             Previous Authors, Complete List of Code Contributors,
                       and Citations for Specific Modules
    https://github.com/psi4/psi4/blob/master/codemeta.json
    https://github.com/psi4/psi4/graphs/contributors
    http://psicode.org/psi4manual/master/introduction.html#citing-psifour

    -----------------------------------------------------------------------


    Psi4 started on: Monday, 22 January 2024 11:31PM

    Process ID: 117273
    Host:       ddmfs1
    PSIDATADIR: /ddmfs1b/softs/psi4conda/share/psi4
    Memory:     500.0 MiB
    Threads:    20
    
  ==> Input File <==

--------------------------------------------------------------------------
MEMORY 60 GB

molecule dimer {
0 1
Gh(Br)     0.000000     0.000000     0.000000
O          2.118565     1.377600    -2.222428
H          1.524510     1.021254    -1.485349
H          2.481666     0.625784    -2.731423
Gh(O)      1.458491    -2.150671    -1.922163
Gh(H)      0.842838    -1.646061    -1.317309
Gh(H)      2.186106    -1.568774    -2.026988
Gh(O)      1.457423     0.149191     3.119476
Gh(H)      1.197132    -0.104181     2.235110
Gh(H)      2.162739    -0.500210     3.388672
Gh(O)     -0.225623    -2.782781     2.045966
Gh(H)     -0.289413    -2.198172     2.800474
Gh(H)     -0.483719    -2.262648     1.280829
Gh(O)      3.373774    -0.713926     0.596505
Gh(H)      3.202858    -1.598986     0.946685
Gh(H)      2.570736    -0.305260     0.273215

units ang
no_reorient
no_com
symmetry c1
}

set {
basis        aug-cc-pVTZ
scf_type     df
}

energy("mp2")
--------------------------------------------------------------------------

  Memory set to  55.879 GiB by Python driver.

Scratch directory: /ddmfs1a/scratch/
   => Libint2 <=

    Primary   basis highest AM E, G, H:  5, 4, 3
    Auxiliary basis highest AM E, G, H:  6, 5, 4
    Onebody   basis highest AM E, G, H:  6, 5, 4
    Solid Harmonics ordering:            gaussian

*** tstart() called on ddmfs1
*** at Mon Jan 22 23:31:33 2024

   => Loading Basis Set <=

    Name: AUG-CC-PVTZ
    Role: ORBITAL
    Keyword: BASIS
    atoms 1                            entry BR         line  4208 file /ddmfs1b/softs/psi4conda/share/psi4/basis/aug-cc-pvtz.gbs 
    atoms 2, 5, 8, 11, 14              entry O          line   331 file /ddmfs1b/softs/psi4conda/share/psi4/basis/aug-cc-pvtz.gbs 
    atoms 3-4, 6-7, 9-10, 12-13, 15-16 entry H          line    40 file /ddmfs1b/softs/psi4conda/share/psi4/basis/aug-cc-pvtz.gbs 


         ---------------------------------------------------------
                                   SCF
               by Justin Turney, Rob Parrish, Andy Simmonett
                          and Daniel G. A. Smith
                              RHF Reference
                       20 Threads,  57220 MiB Core
         ---------------------------------------------------------

  ==> Geometry <==

    Molecular point group: c1
    Full point group: C1

    Geometry (in Angstrom), charge = 0, multiplicity = 1:

       Center              X                  Y                   Z               Mass       
    ------------   -----------------  -----------------  -----------------  -----------------
      Gh(BR)          0.000000000000     0.000000000000     0.000000000000    78.918337600000
         O            2.118565000000     1.377600000000    -2.222428000000    15.994914619570
         H            1.524510000000     1.021254000000    -1.485349000000     1.007825032230
         H            2.481666000000     0.625784000000    -2.731423000000     1.007825032230
      Gh(O)           1.458491000000    -2.150671000000    -1.922163000000    15.994914619570
      Gh(H)           0.842838000000    -1.646061000000    -1.317309000000     1.007825032230
      Gh(H)           2.186106000000    -1.568774000000    -2.026988000000     1.007825032230
      Gh(O)           1.457423000000     0.149191000000     3.119476000000    15.994914619570
      Gh(H)           1.197132000000    -0.104181000000     2.235110000000     1.007825032230
      Gh(H)           2.162739000000    -0.500210000000     3.388672000000     1.007825032230
      Gh(O)          -0.225623000000    -2.782781000000     2.045966000000    15.994914619570
      Gh(H)          -0.289413000000    -2.198172000000     2.800474000000     1.007825032230
      Gh(H)          -0.483719000000    -2.262648000000     1.280829000000     1.007825032230
      Gh(O)           3.373774000000    -0.713926000000     0.596505000000    15.994914619570
      Gh(H)           3.202858000000    -1.598986000000     0.946685000000     1.007825032230
      Gh(H)           2.570736000000    -0.305260000000     0.273215000000     1.007825032230

  Running in c1 symmetry.

  Rotational constants: A =      0.02913  B =      0.02576  C =      0.02060 [cm^-1]
  Rotational constants: A =    873.38026  B =    772.21100  C =    617.57040 [MHz]
  Nuclear repulsion =    8.841225227615954

  Charge       = 0
  Multiplicity = 1
  Electrons    = 10
  Nalpha       = 5
  Nbeta        = 5

  ==> Algorithm <==

  SCF Algorithm Type is DF.
  DIIS enabled.
  MOM disabled.
  Fractional occupation disabled.
  Guess Type is SAD.
  Energy threshold   = 1.00e-08
  Density threshold  = 1.00e-08
  Integral threshold = 1.00e-12

  ==> Primary Basis <==

  Basis Set: AUG-CC-PVTZ
    Blend: AUG-CC-PVTZ
    Number of shells: 179
    Number of basis functions: 519
    Number of Cartesian functions: 594
    Spherical Harmonics?: true
    Max angular momentum: 3

   => Loading Basis Set <=

    Name: (AUG-CC-PVTZ AUX)
    Role: JKFIT
    Keyword: DF_BASIS_SCF
    atoms 1                            entry BR         line  1492 file /ddmfs1b/softs/psi4conda/share/psi4/basis/aug-cc-pvtz-jkfit.gbs 
    atoms 2, 5, 8, 11, 14              entry O          line   286 file /ddmfs1b/softs/psi4conda/share/psi4/basis/aug-cc-pvtz-jkfit.gbs 
    atoms 3-4, 6-7, 9-10, 12-13, 15-16 entry H          line    70 file /ddmfs1b/softs/psi4conda/share/psi4/basis/aug-cc-pvtz-jkfit.gbs 

  ==> Integral Setup <==

  DFHelper Memory: AOs need 2.338 GiB; user supplied 41.910 GiB. 
  Using in-core AOs.

  ==> MemDFJK: Density-Fitted J/K Matrices <==

    J tasked:                   Yes
    K tasked:                   Yes
    wK tasked:                   No
    OpenMP threads:              20
    Memory [MiB]:             42915
    Algorithm:                 Core
    Schwarz Cutoff:           1E-12
    Mask sparsity (%):       9.4305
    Fitting Condition:        1E-10

   => Auxiliary Basis Set <=

  Basis Set: (AUG-CC-PVTZ AUX)
    Blend: AUG-CC-PVTZ-JKFIT
    Number of shells: 348
    Number of basis functions: 1228
    Number of Cartesian functions: 1534
    Spherical Harmonics?: true
    Max angular momentum: 4

  Minimum eigenvalue in the overlap matrix is 1.1873532419E-04.
  Reciprocal condition number of the overlap matrix is 8.3006951008E-06.
    Using symmetric orthogonalization.

  ==> Pre-Iterations <==

  SCF Guess: Superposition of Atomic Densities via on-the-fly atomic UHF (no occupation information).

   -------------------------
    Irrep   Nso     Nmo    
   -------------------------
     A        519     519 
   -------------------------
    Total     519     519
   -------------------------

  ==> Iterations <==

                           Total Energy        Delta E     RMS |[F,P]|

   @DF-RHF iter SAD:   -75.42953179207387   -7.54295e+01   0.00000e+00 
   @DF-RHF iter   1:   -75.96894874762810   -5.39417e-01   8.98546e-04 DIIS/ADIIS
   @DF-RHF iter   2:   -76.02023023424017   -5.12815e-02   6.34803e-04 DIIS/ADIIS
   @DF-RHF iter   3:   -76.05422190832390   -3.39917e-02   4.34344e-05 DIIS
   @DF-RHF iter   4:   -76.05467201939993   -4.50111e-04   1.12561e-05 DIIS
   @DF-RHF iter   5:   -76.05470546779189   -3.34484e-05   2.63965e-06 DIIS
   @DF-RHF iter   6:   -76.05470839141961   -2.92363e-06   5.93943e-07 DIIS
   @DF-RHF iter   7:   -76.05470855231692   -1.60897e-07   1.10016e-07 DIIS
   @DF-RHF iter   8:   -76.05470855710169   -4.78477e-09   1.93660e-08 DIIS
   @DF-RHF iter   9:   -76.05470855722592   -1.24231e-10   5.20507e-09 DIIS
  Energy and wave function converged.


  ==> Post-Iterations <==

    Orbital Energies [Eh]
    ---------------------

    Doubly Occupied:                                                      

       1A    -20.571314     2A     -1.332321     3A     -0.705750  
       4A     -0.568957     5A     -0.505938  

    Virtual:                                                              

       6A      0.015349     7A      0.032656     8A      0.037896  
       9A      0.041136    10A      0.053491    11A      0.059155  
      12A      0.062886    13A      0.068000    14A      0.077082  
      15A      0.081992    16A      0.086544    17A      0.091469  
      18A      0.117463    19A      0.119474    20A      0.127660  
      21A      0.129841    22A      0.132814    23A      0.149497  
      24A      0.156473    25A      0.158099    26A      0.167060  
      27A      0.173909    28A      0.181262    29A      0.184978  
      30A      0.191531    31A      0.192865    32A      0.195201  
      33A      0.206811    34A      0.211468    35A      0.217066  
      36A      0.223941    37A      0.232485    38A      0.236580  
      39A      0.242412    40A      0.250631    41A      0.263718  
      42A      0.270768    43A      0.277982    44A      0.285938  
      45A      0.298586    46A      0.308041    47A      0.314164  
      48A      0.321963    49A      0.329323    50A      0.330316  
      51A      0.333639    52A      0.350468    53A      0.353296  
      54A      0.356573    55A      0.365400    56A      0.374485  
      57A      0.378327    58A      0.387890    59A      0.392785  
      60A      0.399965    61A      0.404123    62A      0.408305  
      63A      0.419076    64A      0.424991    65A      0.432039  
      66A      0.434365    67A      0.442808    68A      0.450346  
      69A      0.463321    70A      0.465691    71A      0.474185  
      72A      0.475438    73A      0.483329    74A      0.493750  
      75A      0.502393    76A      0.516393    77A      0.520197  
      78A      0.523665    79A      0.533486    80A      0.552375  
      81A      0.566877    82A      0.577151    83A      0.589068  
      84A      0.600840    85A      0.604231    86A      0.619393  
      87A      0.626739    88A      0.640141    89A      0.665922  
      90A      0.682489    91A      0.698638    92A      0.707027  
      93A      0.717335    94A      0.723213    95A      0.732511  
      96A      0.735784    97A      0.756063    98A      0.764097  
      99A      0.766000   100A      0.778353   101A      0.779662  
     102A      0.785984   103A      0.794808   104A      0.800722  
     105A      0.813532   106A      0.818157   107A      0.825983  
     108A      0.828467   109A      0.836790   110A      0.846934  
     111A      0.855578   112A      0.857044   113A      0.865583  
     114A      0.874696   115A      0.879561   116A      0.884964  
     117A      0.889785   118A      0.904549   119A      0.906214  
     120A      0.912477   121A      0.919173   122A      0.921128  
     123A      0.930856   124A      0.937641   125A      0.948579  
     126A      0.953033   127A      0.958982   128A      0.970038  
     129A      0.975285   130A      0.980737   131A      0.989160  
     132A      0.996411   133A      1.002097   134A      1.007857  
     135A      1.024205   136A      1.030175   137A      1.037172  
     138A      1.041414   139A      1.051836   140A      1.058774  
     141A      1.073244   142A      1.076683   143A      1.082374  
     144A      1.084187   145A      1.090054   146A      1.106944  
     147A      1.119819   148A      1.128228   149A      1.131980  
     150A      1.136381   151A      1.138902   152A      1.153854  
     153A      1.162234   154A      1.173750   155A      1.180439  
     156A      1.182470   157A      1.191488   158A      1.212082  
     159A      1.216275   160A      1.231473   161A      1.232904  
     162A      1.248095   163A      1.257621   164A      1.263877  
     165A      1.267137   166A      1.273812   167A      1.282369  
     168A      1.295071   169A      1.309458   170A      1.319396  
     171A      1.333644   172A      1.344628   173A      1.354109  
     174A      1.360981   175A      1.378164   176A      1.386123  
     177A      1.400741   178A      1.404507   179A      1.424592  
     180A      1.434995   181A      1.451490   182A      1.462970  
     183A      1.464665   184A      1.478828   185A      1.488884  
     186A      1.494712   187A      1.516377   188A      1.520646  
     189A      1.534087   190A      1.540021   191A      1.550727  
     192A      1.553513   193A      1.567751   194A      1.572856  
     195A      1.588774   196A      1.598330   197A      1.616033  
     198A      1.631422   199A      1.643388   200A      1.659427  
     201A      1.677859   202A      1.681772   203A      1.694611  
     204A      1.703946   205A      1.732839   206A      1.747677  
     207A      1.764441   208A      1.770323   209A      1.781397  
     210A      1.791075   211A      1.797147   212A      1.803880  
     213A      1.823340   214A      1.843723   215A      1.851325  
     216A      1.863672   217A      1.872559   218A      1.879272  
     219A      1.881909   220A      1.898072   221A      1.912094  
     222A      1.930332   223A      1.939250   224A      1.943379  
     225A      1.954962   226A      1.967683   227A      1.984861  
     228A      1.998092   229A      2.016694   230A      2.025267  
     231A      2.041765   232A      2.059273   233A      2.088824  
     234A      2.102080   235A      2.120361   236A      2.169403  
     237A      2.202793   238A      2.225836   239A      2.377499  
     240A      2.415067   241A      2.444390   242A      2.463219  
     243A      2.464907   244A      2.486123   245A      2.500224  
     246A      2.511414   247A      2.520213   248A      2.544507  
     249A      2.551478   250A      2.567113   251A      2.581940  
     252A      2.585486   253A      2.602143   254A      2.610303  
     255A      2.627948   256A      2.640053   257A      2.649424  
     258A      2.654692   259A      2.660314   260A      2.670341  
     261A      2.686988   262A      2.699907   263A      2.705097  
     264A      2.709982   265A      2.732325   266A      2.741873  
     267A      2.755205   268A      2.761934   269A      2.776187  
     270A      2.783233   271A      2.790494   272A      2.796016  
     273A      2.810618   274A      2.838337   275A      2.849034  
     276A      2.857585   277A      2.875323   278A      2.913037  
     279A      2.932412   280A      2.949355   281A      2.961924  
     282A      2.989846   283A      2.995932   284A      3.035897  
     285A      3.055068   286A      3.067530   287A      3.103554  
     288A      3.133321   289A      3.178096   290A      3.192943  
     291A      3.201816   292A      3.210174   293A      3.216738  
     294A      3.225873   295A      3.252501   296A      3.255852  
     297A      3.272668   298A      3.287754   299A      3.299401  
     300A      3.318848   301A      3.335046   302A      3.345227  
     303A      3.356274   304A      3.376057   305A      3.384014  
     306A      3.387411   307A      3.411422   308A      3.426768  
     309A      3.439809   310A      3.461023   311A      3.477492  
     312A      3.497705   313A      3.516799   314A      3.554880  
     315A      3.558801   316A      3.581206   317A      3.589565  
     318A      3.607094   319A      3.629189   320A      3.643760  
     321A      3.675973   322A      3.684305   323A      3.724495  
     324A      3.734882   325A      3.769649   326A      3.775759  
     327A      3.805432   328A      3.860327   329A      3.869509  
     330A      3.894885   331A      3.965148   332A      4.001000  
     333A      4.103151   334A      4.193940   335A      4.251955  
     336A      4.281330   337A      4.330196   338A      4.360947  
     339A      4.403355   340A      4.424834   341A      4.427467  
     342A      4.449162   343A      4.470276   344A      4.482081  
     345A      4.495627   346A      4.501738   347A      4.540000  
     348A      4.556032   349A      4.560291   350A      4.562099  
     351A      4.593093   352A      4.608895   353A      4.631579  
     354A      4.637186   355A      4.645668   356A      4.658844  
     357A      4.683418   358A      4.688443   359A      4.706124  
     360A      4.736712   361A      4.743735   362A      4.765933  
     363A      4.770687   364A      4.796167   365A      4.840913  
     366A      4.861830   367A      4.882727   368A      4.891248  
     369A      4.918928   370A      4.925582   371A      4.940802  
     372A      4.972150   373A      4.995548   374A      5.017294  
     375A      5.031499   376A      5.068792   377A      5.104852  
     378A      5.111923   379A      5.127413   380A      5.135295  
     381A      5.189888   382A      5.215528   383A      5.232300  
     384A      5.260972   385A      5.273151   386A      5.316779  
     387A      5.324508   388A      5.353577   389A      5.434394  
     390A      5.493090   391A      5.519607   392A      5.526739  
     393A      5.534797   394A      5.540259   395A      5.545273  
     396A      5.625471   397A      5.655555   398A      5.695437  
     399A      5.718843   400A      5.738518   401A      5.744028  
     402A      5.774367   403A      5.832382   404A      5.852599  
     405A      5.858443   406A      5.873147   407A      6.145392  
     408A      6.157584   409A      6.169482   410A      6.178629  
     411A      6.201579   412A      6.411053   413A      6.441947  
     414A      6.470334   415A      6.479769   416A      6.615988  
     417A      6.620546   418A      6.663200   419A      6.695127  
     420A      6.792111   421A      6.846303   422A      6.883899  
     423A      7.082617   424A      7.105995   425A      7.120028  
     426A      7.144007   427A      7.182427   428A      7.258550  
     429A      7.306075   430A      7.362527   431A      7.441029  
     432A      7.478788   433A      7.695215   434A      7.730578  
     435A      7.752458   436A      7.766957   437A      7.788789  
     438A      7.814889   439A      7.855981   440A      7.865697  
     441A      7.890174   442A      7.894733   443A      7.990694  
     444A      8.107873   445A      8.120534   446A      8.136283  
     447A      8.200382   448A      8.213840   449A      8.258578  
     450A      8.278713   451A      8.299294   452A      8.305821  
     453A      8.317766   454A      8.344487   455A      8.373048  
     456A      8.628136   457A      8.730783   458A      8.787288  
     459A      8.824176   460A      8.865038   461A      8.872794  
     462A      8.886709   463A      8.959771   464A      9.036483  
     465A      9.725903   466A      9.748563   467A      9.766388  
     468A      9.848609   469A      9.901855   470A      9.915707  
     471A      9.922842   472A      9.947499   473A     10.069162  
     474A     10.092353   475A     10.105723   476A     10.136464  
     477A     10.264392   478A     10.305181   479A     10.330123  
     480A     10.377835   481A     11.092669   482A     11.131821  
     483A     11.150920   484A     11.229486   485A     11.387877  
     486A     11.745762   487A     11.789241   488A     11.829601  
     489A     11.846938   490A     12.077268   491A     12.166398  
     492A     12.211833   493A     12.233509   494A     13.542843  
     495A     13.606992   496A     13.655823   497A     13.741162  
     498A     13.835676   499A     13.855878   500A     13.894239  
     501A     13.979362   502A     13.985339   503A     14.014118  
     504A     14.121813   505A     15.844207   506A     26.294739  
     507A     26.420675   508A     26.493988   509A     26.546634  
     510A     26.672506   511A     46.759837   512A     65.388015  
     513A     65.816305   514A     66.316402   515A     67.046570  
     516A    138.991639   517A    139.156868   518A    139.424934  
     519A    712.534532  

    Final Occupation by Irrep:
              A 
    DOCC [     5 ]
    NA   [     5 ]
    NB   [     5 ]

  @DF-RHF Final Energy:   -76.05470855722592

   => Energetics <=

    Nuclear Repulsion Energy =              8.8412252276159542
    One-Electron Energy =                -122.4233030332174650
    Two-Electron Energy =                  37.5273692483755994
    Total Energy =                        -76.0547085572259220

Computation Completed


Properties will be evaluated at   0.000000,   0.000000,   0.000000 [a0]

Properties computed using the SCF density matrix


 Multipole Moments:

 ------------------------------------------------------------------------------------
     Multipole            Electronic (a.u.)      Nuclear  (a.u.)        Total (a.u.)
 ------------------------------------------------------------------------------------

 L = 1.  Multiply by 2.5417464519 to convert [e a0] to [Debye]
 Dipole X            :        -39.7481337           39.5986365           -0.1494972
 Dipole Y            :        -24.6701107           23.9387444           -0.7313663
 Dipole Z            :         41.7135414          -41.5667862            0.1467552
 Magnitude           :                                                    0.7607780

 ------------------------------------------------------------------------------------

*** tstop() called on ddmfs1 at Mon Jan 22 23:31:41 2024
Module time:
	user time   =     104.19 seconds =       1.74 minutes
	system time =       7.03 seconds =       0.12 minutes
	total time  =          8 seconds =       0.13 minutes
Total time:
	user time   =     104.19 seconds =       1.74 minutes
	system time =       7.03 seconds =       0.12 minutes
	total time  =          8 seconds =       0.13 minutes

*** tstart() called on ddmfs1
*** at Mon Jan 22 23:31:41 2024


  //>>>>>>>>>>>>>>>>>>>>>>>>>>>>>>>>>>>//
  //               DFMP2               //
  //<<<<<<<<<<<<<<<<<<<<<<<<<<<<<<<<<<<//

   => Loading Basis Set <=

    Name: (AUG-CC-PVTZ AUX)
    Role: RIFIT
    Keyword: DF_BASIS_MP2
    atoms 1                            entry BR         line  1248 file /ddmfs1b/softs/psi4conda/share/psi4/basis/aug-cc-pvtz-ri.gbs 
    atoms 2, 5, 8, 11, 14              entry O          line   264 file /ddmfs1b/softs/psi4conda/share/psi4/basis/aug-cc-pvtz-ri.gbs 
    atoms 3-4, 6-7, 9-10, 12-13, 15-16 entry H          line    30 file /ddmfs1b/softs/psi4conda/share/psi4/basis/aug-cc-pvtz-ri.gbs 

	 --------------------------------------------------------
	                          DF-MP2                         
	      2nd-Order Density-Fitted Moller-Plesset Theory     
	              RMP2 Wavefunction,  20 Threads             
	                                                         
	        Rob Parrish, Justin Turney, Andy Simmonett,      
	           Ed Hohenstein, and C. David Sherrill          
	 --------------------------------------------------------

   => Auxiliary Basis Set <=

  Basis Set: (AUG-CC-PVTZ AUX)
    Blend: AUG-CC-PVTZ-RI
    Number of shells: 323
    Number of basis functions: 1181
    Number of Cartesian functions: 1491
    Spherical Harmonics?: true
    Max angular momentum: 5

	 --------------------------------------------------------
	                 NBF =   519, NAUX =  1181
	 --------------------------------------------------------
	   CLASS    FOCC     OCC    AOCC    AVIR     VIR    FVIR
	   PAIRS       0       5       5     514     514       0
	 --------------------------------------------------------

	-----------------------------------------------------------
	 ==================> DF-MP2 Energies <==================== 
	-----------------------------------------------------------
	 Reference Energy          =     -76.0547085572259220 [Eh]
	 Singles Energy            =      -0.0000000000000000 [Eh]
	 Same-Spin Energy          =      -0.0689731976047587 [Eh]
	 Opposite-Spin Energy      =      -0.2177417049330647 [Eh]
	 Correlation Energy        =      -0.2867149025378235 [Eh]
	 Total Energy              =     -76.3414234597637460 [Eh]
	-----------------------------------------------------------
	 ================> DF-SCS-MP2 Energies <================== 
	-----------------------------------------------------------
	 SCS Same-Spin Scale       =       0.3333333333333333 [-]
	 SCS Opposite-Spin Scale   =       1.2000000000000000 [-]
	 SCS Same-Spin Energy      =      -0.0229910658682529 [Eh]
	 SCS Opposite-Spin Energy  =      -0.2612900459196777 [Eh]
	 SCS Correlation Energy    =      -0.2842811117879306 [Eh]
	 SCS Total Energy          =     -76.3389896690138556 [Eh]
	-----------------------------------------------------------


*** tstop() called on ddmfs1 at Mon Jan 22 23:31:53 2024
Module time:
	user time   =      34.21 seconds =       0.57 minutes
	system time =       2.52 seconds =       0.04 minutes
	total time  =         12 seconds =       0.20 minutes
Total time:
	user time   =     138.42 seconds =       2.31 minutes
	system time =       9.55 seconds =       0.16 minutes
	total time  =         20 seconds =       0.33 minutes

    Psi4 stopped on: Monday, 22 January 2024 11:31PM
    Psi4 wall time for execution: 0:00:19.92

*** Psi4 exiting successfully. Buy a developer a beer!
