
    -----------------------------------------------------------------------
          Psi4: An Open-Source Ab Initio Electronic Structure Package
                               Psi4 1.8.2 release

                         Git: Rev {} zzzzzzz 


    D. G. A. Smith, L. A. Burns, A. C. Simmonett, R. M. Parrish,
    M. C. Schieber, R. Galvelis, P. Kraus, H. Kruse, R. Di Remigio,
    A. Alenaizan, A. M. James, S. Lehtola, J. P. Misiewicz, M. Scheurer,
    R. A. Shaw, J. B. Schriber, Y. Xie, Z. L. Glick, D. A. Sirianni,
    J. S. O'Brien, J. M. Waldrop, A. Kumar, E. G. Hohenstein,
    B. P. Pritchard, B. R. Brooks, H. F. Schaefer III, A. Yu. Sokolov,
    K. Patkowski, A. E. DePrince III, U. Bozkaya, R. A. King,
    F. A. Evangelista, J. M. Turney, T. D. Crawford, C. D. Sherrill,
    J. Chem. Phys. 152(18) 184108 (2020). https://doi.org/10.1063/5.0006002

                            Additional Code Authors
    E. T. Seidl, C. L. Janssen, E. F. Valeev, M. L. Leininger,
    J. F. Gonthier, R. M. Richard, H. R. McAlexander, M. Saitow, X. Wang,
    P. Verma, M. H. Lechner, A. Jiang, S. Behnle, A. G. Heide,
    M. F. Herbst, and D. L. Poole

             Previous Authors, Complete List of Code Contributors,
                       and Citations for Specific Modules
    https://github.com/psi4/psi4/blob/master/codemeta.json
    https://github.com/psi4/psi4/graphs/contributors
    http://psicode.org/psi4manual/master/introduction.html#citing-psifour

    -----------------------------------------------------------------------


    Psi4 started on: Tuesday, 23 January 2024 01:02AM

    Process ID: 122804
    Host:       ddmfs1
    PSIDATADIR: /ddmfs1b/softs/psi4conda/share/psi4
    Memory:     500.0 MiB
    Threads:    20
    
  ==> Input File <==

--------------------------------------------------------------------------
MEMORY 60 GB

molecule dimer {
0 1
Gh(Br)     0.000000     0.000000     0.000000
Gh(O)     -1.911432     2.433986     1.070897
Gh(H)     -1.555279     3.089706     1.640643
Gh(H)     -1.224968     1.718194     1.109894
O         -1.401665     2.429875    -1.811153
H         -1.959056     2.676358    -1.041095
H         -0.686385     1.866479    -1.500724
Gh(O)     -1.794280    -2.241072     2.073482
Gh(H)     -1.722283    -2.617890     2.966158
Gh(H)     -1.034366    -1.621705     2.007902
Gh(O)      2.505713    -0.505921     1.723979
Gh(H)      1.700403    -0.507406     1.113190
Gh(H)      2.107247    -0.320223     2.595222
Gh(O)      2.946339    -0.264625    -1.581763
Gh(H)      3.334716     0.559035    -1.244785
Gh(H)      2.261634    -0.356773    -0.924585

units ang
no_reorient
no_com
symmetry c1
}

set {
basis        aug-cc-pVTZ
scf_type     df
}

energy("mp2")
--------------------------------------------------------------------------

  Memory set to  55.879 GiB by Python driver.

Scratch directory: /ddmfs1a/scratch/
   => Libint2 <=

    Primary   basis highest AM E, G, H:  5, 4, 3
    Auxiliary basis highest AM E, G, H:  6, 5, 4
    Onebody   basis highest AM E, G, H:  6, 5, 4
    Solid Harmonics ordering:            gaussian

*** tstart() called on ddmfs1
*** at Tue Jan 23 01:02:07 2024

   => Loading Basis Set <=

    Name: AUG-CC-PVTZ
    Role: ORBITAL
    Keyword: BASIS
    atoms 1                            entry BR         line  4208 file /ddmfs1b/softs/psi4conda/share/psi4/basis/aug-cc-pvtz.gbs 
    atoms 2, 5, 8, 11, 14              entry O          line   331 file /ddmfs1b/softs/psi4conda/share/psi4/basis/aug-cc-pvtz.gbs 
    atoms 3-4, 6-7, 9-10, 12-13, 15-16 entry H          line    40 file /ddmfs1b/softs/psi4conda/share/psi4/basis/aug-cc-pvtz.gbs 


         ---------------------------------------------------------
                                   SCF
               by Justin Turney, Rob Parrish, Andy Simmonett
                          and Daniel G. A. Smith
                              RHF Reference
                       20 Threads,  57220 MiB Core
         ---------------------------------------------------------

  ==> Geometry <==

    Molecular point group: c1
    Full point group: C1

    Geometry (in Angstrom), charge = 0, multiplicity = 1:

       Center              X                  Y                   Z               Mass       
    ------------   -----------------  -----------------  -----------------  -----------------
      Gh(BR)          0.000000000000     0.000000000000     0.000000000000    78.918337600000
      Gh(O)          -1.911432000000     2.433986000000     1.070897000000    15.994914619570
      Gh(H)          -1.555279000000     3.089706000000     1.640643000000     1.007825032230
      Gh(H)          -1.224968000000     1.718194000000     1.109894000000     1.007825032230
         O           -1.401665000000     2.429875000000    -1.811153000000    15.994914619570
         H           -1.959056000000     2.676358000000    -1.041095000000     1.007825032230
         H           -0.686385000000     1.866479000000    -1.500724000000     1.007825032230
      Gh(O)          -1.794280000000    -2.241072000000     2.073482000000    15.994914619570
      Gh(H)          -1.722283000000    -2.617890000000     2.966158000000     1.007825032230
      Gh(H)          -1.034366000000    -1.621705000000     2.007902000000     1.007825032230
      Gh(O)           2.505713000000    -0.505921000000     1.723979000000    15.994914619570
      Gh(H)           1.700403000000    -0.507406000000     1.113190000000     1.007825032230
      Gh(H)           2.107247000000    -0.320223000000     2.595222000000     1.007825032230
      Gh(O)           2.946339000000    -0.264625000000    -1.581763000000    15.994914619570
      Gh(H)           3.334716000000     0.559035000000    -1.244785000000     1.007825032230
      Gh(H)           2.261634000000    -0.356773000000    -0.924585000000     1.007825032230

  Running in c1 symmetry.

  Rotational constants: A =      0.03360  B =      0.02834  C =      0.01939 [cm^-1]
  Rotational constants: A =   1007.40282  B =    849.54827  C =    581.22954 [MHz]
  Nuclear repulsion =    9.047078951640543

  Charge       = 0
  Multiplicity = 1
  Electrons    = 10
  Nalpha       = 5
  Nbeta        = 5

  ==> Algorithm <==

  SCF Algorithm Type is DF.
  DIIS enabled.
  MOM disabled.
  Fractional occupation disabled.
  Guess Type is SAD.
  Energy threshold   = 1.00e-08
  Density threshold  = 1.00e-08
  Integral threshold = 1.00e-12

  ==> Primary Basis <==

  Basis Set: AUG-CC-PVTZ
    Blend: AUG-CC-PVTZ
    Number of shells: 179
    Number of basis functions: 519
    Number of Cartesian functions: 594
    Spherical Harmonics?: true
    Max angular momentum: 3

   => Loading Basis Set <=

    Name: (AUG-CC-PVTZ AUX)
    Role: JKFIT
    Keyword: DF_BASIS_SCF
    atoms 1                            entry BR         line  1492 file /ddmfs1b/softs/psi4conda/share/psi4/basis/aug-cc-pvtz-jkfit.gbs 
    atoms 2, 5, 8, 11, 14              entry O          line   286 file /ddmfs1b/softs/psi4conda/share/psi4/basis/aug-cc-pvtz-jkfit.gbs 
    atoms 3-4, 6-7, 9-10, 12-13, 15-16 entry H          line    70 file /ddmfs1b/softs/psi4conda/share/psi4/basis/aug-cc-pvtz-jkfit.gbs 

  ==> Integral Setup <==

  DFHelper Memory: AOs need 2.193 GiB; user supplied 41.910 GiB. 
  Using in-core AOs.

  ==> MemDFJK: Density-Fitted J/K Matrices <==

    J tasked:                   Yes
    K tasked:                   Yes
    wK tasked:                   No
    OpenMP threads:              20
    Memory [MiB]:             42915
    Algorithm:                 Core
    Schwarz Cutoff:           1E-12
    Mask sparsity (%):      15.3133
    Fitting Condition:        1E-10

   => Auxiliary Basis Set <=

  Basis Set: (AUG-CC-PVTZ AUX)
    Blend: AUG-CC-PVTZ-JKFIT
    Number of shells: 348
    Number of basis functions: 1228
    Number of Cartesian functions: 1534
    Spherical Harmonics?: true
    Max angular momentum: 4

  Minimum eigenvalue in the overlap matrix is 1.5315647320E-04.
  Reciprocal condition number of the overlap matrix is 1.2810808695E-05.
    Using symmetric orthogonalization.

  ==> Pre-Iterations <==

  SCF Guess: Superposition of Atomic Densities via on-the-fly atomic UHF (no occupation information).

   -------------------------
    Irrep   Nso     Nmo    
   -------------------------
     A        519     519 
   -------------------------
    Total     519     519
   -------------------------

  ==> Iterations <==

                           Total Energy        Delta E     RMS |[F,P]|

   @DF-RHF iter SAD:   -75.45702759031786   -7.54570e+01   0.00000e+00 
   @DF-RHF iter   1:   -75.97432421902310   -5.17297e-01   9.00790e-04 ADIIS/DIIS
   @DF-RHF iter   2:   -76.02629431857873   -5.19701e-02   6.20542e-04 ADIIS/DIIS
   @DF-RHF iter   3:   -76.05842147367269   -3.21272e-02   4.22866e-05 DIIS
   @DF-RHF iter   4:   -76.05883343079981   -4.11957e-04   1.04247e-05 DIIS
   @DF-RHF iter   5:   -76.05886077342062   -2.73426e-05   2.39097e-06 DIIS
   @DF-RHF iter   6:   -76.05886307575243   -2.30233e-06   5.35167e-07 DIIS
   @DF-RHF iter   7:   -76.05886320286848   -1.27116e-07   9.98400e-08 DIIS
   @DF-RHF iter   8:   -76.05886320674854   -3.88006e-09   1.68676e-08 DIIS
   @DF-RHF iter   9:   -76.05886320683811   -8.95710e-11   4.33531e-09 DIIS
  Energy and wave function converged.


  ==> Post-Iterations <==

    Orbital Energies [Eh]
    ---------------------

    Doubly Occupied:                                                      

       1A    -20.567897     2A     -1.343441     3A     -0.716945  
       4A     -0.574480     5A     -0.507936  

    Virtual:                                                              

       6A      0.013896     7A      0.031628     8A      0.032884  
       9A      0.039786    10A      0.051172    11A      0.057866  
      12A      0.059925    13A      0.065947    14A      0.071358  
      15A      0.081197    16A      0.100898    17A      0.106429  
      18A      0.116290    19A      0.120427    20A      0.126325  
      21A      0.129798    22A      0.142170    23A      0.149384  
      24A      0.150748    25A      0.153326    26A      0.161971  
      27A      0.164089    28A      0.169032    29A      0.179155  
      30A      0.188012    31A      0.190662    32A      0.197232  
      33A      0.204974    34A      0.208360    35A      0.215607  
      36A      0.218624    37A      0.226774    38A      0.228504  
      39A      0.241962    40A      0.252768    41A      0.268175  
      42A      0.274890    43A      0.280673    44A      0.287846  
      45A      0.292801    46A      0.305925    47A      0.308444  
      48A      0.312376    49A      0.316201    50A      0.322346  
      51A      0.327586    52A      0.330011    53A      0.334900  
      54A      0.339630    55A      0.356612    56A      0.357806  
      57A      0.358931    58A      0.367670    59A      0.377375  
      60A      0.382002    61A      0.383628    62A      0.394585  
      63A      0.400069    64A      0.405942    65A      0.416247  
      66A      0.417293    67A      0.429736    68A      0.435117  
      69A      0.443914    70A      0.448786    71A      0.462863  
      72A      0.473512    73A      0.474947    74A      0.494334  
      75A      0.500766    76A      0.517579    77A      0.522100  
      78A      0.531602    79A      0.546862    80A      0.554544  
      81A      0.572703    82A      0.580641    83A      0.590207  
      84A      0.603796    85A      0.607991    86A      0.621725  
      87A      0.642400    88A      0.648716    89A      0.656210  
      90A      0.669226    91A      0.681478    92A      0.698701  
      93A      0.705520    94A      0.716802    95A      0.728410  
      96A      0.739668    97A      0.753701    98A      0.761023  
      99A      0.768143   100A      0.771980   101A      0.780444  
     102A      0.786681   103A      0.793059   104A      0.806478  
     105A      0.812127   106A      0.816110   107A      0.818333  
     108A      0.826857   109A      0.835269   110A      0.837499  
     111A      0.841666   112A      0.844928   113A      0.851184  
     114A      0.855081   115A      0.861596   116A      0.867165  
     117A      0.874286   118A      0.879919   119A      0.884377  
     120A      0.893890   121A      0.900366   122A      0.908722  
     123A      0.917864   124A      0.926101   125A      0.931567  
     126A      0.932939   127A      0.938179   128A      0.945987  
     129A      0.954672   130A      0.957972   131A      0.965073  
     132A      0.972312   133A      0.984635   134A      0.990978  
     135A      0.991671   136A      0.998166   137A      1.003678  
     138A      1.012683   139A      1.019112   140A      1.020675  
     141A      1.026312   142A      1.032742   143A      1.034241  
     144A      1.056666   145A      1.065975   146A      1.071104  
     147A      1.077727   148A      1.081668   149A      1.087170  
     150A      1.099999   151A      1.104948   152A      1.111021  
     153A      1.114410   154A      1.131352   155A      1.135299  
     156A      1.148522   157A      1.152995   158A      1.163719  
     159A      1.173259   160A      1.183165   161A      1.184811  
     162A      1.191847   163A      1.197690   164A      1.213054  
     165A      1.220666   166A      1.233849   167A      1.240253  
     168A      1.252141   169A      1.259552   170A      1.278275  
     171A      1.282765   172A      1.286461   173A      1.296258  
     174A      1.306226   175A      1.315981   176A      1.326567  
     177A      1.340116   178A      1.364304   179A      1.370528  
     180A      1.379291   181A      1.386016   182A      1.401073  
     183A      1.416063   184A      1.441513   185A      1.446309  
     186A      1.449139   187A      1.462281   188A      1.475343  
     189A      1.488169   190A      1.503874   191A      1.509442  
     192A      1.516777   193A      1.544417   194A      1.556938  
     195A      1.575187   196A      1.592274   197A      1.608919  
     198A      1.618270   199A      1.639131   200A      1.652162  
     201A      1.662525   202A      1.683149   203A      1.686427  
     204A      1.711497   205A      1.717274   206A      1.736552  
     207A      1.745684   208A      1.751761   209A      1.754248  
     210A      1.763982   211A      1.771943   212A      1.783795  
     213A      1.795874   214A      1.808851   215A      1.812838  
     216A      1.831431   217A      1.846689   218A      1.861332  
     219A      1.863064   220A      1.874862   221A      1.884635  
     222A      1.890419   223A      1.902134   224A      1.916318  
     225A      1.919205   226A      1.932005   227A      1.949598  
     228A      1.971413   229A      1.989622   230A      2.012234  
     231A      2.026068   232A      2.050304   233A      2.122574  
     234A      2.173828   235A      2.202667   236A      2.241639  
     237A      2.244253   238A      2.304500   239A      2.345411  
     240A      2.374217   241A      2.405357   242A      2.434040  
     243A      2.447393   244A      2.453853   245A      2.467227  
     246A      2.480266   247A      2.484783   248A      2.499304  
     249A      2.505179   250A      2.522729   251A      2.535276  
     252A      2.543884   253A      2.547080   254A      2.561889  
     255A      2.568060   256A      2.580617   257A      2.587493  
     258A      2.595028   259A      2.611477   260A      2.613957  
     261A      2.635543   262A      2.638280   263A      2.645460  
     264A      2.658706   265A      2.664897   266A      2.668285  
     267A      2.678423   268A      2.690346   269A      2.693801  
     270A      2.717328   271A      2.731324   272A      2.751023  
     273A      2.769768   274A      2.785235   275A      2.798265  
     276A      2.809514   277A      2.830978   278A      2.847254  
     279A      2.868441   280A      2.910314   281A      2.921505  
     282A      2.933913   283A      2.954050   284A      2.979042  
     285A      3.004998   286A      3.016481   287A      3.091670  
     288A      3.145186   289A      3.160280   290A      3.169570  
     291A      3.173447   292A      3.177095   293A      3.191980  
     294A      3.214359   295A      3.225961   296A      3.237622  
     297A      3.245953   298A      3.260256   299A      3.278984  
     300A      3.312097   301A      3.331566   302A      3.342688  
     303A      3.363136   304A      3.377403   305A      3.403234  
     306A      3.410917   307A      3.420824   308A      3.439264  
     309A      3.457302   310A      3.469304   311A      3.488979  
     312A      3.505201   313A      3.521763   314A      3.526315  
     315A      3.541321   316A      3.563658   317A      3.583479  
     318A      3.605140   319A      3.611418   320A      3.627527  
     321A      3.649993   322A      3.661079   323A      3.694264  
     324A      3.752177   325A      3.758165   326A      3.774051  
     327A      3.788488   328A      3.834444   329A      3.859944  
     330A      3.888915   331A      3.944440   332A      4.025114  
     333A      4.070813   334A      4.188699   335A      4.263955  
     336A      4.288439   337A      4.325456   338A      4.381660  
     339A      4.387766   340A      4.401969   341A      4.421058  
     342A      4.427054   343A      4.445424   344A      4.457641  
     345A      4.463944   346A      4.472999   347A      4.496022  
     348A      4.498433   349A      4.507200   350A      4.516009  
     351A      4.542110   352A      4.555441   353A      4.561519  
     354A      4.582637   355A      4.591324   356A      4.622682  
     357A      4.660275   358A      4.677324   359A      4.698875  
     360A      4.710658   361A      4.738058   362A      4.744582  
     363A      4.762027   364A      4.815369   365A      4.854120  
     366A      4.864269   367A      4.872210   368A      4.879032  
     369A      4.888433   370A      4.906340   371A      4.922554  
     372A      4.936209   373A      4.950560   374A      4.980567  
     375A      5.004860   376A      5.010935   377A      5.032357  
     378A      5.076922   379A      5.105104   380A      5.181384  
     381A      5.197681   382A      5.208528   383A      5.302119  
     384A      5.311759   385A      5.331609   386A      5.345842  
     387A      5.364341   388A      5.391661   389A      5.476726  
     390A      5.487622   391A      5.497285   392A      5.508842  
     393A      5.536018   394A      5.560792   395A      5.580230  
     396A      5.601070   397A      5.605461   398A      5.611145  
     399A      5.663284   400A      5.724354   401A      5.758252  
     402A      5.791073   403A      5.827295   404A      5.861224  
     405A      5.931598   406A      5.934548   407A      6.125110  
     408A      6.155911   409A      6.190567   410A      6.192399  
     411A      6.256825   412A      6.302398   413A      6.344629  
     414A      6.368510   415A      6.457085   416A      6.568875  
     417A      6.593677   418A      6.595353   419A      6.628898  
     420A      6.690547   421A      6.810568   422A      6.914460  
     423A      6.976366   424A      7.001727   425A      7.086436  
     426A      7.130878   427A      7.162452   428A      7.286862  
     429A      7.320685   430A      7.360404   431A      7.459019  
     432A      7.471767   433A      7.689034   434A      7.719212  
     435A      7.749579   436A      7.758284   437A      7.772907  
     438A      7.813639   439A      7.868274   440A      7.896296  
     441A      7.941821   442A      7.962392   443A      8.021766  
     444A      8.028535   445A      8.048604   446A      8.069669  
     447A      8.090791   448A      8.124005   449A      8.138910  
     450A      8.165461   451A      8.172716   452A      8.240732  
     453A      8.253839   454A      8.321064   455A      8.328481  
     456A      8.691605   457A      8.695666   458A      8.754335  
     459A      8.758252   460A      8.775979   461A      8.807864  
     462A      8.826939   463A      8.864727   464A      8.975900  
     465A      9.634293   466A      9.714085   467A      9.726041  
     468A      9.767062   469A      9.840371   470A      9.876634  
     471A      9.920309   472A      9.977763   473A     10.020261  
     474A     10.055708   475A     10.079667   476A     10.103110  
     477A     10.267177   478A     10.291267   479A     10.330269  
     480A     10.355901   481A     11.055872   482A     11.123518  
     483A     11.163453   484A     11.236790   485A     11.281483  
     486A     11.625441   487A     11.717568   488A     11.851840  
     489A     11.867912   490A     11.918769   491A     11.938098  
     492A     12.199786   493A     12.264624   494A     13.485812  
     495A     13.498887   496A     13.621483   497A     13.634313  
     498A     13.725806   499A     13.880241   500A     13.916991  
     501A     13.941712   502A     13.952486   503A     13.989849  
     504A     14.244985   505A     16.298812   506A     26.302710  
     507A     26.429230   508A     26.463835   509A     26.601886  
     510A     26.744327   511A     46.638542   512A     64.135762  
     513A     64.799753   514A     65.610120   515A     66.449677  
     516A    138.816463   517A    139.125948   518A    139.582369  
     519A    712.184288  

    Final Occupation by Irrep:
              A 
    DOCC [     5 ]
    NA   [     5 ]
    NB   [     5 ]

  @DF-RHF Final Energy:   -76.05886320683811

   => Energetics <=

    Nuclear Repulsion Energy =              9.0470789516405432
    One-Electron Energy =                -122.7904842741231448
    Two-Electron Energy =                  37.6845421156444900
    Total Energy =                        -76.0588632068381116

Computation Completed


Properties will be evaluated at   0.000000,   0.000000,   0.000000 [a0]

Properties computed using the SCF density matrix


 Multipole Moments:

 ------------------------------------------------------------------------------------
     Multipole            Electronic (a.u.)      Nuclear  (a.u.)        Total (a.u.)
 ------------------------------------------------------------------------------------

 L = 1.  Multiply by 2.5417464519 to convert [e a0] to [Debye]
 Dipole X            :         26.2972575          -26.1892627            0.1079947
 Dipole Y            :        -45.5322114           45.3191039           -0.2131075
 Dipole Z            :         32.9038691          -32.1840069            0.7198622
 Magnitude           :                                                    0.7584717

 ------------------------------------------------------------------------------------

*** tstop() called on ddmfs1 at Tue Jan 23 01:02:15 2024
Module time:
	user time   =     100.50 seconds =       1.68 minutes
	system time =       6.47 seconds =       0.11 minutes
	total time  =          8 seconds =       0.13 minutes
Total time:
	user time   =     100.50 seconds =       1.68 minutes
	system time =       6.47 seconds =       0.11 minutes
	total time  =          8 seconds =       0.13 minutes

*** tstart() called on ddmfs1
*** at Tue Jan 23 01:02:15 2024


  //>>>>>>>>>>>>>>>>>>>>>>>>>>>>>>>>>>>//
  //               DFMP2               //
  //<<<<<<<<<<<<<<<<<<<<<<<<<<<<<<<<<<<//

   => Loading Basis Set <=

    Name: (AUG-CC-PVTZ AUX)
    Role: RIFIT
    Keyword: DF_BASIS_MP2
    atoms 1                            entry BR         line  1248 file /ddmfs1b/softs/psi4conda/share/psi4/basis/aug-cc-pvtz-ri.gbs 
    atoms 2, 5, 8, 11, 14              entry O          line   264 file /ddmfs1b/softs/psi4conda/share/psi4/basis/aug-cc-pvtz-ri.gbs 
    atoms 3-4, 6-7, 9-10, 12-13, 15-16 entry H          line    30 file /ddmfs1b/softs/psi4conda/share/psi4/basis/aug-cc-pvtz-ri.gbs 

	 --------------------------------------------------------
	                          DF-MP2                         
	      2nd-Order Density-Fitted Moller-Plesset Theory     
	              RMP2 Wavefunction,  20 Threads             
	                                                         
	        Rob Parrish, Justin Turney, Andy Simmonett,      
	           Ed Hohenstein, and C. David Sherrill          
	 --------------------------------------------------------

   => Auxiliary Basis Set <=

  Basis Set: (AUG-CC-PVTZ AUX)
    Blend: AUG-CC-PVTZ-RI
    Number of shells: 323
    Number of basis functions: 1181
    Number of Cartesian functions: 1491
    Spherical Harmonics?: true
    Max angular momentum: 5

	 --------------------------------------------------------
	                 NBF =   519, NAUX =  1181
	 --------------------------------------------------------
	   CLASS    FOCC     OCC    AOCC    AVIR     VIR    FVIR
	   PAIRS       0       5       5     514     514       0
	 --------------------------------------------------------

	-----------------------------------------------------------
	 ==================> DF-MP2 Energies <==================== 
	-----------------------------------------------------------
	 Reference Energy          =     -76.0588632068381116 [Eh]
	 Singles Energy            =      -0.0000000000000000 [Eh]
	 Same-Spin Energy          =      -0.0685887154262928 [Eh]
	 Opposite-Spin Energy      =      -0.2164600108302377 [Eh]
	 Correlation Energy        =      -0.2850487262565305 [Eh]
	 Total Energy              =     -76.3439119330946454 [Eh]
	-----------------------------------------------------------
	 ================> DF-SCS-MP2 Energies <================== 
	-----------------------------------------------------------
	 SCS Same-Spin Scale       =       0.3333333333333333 [-]
	 SCS Opposite-Spin Scale   =       1.2000000000000000 [-]
	 SCS Same-Spin Energy      =      -0.0228629051420976 [Eh]
	 SCS Opposite-Spin Energy  =      -0.2597520129962853 [Eh]
	 SCS Correlation Energy    =      -0.2826149181383829 [Eh]
	 SCS Total Energy          =     -76.3414781249764900 [Eh]
	-----------------------------------------------------------


*** tstop() called on ddmfs1 at Tue Jan 23 01:02:27 2024
Module time:
	user time   =      33.78 seconds =       0.56 minutes
	system time =       2.47 seconds =       0.04 minutes
	total time  =         12 seconds =       0.20 minutes
Total time:
	user time   =     134.30 seconds =       2.24 minutes
	system time =       8.94 seconds =       0.15 minutes
	total time  =         20 seconds =       0.33 minutes

    Psi4 stopped on: Tuesday, 23 January 2024 01:02AM
    Psi4 wall time for execution: 0:00:19.66

*** Psi4 exiting successfully. Buy a developer a beer!
