
    -----------------------------------------------------------------------
          Psi4: An Open-Source Ab Initio Electronic Structure Package
                               Psi4 1.8.2 release

                         Git: Rev {} zzzzzzz 


    D. G. A. Smith, L. A. Burns, A. C. Simmonett, R. M. Parrish,
    M. C. Schieber, R. Galvelis, P. Kraus, H. Kruse, R. Di Remigio,
    A. Alenaizan, A. M. James, S. Lehtola, J. P. Misiewicz, M. Scheurer,
    R. A. Shaw, J. B. Schriber, Y. Xie, Z. L. Glick, D. A. Sirianni,
    J. S. O'Brien, J. M. Waldrop, A. Kumar, E. G. Hohenstein,
    B. P. Pritchard, B. R. Brooks, H. F. Schaefer III, A. Yu. Sokolov,
    K. Patkowski, A. E. DePrince III, U. Bozkaya, R. A. King,
    F. A. Evangelista, J. M. Turney, T. D. Crawford, C. D. Sherrill,
    J. Chem. Phys. 152(18) 184108 (2020). https://doi.org/10.1063/5.0006002

                            Additional Code Authors
    E. T. Seidl, C. L. Janssen, E. F. Valeev, M. L. Leininger,
    J. F. Gonthier, R. M. Richard, H. R. McAlexander, M. Saitow, X. Wang,
    P. Verma, M. H. Lechner, A. Jiang, S. Behnle, A. G. Heide,
    M. F. Herbst, and D. L. Poole

             Previous Authors, Complete List of Code Contributors,
                       and Citations for Specific Modules
    https://github.com/psi4/psi4/blob/master/codemeta.json
    https://github.com/psi4/psi4/graphs/contributors
    http://psicode.org/psi4manual/master/introduction.html#citing-psifour

    -----------------------------------------------------------------------


    Psi4 started on: Monday, 22 January 2024 09:46PM

    Process ID: 110955
    Host:       ddmfs1
    PSIDATADIR: /ddmfs1b/softs/psi4conda/share/psi4
    Memory:     500.0 MiB
    Threads:    20
    
  ==> Input File <==

--------------------------------------------------------------------------
MEMORY 60 GB

molecule dimer {
0 1
Gh(Br)     0.000000     0.000000     0.000000
Gh(O)      3.099023     0.340281     1.397133
Gh(H)      2.306734     0.381405     0.878260
Gh(H)      3.844115     0.047231     0.936605
Gh(O)      1.127680     3.159671     0.522464
Gh(H)      1.378824     3.076014     1.435986
Gh(H)      0.893393     2.283071     0.250242
Gh(O)      0.153067    -3.161383    -1.487612
Gh(H)      0.216689    -2.247035    -1.168259
Gh(H)      0.001661    -3.027025    -2.433230
Gh(O)     -2.154109     1.418877    -2.303659
Gh(H)     -2.330310     0.966645    -3.084746
Gh(H)     -1.379206     0.970868    -1.937812
O         -0.699327     0.060744     3.039694
H         -0.594770     0.380454     2.170591
H          0.152358    -0.312270     3.329137
Gh(O)      0.885237     0.524743    -3.039093
Gh(H)      0.866842     0.462270    -2.115711
Gh(H)      0.908147     1.420376    -3.360499

units ang
no_reorient
no_com
symmetry c1
}

set {
basis        aug-cc-pVTZ
scf_type     df
}

energy("mp2")
--------------------------------------------------------------------------

  Memory set to  55.879 GiB by Python driver.

Scratch directory: /ddmfs1a/scratch/
   => Libint2 <=

    Primary   basis highest AM E, G, H:  5, 4, 3
    Auxiliary basis highest AM E, G, H:  6, 5, 4
    Onebody   basis highest AM E, G, H:  6, 5, 4
    Solid Harmonics ordering:            gaussian

*** tstart() called on ddmfs1
*** at Mon Jan 22 21:46:16 2024

   => Loading Basis Set <=

    Name: AUG-CC-PVTZ
    Role: ORBITAL
    Keyword: BASIS
    atoms 1                                   entry BR         line  4208 file /ddmfs1b/softs/psi4conda/share/psi4/basis/aug-cc-pvtz.gbs 
    atoms 2, 5, 8, 11, 14, 17                 entry O          line   331 file /ddmfs1b/softs/psi4conda/share/psi4/basis/aug-cc-pvtz.gbs 
    atoms 3-4, 6-7, 9-10, 12-13, 15-16, 18-19 entry H          line    40 file /ddmfs1b/softs/psi4conda/share/psi4/basis/aug-cc-pvtz.gbs 


         ---------------------------------------------------------
                                   SCF
               by Justin Turney, Rob Parrish, Andy Simmonett
                          and Daniel G. A. Smith
                              RHF Reference
                       20 Threads,  57220 MiB Core
         ---------------------------------------------------------

  ==> Geometry <==

    Molecular point group: c1
    Full point group: C1

    Geometry (in Angstrom), charge = 0, multiplicity = 1:

       Center              X                  Y                   Z               Mass       
    ------------   -----------------  -----------------  -----------------  -----------------
      Gh(BR)          0.000000000000     0.000000000000     0.000000000000    78.918337600000
      Gh(O)           3.099023000000     0.340281000000     1.397133000000    15.994914619570
      Gh(H)           2.306734000000     0.381405000000     0.878260000000     1.007825032230
      Gh(H)           3.844115000000     0.047231000000     0.936605000000     1.007825032230
      Gh(O)           1.127680000000     3.159671000000     0.522464000000    15.994914619570
      Gh(H)           1.378824000000     3.076014000000     1.435986000000     1.007825032230
      Gh(H)           0.893393000000     2.283071000000     0.250242000000     1.007825032230
      Gh(O)           0.153067000000    -3.161383000000    -1.487612000000    15.994914619570
      Gh(H)           0.216689000000    -2.247035000000    -1.168259000000     1.007825032230
      Gh(H)           0.001661000000    -3.027025000000    -2.433230000000     1.007825032230
      Gh(O)          -2.154109000000     1.418877000000    -2.303659000000    15.994914619570
      Gh(H)          -2.330310000000     0.966645000000    -3.084746000000     1.007825032230
      Gh(H)          -1.379206000000     0.970868000000    -1.937812000000     1.007825032230
         O           -0.699327000000     0.060744000000     3.039694000000    15.994914619570
         H           -0.594770000000     0.380454000000     2.170591000000     1.007825032230
         H            0.152358000000    -0.312270000000     3.329137000000     1.007825032230
      Gh(O)           0.885237000000     0.524743000000    -3.039093000000    15.994914619570
      Gh(H)           0.866842000000     0.462270000000    -2.115711000000     1.007825032230
      Gh(H)           0.908147000000     1.420376000000    -3.360499000000     1.007825032230

  Running in c1 symmetry.

  Rotational constants: A =      0.02608  B =      0.02054  C =      0.01805 [cm^-1]
  Rotational constants: A =    781.82897  B =    615.67059  C =    541.00137 [MHz]
  Nuclear repulsion =    9.232969007468498

  Charge       = 0
  Multiplicity = 1
  Electrons    = 10
  Nalpha       = 5
  Nbeta        = 5

  ==> Algorithm <==

  SCF Algorithm Type is DF.
  DIIS enabled.
  MOM disabled.
  Fractional occupation disabled.
  Guess Type is SAD.
  Energy threshold   = 1.00e-08
  Density threshold  = 1.00e-08
  Integral threshold = 1.00e-12

  ==> Primary Basis <==

  Basis Set: AUG-CC-PVTZ
    Blend: AUG-CC-PVTZ
    Number of shells: 211
    Number of basis functions: 611
    Number of Cartesian functions: 699
    Spherical Harmonics?: true
    Max angular momentum: 3

   => Loading Basis Set <=

    Name: (AUG-CC-PVTZ AUX)
    Role: JKFIT
    Keyword: DF_BASIS_SCF
    atoms 1                                   entry BR         line  1492 file /ddmfs1b/softs/psi4conda/share/psi4/basis/aug-cc-pvtz-jkfit.gbs 
    atoms 2, 5, 8, 11, 14, 17                 entry O          line   286 file /ddmfs1b/softs/psi4conda/share/psi4/basis/aug-cc-pvtz-jkfit.gbs 
    atoms 3-4, 6-7, 9-10, 12-13, 15-16, 18-19 entry H          line    70 file /ddmfs1b/softs/psi4conda/share/psi4/basis/aug-cc-pvtz-jkfit.gbs 

  ==> Integral Setup <==

  DFHelper Memory: AOs need 3.480 GiB; user supplied 41.910 GiB. 
  Using in-core AOs.

  ==> MemDFJK: Density-Fitted J/K Matrices <==

    J tasked:                   Yes
    K tasked:                   Yes
    wK tasked:                   No
    OpenMP threads:              20
    Memory [MiB]:             42915
    Algorithm:                 Core
    Schwarz Cutoff:           1E-12
    Mask sparsity (%):      15.8325
    Fitting Condition:        1E-10

   => Auxiliary Basis Set <=

  Basis Set: (AUG-CC-PVTZ AUX)
    Blend: AUG-CC-PVTZ-JKFIT
    Number of shells: 406
    Number of basis functions: 1424
    Number of Cartesian functions: 1775
    Spherical Harmonics?: true
    Max angular momentum: 4

  Minimum eigenvalue in the overlap matrix is 1.2292229406E-04.
  Reciprocal condition number of the overlap matrix is 9.2132163334E-06.
    Using symmetric orthogonalization.

  ==> Pre-Iterations <==

  SCF Guess: Superposition of Atomic Densities via on-the-fly atomic UHF (no occupation information).

   -------------------------
    Irrep   Nso     Nmo    
   -------------------------
     A        611     611 
   -------------------------
    Total     611     611
   -------------------------

  ==> Iterations <==

                           Total Energy        Delta E     RMS |[F,P]|

   @DF-RHF iter SAD:   -75.47898473717393   -7.54790e+01   0.00000e+00 
   @DF-RHF iter   1:   -75.97597827037887   -4.96994e-01   7.68795e-04 ADIIS/DIIS
   @DF-RHF iter   2:   -76.02870772628886   -5.27295e-02   5.18710e-04 ADIIS/DIIS
   @DF-RHF iter   3:   -76.05952662239658   -3.08189e-02   3.52579e-05 DIIS
   @DF-RHF iter   4:   -76.05991405794755   -3.87436e-04   8.35263e-06 DIIS
   @DF-RHF iter   5:   -76.05993754287208   -2.34849e-05   1.88872e-06 DIIS
   @DF-RHF iter   6:   -76.05993947412269   -1.93125e-06   4.22313e-07 DIIS
   @DF-RHF iter   7:   -76.05993958158123   -1.07459e-07   7.95985e-08 DIIS
   @DF-RHF iter   8:   -76.05993958496730   -3.38606e-09   1.31424e-08 DIIS
   @DF-RHF iter   9:   -76.05993958504008   -7.27880e-11   3.28031e-09 DIIS
  Energy and wave function converged.


  ==> Post-Iterations <==

    Orbital Energies [Eh]
    ---------------------

    Doubly Occupied:                                                      

       1A    -20.564642     2A     -1.353690     3A     -0.727152  
       4A     -0.578612     5A     -0.509684  

    Virtual:                                                              

       6A      0.013117     7A      0.027693     8A      0.033768  
       9A      0.038393    10A      0.048318    11A      0.051444  
      12A      0.052412    13A      0.065649    14A      0.068754  
      15A      0.073423    16A      0.079915    17A      0.086104  
      18A      0.097455    19A      0.107373    20A      0.115584  
      21A      0.117993    22A      0.130126    23A      0.136315  
      24A      0.140051    25A      0.144700    26A      0.146504  
      27A      0.152658    28A      0.158010    29A      0.164768  
      30A      0.172025    31A      0.175801    32A      0.178863  
      33A      0.183418    34A      0.185971    35A      0.193985  
      36A      0.197616    37A      0.203261    38A      0.207704  
      39A      0.214009    40A      0.217411    41A      0.225042  
      42A      0.234466    43A      0.237945    44A      0.239223  
      45A      0.254858    46A      0.257826    47A      0.269159  
      48A      0.274319    49A      0.281738    50A      0.284727  
      51A      0.292687    52A      0.295903    53A      0.307010  
      54A      0.310596    55A      0.318470    56A      0.324339  
      57A      0.327202    58A      0.333329    59A      0.338887  
      60A      0.341582    61A      0.349177    62A      0.350831  
      63A      0.357858    64A      0.360381    65A      0.363130  
      66A      0.375343    67A      0.379740    68A      0.382784  
      69A      0.392085    70A      0.394876    71A      0.404167  
      72A      0.407035    73A      0.411692    74A      0.414061  
      75A      0.420338    76A      0.423697    77A      0.434573  
      78A      0.440499    79A      0.447175    80A      0.452803  
      81A      0.463402    82A      0.469855    83A      0.477777  
      84A      0.484760    85A      0.496285    86A      0.501896  
      87A      0.506333    88A      0.520782    89A      0.528412  
      90A      0.534011    91A      0.547249    92A      0.564257  
      93A      0.575713    94A      0.583942    95A      0.596237  
      96A      0.606122    97A      0.611163    98A      0.620103  
      99A      0.630896   100A      0.640550   101A      0.650651  
     102A      0.660776   103A      0.687683   104A      0.693788  
     105A      0.702942   106A      0.708461   107A      0.713963  
     108A      0.721146   109A      0.736557   110A      0.741039  
     111A      0.751879   112A      0.758912   113A      0.762468  
     114A      0.769026   115A      0.770855   116A      0.779576  
     117A      0.783563   118A      0.786468   119A      0.790996  
     120A      0.803037   121A      0.811054   122A      0.814681  
     123A      0.818820   124A      0.823191   125A      0.826523  
     126A      0.830481   127A      0.838437   128A      0.845095  
     129A      0.847256   130A      0.853581   131A      0.859602  
     132A      0.868366   133A      0.875350   134A      0.879687  
     135A      0.882314   136A      0.890044   137A      0.902041  
     138A      0.906260   139A      0.907494   140A      0.913067  
     141A      0.915835   142A      0.924474   143A      0.930914  
     144A      0.936538   145A      0.941815   146A      0.943460  
     147A      0.949247   148A      0.952819   149A      0.959832  
     150A      0.964306   151A      0.972700   152A      0.977006  
     153A      0.987610   154A      0.992291   155A      0.995068  
     156A      1.003278   157A      1.006005   158A      1.014307  
     159A      1.019571   160A      1.023562   161A      1.026414  
     162A      1.031017   163A      1.036734   164A      1.044063  
     165A      1.045751   166A      1.051885   167A      1.058424  
     168A      1.066790   169A      1.073040   170A      1.078106  
     171A      1.082276   172A      1.092672   173A      1.098187  
     174A      1.103497   175A      1.109162   176A      1.114769  
     177A      1.120453   178A      1.130520   179A      1.139518  
     180A      1.140157   181A      1.148866   182A      1.155996  
     183A      1.169783   184A      1.181426   185A      1.185733  
     186A      1.198547   187A      1.202108   188A      1.206516  
     189A      1.208734   190A      1.214866   191A      1.228507  
     192A      1.238195   193A      1.242875   194A      1.245914  
     195A      1.259033   196A      1.265885   197A      1.277777  
     198A      1.284894   199A      1.298268   200A      1.308249  
     201A      1.315002   202A      1.318864   203A      1.335098  
     204A      1.347830   205A      1.354158   206A      1.357383  
     207A      1.367359   208A      1.383611   209A      1.394024  
     210A      1.400643   211A      1.417928   212A      1.427720  
     213A      1.433932   214A      1.455234   215A      1.469209  
     216A      1.481522   217A      1.485346   218A      1.491980  
     219A      1.496699   220A      1.529275   221A      1.535464  
     222A      1.538621   223A      1.548914   224A      1.558103  
     225A      1.565385   226A      1.569861   227A      1.577225  
     228A      1.591199   229A      1.602657   230A      1.621097  
     231A      1.639526   232A      1.648825   233A      1.676146  
     234A      1.690457   235A      1.694769   236A      1.711402  
     237A      1.715621   238A      1.724714   239A      1.738867  
     240A      1.743757   241A      1.751295   242A      1.754082  
     243A      1.771721   244A      1.786196   245A      1.794733  
     246A      1.796577   247A      1.806831   248A      1.819199  
     249A      1.827852   250A      1.829474   251A      1.838261  
     252A      1.850493   253A      1.854584   254A      1.867163  
     255A      1.878832   256A      1.898240   257A      1.901284  
     258A      1.910179   259A      1.921493   260A      1.936709  
     261A      1.948030   262A      1.955063   263A      1.960254  
     264A      1.969019   265A      1.987721   266A      1.998637  
     267A      2.009907   268A      2.024299   269A      2.028802  
     270A      2.046085   271A      2.060670   272A      2.075817  
     273A      2.096504   274A      2.149133   275A      2.182698  
     276A      2.210056   277A      2.212446   278A      2.256430  
     279A      2.294191   280A      2.351971   281A      2.409611  
     282A      2.440011   283A      2.448511   284A      2.462405  
     285A      2.470648   286A      2.473426   287A      2.482492  
     288A      2.486095   289A      2.488546   290A      2.498205  
     291A      2.499568   292A      2.505785   293A      2.515631  
     294A      2.536643   295A      2.548077   296A      2.553785  
     297A      2.563491   298A      2.569901   299A      2.594110  
     300A      2.601067   301A      2.608107   302A      2.627673  
     303A      2.633077   304A      2.648476   305A      2.656906  
     306A      2.661622   307A      2.666874   308A      2.675278  
     309A      2.684906   310A      2.700523   311A      2.708102  
     312A      2.724157   313A      2.726021   314A      2.732693  
     315A      2.740857   316A      2.751938   317A      2.763713  
     318A      2.774758   319A      2.785931   320A      2.789086  
     321A      2.798042   322A      2.824975   323A      2.827148  
     324A      2.839484   325A      2.856759   326A      2.878023  
     327A      2.900056   328A      2.920524   329A      2.945899  
     330A      2.948912   331A      2.976297   332A      2.996385  
     333A      3.005009   334A      3.022469   335A      3.059713  
     336A      3.074056   337A      3.084573   338A      3.167451  
     339A      3.181435   340A      3.197648   341A      3.208726  
     342A      3.218163   343A      3.222261   344A      3.244732  
     345A      3.249610   346A      3.252832   347A      3.269712  
     348A      3.279191   349A      3.286570   350A      3.296705  
     351A      3.305370   352A      3.315392   353A      3.339614  
     354A      3.340061   355A      3.398812   356A      3.412498  
     357A      3.441421   358A      3.443452   359A      3.455664  
     360A      3.466499   361A      3.481978   362A      3.489992  
     363A      3.504524   364A      3.525362   365A      3.552581  
     366A      3.564776   367A      3.575209   368A      3.595685  
     369A      3.605892   370A      3.616934   371A      3.627208  
     372A      3.637329   373A      3.650800   374A      3.680486  
     375A      3.690018   376A      3.701204   377A      3.719666  
     378A      3.736768   379A      3.758432   380A      3.779555  
     381A      3.797174   382A      3.834691   383A      3.858570  
     384A      3.888598   385A      3.920945   386A      3.936197  
     387A      3.966104   388A      4.031916   389A      4.033898  
     390A      4.083549   391A      4.212947   392A      4.300346  
     393A      4.306547   394A      4.347245   395A      4.390296  
     396A      4.401189   397A      4.418201   398A      4.436143  
     399A      4.442859   400A      4.460222   401A      4.465365  
     402A      4.486802   403A      4.496296   404A      4.504372  
     405A      4.511890   406A      4.513583   407A      4.529893  
     408A      4.541243   409A      4.558169   410A      4.570753  
     411A      4.578440   412A      4.587035   413A      4.603056  
     414A      4.617815   415A      4.657245   416A      4.672062  
     417A      4.687856   418A      4.705352   419A      4.712939  
     420A      4.734054   421A      4.736234   422A      4.745012  
     423A      4.757691   424A      4.769835   425A      4.786797  
     426A      4.790892   427A      4.836580   428A      4.858961  
     429A      4.878683   430A      4.883581   431A      4.891616  
     432A      4.901339   433A      4.918225   434A      4.926022  
     435A      4.929676   436A      4.940403   437A      4.944177  
     438A      4.946820   439A      4.974017   440A      4.998002  
     441A      5.007214   442A      5.047241   443A      5.085529  
     444A      5.114246   445A      5.147115   446A      5.178019  
     447A      5.195812   448A      5.201179   449A      5.222884  
     450A      5.247663   451A      5.287440   452A      5.320382  
     453A      5.345590   454A      5.382358   455A      5.466211  
     456A      5.556424   457A      5.579441   458A      5.591157  
     459A      5.598346   460A      5.607057   461A      5.617592  
     462A      5.622596   463A      5.631332   464A      5.659468  
     465A      5.667998   466A      5.686464   467A      5.697438  
     468A      5.725664   469A      5.789880   470A      5.802491  
     471A      5.822207   472A      5.832824   473A      5.899749  
     474A      5.907474   475A      5.931143   476A      5.934405  
     477A      5.975372   478A      6.142140   479A      6.160562  
     480A      6.172465   481A      6.210716   482A      6.221232  
     483A      6.231473   484A      6.404343   485A      6.476398  
     486A      6.510188   487A      6.536645   488A      6.557790  
     489A      6.577480   490A      6.637670   491A      6.778084  
     492A      6.799470   493A      6.803782   494A      6.936205  
     495A      7.001757   496A      7.046028   497A      7.077380  
     498A      7.179799   499A      7.193286   500A      7.206852  
     501A      7.238426   502A      7.265149   503A      7.296930  
     504A      7.361247   505A      7.388845   506A      7.464012  
     507A      7.508436   508A      7.706283   509A      7.713486  
     510A      7.726670   511A      7.745591   512A      7.772056  
     513A      7.777728   514A      7.786766   515A      7.830800  
     516A      7.880331   517A      7.887250   518A      7.903832  
     519A      8.001290   520A      8.032051   521A      8.077040  
     522A      8.118108   523A      8.153757   524A      8.164238  
     525A      8.181700   526A      8.219729   527A      8.270152  
     528A      8.281636   529A      8.288288   530A      8.317807  
     531A      8.328676   532A      8.341050   533A      8.363368  
     534A      8.447851   535A      8.460005   536A      8.767107  
     537A      8.842512   538A      8.871511   539A      8.895943  
     540A      8.905986   541A      8.939907   542A      8.954430  
     543A      9.067140   544A      9.101733   545A      9.236740  
     546A      9.286754   547A      9.696206   548A      9.724918  
     549A      9.760420   550A      9.791245   551A      9.831907  
     552A      9.863086   553A      9.865925   554A      9.892800  
     555A      9.906549   556A      9.945869   557A     10.049189  
     558A     10.080483   559A     10.104950   560A     10.127668  
     561A     10.137509   562A     10.263619   563A     10.293726  
     564A     10.327541   565A     10.356996   566A     10.368441  
     567A     11.209851   568A     11.263132   569A     11.273698  
     570A     11.308659   571A     11.317269   572A     11.400922  
     573A     11.699937   574A     11.774297   575A     11.826749  
     576A     11.838880   577A     11.949348   578A     12.081744  
     579A     12.331943   580A     12.405285   581A     12.422343  
     582A     12.451395   583A     13.567511   584A     13.709958  
     585A     13.746721   586A     13.844030   587A     13.879439  
     588A     13.890331   589A     13.965377   590A     13.988648  
     591A     14.013138   592A     14.081897   593A     14.100234  
     594A     14.169939   595A     14.223367   596A     17.014949  
     597A     26.401072   598A     26.421265   599A     26.476939  
     600A     26.748717   601A     26.829162   602A     46.730212  
     603A     65.793073   604A     67.044037   605A     67.583263  
     606A     67.979792   607A     68.568743   608A    139.143619  
     609A    139.343437   610A    139.594423   611A    712.588960  

    Final Occupation by Irrep:
              A 
    DOCC [     5 ]
    NA   [     5 ]
    NB   [     5 ]

  @DF-RHF Final Energy:   -76.05993958504008

   => Energetics <=

    Nuclear Repulsion Energy =              9.2329690074684976
    One-Electron Energy =                -123.1182561608503647
    Two-Electron Energy =                  37.8253475683417761
    Total Energy =                        -76.0599395850400981

Computation Completed


Properties will be evaluated at   0.000000,   0.000000,   0.000000 [a0]

Properties computed using the SCF density matrix


 Multipole Moments:

 ------------------------------------------------------------------------------------
     Multipole            Electronic (a.u.)      Nuclear  (a.u.)        Total (a.u.)
 ------------------------------------------------------------------------------------

 L = 1.  Multiply by 2.5417464519 to convert [e a0] to [Debye]
 Dipole X            :         12.0501194          -11.4083295            0.6417899
 Dipole Y            :         -1.0800126            1.0471653           -0.0328473
 Dipole Z            :        -56.7428782           56.3464930           -0.3963852
 Magnitude           :                                                    0.7550460

 ------------------------------------------------------------------------------------

*** tstop() called on ddmfs1 at Mon Jan 22 21:46:28 2024
Module time:
	user time   =     144.89 seconds =       2.41 minutes
	system time =       9.06 seconds =       0.15 minutes
	total time  =         12 seconds =       0.20 minutes
Total time:
	user time   =     144.89 seconds =       2.41 minutes
	system time =       9.06 seconds =       0.15 minutes
	total time  =         12 seconds =       0.20 minutes

*** tstart() called on ddmfs1
*** at Mon Jan 22 21:46:28 2024


  //>>>>>>>>>>>>>>>>>>>>>>>>>>>>>>>>>>>//
  //               DFMP2               //
  //<<<<<<<<<<<<<<<<<<<<<<<<<<<<<<<<<<<//

   => Loading Basis Set <=

    Name: (AUG-CC-PVTZ AUX)
    Role: RIFIT
    Keyword: DF_BASIS_MP2
    atoms 1                                   entry BR         line  1248 file /ddmfs1b/softs/psi4conda/share/psi4/basis/aug-cc-pvtz-ri.gbs 
    atoms 2, 5, 8, 11, 14, 17                 entry O          line   264 file /ddmfs1b/softs/psi4conda/share/psi4/basis/aug-cc-pvtz-ri.gbs 
    atoms 3-4, 6-7, 9-10, 12-13, 15-16, 18-19 entry H          line    30 file /ddmfs1b/softs/psi4conda/share/psi4/basis/aug-cc-pvtz-ri.gbs 

	 --------------------------------------------------------
	                          DF-MP2                         
	      2nd-Order Density-Fitted Moller-Plesset Theory     
	              RMP2 Wavefunction,  20 Threads             
	                                                         
	        Rob Parrish, Justin Turney, Andy Simmonett,      
	           Ed Hohenstein, and C. David Sherrill          
	 --------------------------------------------------------

   => Auxiliary Basis Set <=

  Basis Set: (AUG-CC-PVTZ AUX)
    Blend: AUG-CC-PVTZ-RI
    Number of shells: 379
    Number of basis functions: 1379
    Number of Cartesian functions: 1737
    Spherical Harmonics?: true
    Max angular momentum: 5

	 --------------------------------------------------------
	                 NBF =   611, NAUX =  1379
	 --------------------------------------------------------
	   CLASS    FOCC     OCC    AOCC    AVIR     VIR    FVIR
	   PAIRS       0       5       5     606     606       0
	 --------------------------------------------------------

	-----------------------------------------------------------
	 ==================> DF-MP2 Energies <==================== 
	-----------------------------------------------------------
	 Reference Energy          =     -76.0599395850400839 [Eh]
	 Singles Energy            =      -0.0000000000000000 [Eh]
	 Same-Spin Energy          =      -0.0682570509515641 [Eh]
	 Opposite-Spin Energy      =      -0.2154740227024827 [Eh]
	 Correlation Energy        =      -0.2837310736540467 [Eh]
	 Total Energy              =     -76.3436706586941369 [Eh]
	-----------------------------------------------------------
	 ================> DF-SCS-MP2 Energies <================== 
	-----------------------------------------------------------
	 SCS Same-Spin Scale       =       0.3333333333333333 [-]
	 SCS Opposite-Spin Scale   =       1.2000000000000000 [-]
	 SCS Same-Spin Energy      =      -0.0227523503171880 [Eh]
	 SCS Opposite-Spin Energy  =      -0.2585688272429792 [Eh]
	 SCS Correlation Energy    =      -0.2813211775601672 [Eh]
	 SCS Total Energy          =     -76.3412607626002568 [Eh]
	-----------------------------------------------------------


*** tstop() called on ddmfs1 at Mon Jan 22 21:46:41 2024
Module time:
	user time   =      44.19 seconds =       0.74 minutes
	system time =       3.06 seconds =       0.05 minutes
	total time  =         13 seconds =       0.22 minutes
Total time:
	user time   =     189.10 seconds =       3.15 minutes
	system time =      12.12 seconds =       0.20 minutes
	total time  =         25 seconds =       0.42 minutes

    Psi4 stopped on: Monday, 22 January 2024 09:46PM
    Psi4 wall time for execution: 0:00:24.95

*** Psi4 exiting successfully. Buy a developer a beer!
