
    -----------------------------------------------------------------------
          Psi4: An Open-Source Ab Initio Electronic Structure Package
                               Psi4 1.8.2 release

                         Git: Rev {} zzzzzzz 


    D. G. A. Smith, L. A. Burns, A. C. Simmonett, R. M. Parrish,
    M. C. Schieber, R. Galvelis, P. Kraus, H. Kruse, R. Di Remigio,
    A. Alenaizan, A. M. James, S. Lehtola, J. P. Misiewicz, M. Scheurer,
    R. A. Shaw, J. B. Schriber, Y. Xie, Z. L. Glick, D. A. Sirianni,
    J. S. O'Brien, J. M. Waldrop, A. Kumar, E. G. Hohenstein,
    B. P. Pritchard, B. R. Brooks, H. F. Schaefer III, A. Yu. Sokolov,
    K. Patkowski, A. E. DePrince III, U. Bozkaya, R. A. King,
    F. A. Evangelista, J. M. Turney, T. D. Crawford, C. D. Sherrill,
    J. Chem. Phys. 152(18) 184108 (2020). https://doi.org/10.1063/5.0006002

                            Additional Code Authors
    E. T. Seidl, C. L. Janssen, E. F. Valeev, M. L. Leininger,
    J. F. Gonthier, R. M. Richard, H. R. McAlexander, M. Saitow, X. Wang,
    P. Verma, M. H. Lechner, A. Jiang, S. Behnle, A. G. Heide,
    M. F. Herbst, and D. L. Poole

             Previous Authors, Complete List of Code Contributors,
                       and Citations for Specific Modules
    https://github.com/psi4/psi4/blob/master/codemeta.json
    https://github.com/psi4/psi4/graphs/contributors
    http://psicode.org/psi4manual/master/introduction.html#citing-psifour

    -----------------------------------------------------------------------


    Psi4 started on: Monday, 22 January 2024 11:02PM

    Process ID: 115510
    Host:       ddmfs1
    PSIDATADIR: /ddmfs1b/softs/psi4conda/share/psi4
    Memory:     500.0 MiB
    Threads:    20
    
  ==> Input File <==

--------------------------------------------------------------------------
MEMORY 60 GB

molecule dimer {
0 1
Gh(Br)     0.000000     0.000000     0.000000
Gh(O)     -0.379237     2.882694    -2.014268
Gh(H)      0.562370     3.245775    -1.893921
Gh(H)     -0.429436     2.146345    -1.405238
Gh(O)      0.265547    -2.152641    -2.556446
Gh(H)      0.109230    -1.512354    -1.853273
Gh(H)     -0.395724    -2.804868    -2.310221
Gh(O)      2.476012     1.824756     1.189733
Gh(H)      1.692344     1.651069     0.621015
Gh(H)      2.748789     2.618981     0.811553
O          2.562109    -2.156767    -0.903197
H          2.064666    -2.905687    -1.220072
H          1.839878    -1.556832    -0.648916

units ang
no_reorient
no_com
symmetry c1
}

set {
basis        aug-cc-pVTZ
scf_type     df
}

energy("mp2")
--------------------------------------------------------------------------

  Memory set to  55.879 GiB by Python driver.

Scratch directory: /ddmfs1a/scratch/
   => Libint2 <=

    Primary   basis highest AM E, G, H:  5, 4, 3
    Auxiliary basis highest AM E, G, H:  6, 5, 4
    Onebody   basis highest AM E, G, H:  6, 5, 4
    Solid Harmonics ordering:            gaussian

*** tstart() called on ddmfs1
*** at Mon Jan 22 23:02:20 2024

   => Loading Basis Set <=

    Name: AUG-CC-PVTZ
    Role: ORBITAL
    Keyword: BASIS
    atoms 1                     entry BR         line  4208 file /ddmfs1b/softs/psi4conda/share/psi4/basis/aug-cc-pvtz.gbs 
    atoms 2, 5, 8, 11           entry O          line   331 file /ddmfs1b/softs/psi4conda/share/psi4/basis/aug-cc-pvtz.gbs 
    atoms 3-4, 6-7, 9-10, 12-13 entry H          line    40 file /ddmfs1b/softs/psi4conda/share/psi4/basis/aug-cc-pvtz.gbs 


         ---------------------------------------------------------
                                   SCF
               by Justin Turney, Rob Parrish, Andy Simmonett
                          and Daniel G. A. Smith
                              RHF Reference
                       20 Threads,  57220 MiB Core
         ---------------------------------------------------------

  ==> Geometry <==

    Molecular point group: c1
    Full point group: C1

    Geometry (in Angstrom), charge = 0, multiplicity = 1:

       Center              X                  Y                   Z               Mass       
    ------------   -----------------  -----------------  -----------------  -----------------
      Gh(BR)          0.000000000000     0.000000000000     0.000000000000    78.918337600000
      Gh(O)          -0.379237000000     2.882694000000    -2.014268000000    15.994914619570
      Gh(H)           0.562370000000     3.245775000000    -1.893921000000     1.007825032230
      Gh(H)          -0.429436000000     2.146345000000    -1.405238000000     1.007825032230
      Gh(O)           0.265547000000    -2.152641000000    -2.556446000000    15.994914619570
      Gh(H)           0.109230000000    -1.512354000000    -1.853273000000     1.007825032230
      Gh(H)          -0.395724000000    -2.804868000000    -2.310221000000     1.007825032230
      Gh(O)           2.476012000000     1.824756000000     1.189733000000    15.994914619570
      Gh(H)           1.692344000000     1.651069000000     0.621015000000     1.007825032230
      Gh(H)           2.748789000000     2.618981000000     0.811553000000     1.007825032230
         O            2.562109000000    -2.156767000000    -0.903197000000    15.994914619570
         H            2.064666000000    -2.905687000000    -1.220072000000     1.007825032230
         H            1.839878000000    -1.556832000000    -0.648916000000     1.007825032230

  Running in c1 symmetry.

  Rotational constants: A =      0.04051  B =      0.02838  C =      0.02604 [cm^-1]
  Rotational constants: A =   1214.54627  B =    850.83497  C =    780.70605 [MHz]
  Nuclear repulsion =    9.150096446208257

  Charge       = 0
  Multiplicity = 1
  Electrons    = 10
  Nalpha       = 5
  Nbeta        = 5

  ==> Algorithm <==

  SCF Algorithm Type is DF.
  DIIS enabled.
  MOM disabled.
  Fractional occupation disabled.
  Guess Type is SAD.
  Energy threshold   = 1.00e-08
  Density threshold  = 1.00e-08
  Integral threshold = 1.00e-12

  ==> Primary Basis <==

  Basis Set: AUG-CC-PVTZ
    Blend: AUG-CC-PVTZ
    Number of shells: 147
    Number of basis functions: 427
    Number of Cartesian functions: 489
    Spherical Harmonics?: true
    Max angular momentum: 3

   => Loading Basis Set <=

    Name: (AUG-CC-PVTZ AUX)
    Role: JKFIT
    Keyword: DF_BASIS_SCF
    atoms 1                     entry BR         line  1492 file /ddmfs1b/softs/psi4conda/share/psi4/basis/aug-cc-pvtz-jkfit.gbs 
    atoms 2, 5, 8, 11           entry O          line   286 file /ddmfs1b/softs/psi4conda/share/psi4/basis/aug-cc-pvtz-jkfit.gbs 
    atoms 3-4, 6-7, 9-10, 12-13 entry H          line    70 file /ddmfs1b/softs/psi4conda/share/psi4/basis/aug-cc-pvtz-jkfit.gbs 

  ==> Integral Setup <==

  DFHelper Memory: AOs need 1.305 GiB; user supplied 41.910 GiB. 
  Using in-core AOs.

  ==> MemDFJK: Density-Fitted J/K Matrices <==

    J tasked:                   Yes
    K tasked:                   Yes
    wK tasked:                   No
    OpenMP threads:              20
    Memory [MiB]:             42915
    Algorithm:                 Core
    Schwarz Cutoff:           1E-12
    Mask sparsity (%):      11.9992
    Fitting Condition:        1E-10

   => Auxiliary Basis Set <=

  Basis Set: (AUG-CC-PVTZ AUX)
    Blend: AUG-CC-PVTZ-JKFIT
    Number of shells: 290
    Number of basis functions: 1032
    Number of Cartesian functions: 1293
    Spherical Harmonics?: true
    Max angular momentum: 4

  Minimum eigenvalue in the overlap matrix is 1.4927259255E-04.
  Reciprocal condition number of the overlap matrix is 1.3104519889E-05.
    Using symmetric orthogonalization.

  ==> Pre-Iterations <==

  SCF Guess: Superposition of Atomic Densities via on-the-fly atomic UHF (no occupation information).

   -------------------------
    Irrep   Nso     Nmo    
   -------------------------
     A        427     427 
   -------------------------
    Total     427     427
   -------------------------

  ==> Iterations <==

                           Total Energy        Delta E     RMS |[F,P]|

   @DF-RHF iter SAD:   -75.47548530188018   -7.54755e+01   0.00000e+00 
   @DF-RHF iter   1:   -75.97443502394421   -4.98950e-01   1.09717e-03 DIIS/ADIIS
   @DF-RHF iter   2:   -76.02695752066373   -5.25225e-02   7.53970e-04 DIIS/ADIIS
   @DF-RHF iter   3:   -76.05900615735388   -3.20486e-02   5.11445e-05 DIIS
   @DF-RHF iter   4:   -76.05939748973698   -3.91332e-04   1.23643e-05 DIIS
   @DF-RHF iter   5:   -76.05942280726300   -2.53175e-05   2.85816e-06 DIIS
   @DF-RHF iter   6:   -76.05942492283896   -2.11558e-06   6.19835e-07 DIIS
   @DF-RHF iter   7:   -76.05942503091831   -1.08079e-07   1.06664e-07 DIIS
   @DF-RHF iter   8:   -76.05942503369303   -2.77473e-09   1.77699e-08 DIIS
   @DF-RHF iter   9:   -76.05942503375263   -5.96003e-11   4.24026e-09 DIIS
  Energy and wave function converged.


  ==> Post-Iterations <==

    Orbital Energies [Eh]
    ---------------------

    Doubly Occupied:                                                      

       1A    -20.569843     2A     -1.353533     3A     -0.706961  
       4A     -0.591447     5A     -0.511013  

    Virtual:                                                              

       6A      0.016234     7A      0.031056     8A      0.042110  
       9A      0.045069    10A      0.055564    11A      0.060654  
      12A      0.068641    13A      0.078903    14A      0.087112  
      15A      0.094334    16A      0.108879    17A      0.123001  
      18A      0.123664    19A      0.136275    20A      0.143367  
      21A      0.152091    22A      0.156757    23A      0.159538  
      24A      0.171449    25A      0.177415    26A      0.179297  
      27A      0.182917    28A      0.187095    29A      0.199704  
      30A      0.207451    31A      0.210483    32A      0.232748  
      33A      0.244237    34A      0.249013    35A      0.261048  
      36A      0.268155    37A      0.271423    38A      0.281427  
      39A      0.288800    40A      0.297202    41A      0.306537  
      42A      0.311068    43A      0.316578    44A      0.326412  
      45A      0.335830    46A      0.343693    47A      0.348871  
      48A      0.359863    49A      0.362469    50A      0.370636  
      51A      0.374596    52A      0.381990    53A      0.384710  
      54A      0.394073    55A      0.412925    56A      0.418523  
      57A      0.425145    58A      0.432078    59A      0.440901  
      60A      0.455018    61A      0.460186    62A      0.469737  
      63A      0.482009    64A      0.497067    65A      0.505347  
      66A      0.516361    67A      0.531252    68A      0.545415  
      69A      0.567137    70A      0.572522    71A      0.594465  
      72A      0.604882    73A      0.635671    74A      0.667519  
      75A      0.673220    76A      0.679620    77A      0.685723  
      78A      0.695467    79A      0.716854    80A      0.724823  
      81A      0.736803    82A      0.748834    83A      0.759341  
      84A      0.760151    85A      0.764230    86A      0.779882  
      87A      0.788839    88A      0.796848    89A      0.816183  
      90A      0.822305    91A      0.825359    92A      0.831209  
      93A      0.833555    94A      0.843446    95A      0.845767  
      96A      0.852533    97A      0.863728    98A      0.871342  
      99A      0.877297   100A      0.879922   101A      0.896187  
     102A      0.904330   103A      0.910032   104A      0.913473  
     105A      0.925843   106A      0.932616   107A      0.933991  
     108A      0.946063   109A      0.956232   110A      0.961787  
     111A      0.969149   112A      0.971445   113A      0.990586  
     114A      0.991886   115A      1.001846   116A      1.011054  
     117A      1.021055   118A      1.022654   119A      1.026400  
     120A      1.035016   121A      1.052908   122A      1.055664  
     123A      1.060999   124A      1.074630   125A      1.079156  
     126A      1.083701   127A      1.094744   128A      1.111015  
     129A      1.116343   130A      1.132136   131A      1.138925  
     132A      1.141753   133A      1.159470   134A      1.173605  
     135A      1.175135   136A      1.191090   137A      1.205583  
     138A      1.214107   139A      1.231985   140A      1.237658  
     141A      1.242431   142A      1.262301   143A      1.279292  
     144A      1.285396   145A      1.300213   146A      1.309955  
     147A      1.315358   148A      1.328095   149A      1.343680  
     150A      1.352831   151A      1.365498   152A      1.390740  
     153A      1.392239   154A      1.396062   155A      1.418468  
     156A      1.429309   157A      1.441526   158A      1.446462  
     159A      1.476441   160A      1.490981   161A      1.507984  
     162A      1.542052   163A      1.553852   164A      1.573286  
     165A      1.577868   166A      1.602686   167A      1.621209  
     168A      1.640648   169A      1.658503   170A      1.670122  
     171A      1.702309   172A      1.705732   173A      1.708993  
     174A      1.723411   175A      1.737194   176A      1.753516  
     177A      1.767475   178A      1.773702   179A      1.792420  
     180A      1.812628   181A      1.816491   182A      1.833524  
     183A      1.840298   184A      1.866253   185A      1.889479  
     186A      1.906680   187A      1.920040   188A      1.943266  
     189A      1.947154   190A      1.964900   191A      1.983408  
     192A      1.987418   193A      2.040201   194A      2.078537  
     195A      2.113041   196A      2.222548   197A      2.285653  
     198A      2.368479   199A      2.387258   200A      2.431496  
     201A      2.451678   202A      2.461575   203A      2.464030  
     204A      2.484711   205A      2.493204   206A      2.504271  
     207A      2.525219   208A      2.544113   209A      2.549200  
     210A      2.557070   211A      2.560295   212A      2.586305  
     213A      2.587904   214A      2.603929   215A      2.611492  
     216A      2.616497   217A      2.633382   218A      2.641406  
     219A      2.642572   220A      2.653351   221A      2.669708  
     222A      2.680981   223A      2.696424   224A      2.723260  
     225A      2.744081   226A      2.749765   227A      2.769885  
     228A      2.813369   229A      2.828647   230A      2.860187  
     231A      2.894000   232A      2.915960   233A      2.922147  
     234A      2.934003   235A      2.953693   236A      2.978767  
     237A      3.051423   238A      3.092128   239A      3.129935  
     240A      3.141533   241A      3.152839   242A      3.179072  
     243A      3.185173   244A      3.188885   245A      3.211888  
     246A      3.220655   247A      3.249236   248A      3.271444  
     249A      3.297864   250A      3.314824   251A      3.328628  
     252A      3.343821   253A      3.360807   254A      3.373403  
     255A      3.397880   256A      3.414904   257A      3.433876  
     258A      3.445666   259A      3.466593   260A      3.489567  
     261A      3.509986   262A      3.541673   263A      3.557499  
     264A      3.589490   265A      3.593570   266A      3.637847  
     267A      3.641275   268A      3.658288   269A      3.681798  
     270A      3.758505   271A      3.809195   272A      3.839455  
     273A      3.858033   274A      3.865509   275A      3.959485  
     276A      4.093078   277A      4.144818   278A      4.236679  
     279A      4.272931   280A      4.311361   281A      4.323910  
     282A      4.351066   283A      4.391865   284A      4.418527  
     285A      4.429401   286A      4.452668   287A      4.474190  
     288A      4.491047   289A      4.499566   290A      4.501529  
     291A      4.513972   292A      4.529889   293A      4.559200  
     294A      4.578496   295A      4.580908   296A      4.625579  
     297A      4.647315   298A      4.664770   299A      4.741916  
     300A      4.745374   301A      4.758540   302A      4.784492  
     303A      4.819864   304A      4.865020   305A      4.877100  
     306A      4.880684   307A      4.896450   308A      4.904526  
     309A      4.921075   310A      4.942878   311A      4.963722  
     312A      5.006284   313A      5.029910   314A      5.172858  
     315A      5.183919   316A      5.207360   317A      5.271672  
     318A      5.320369   319A      5.392962   320A      5.407044  
     321A      5.425597   322A      5.446555   323A      5.451684  
     324A      5.551387   325A      5.574021   326A      5.620357  
     327A      5.651746   328A      5.659044   329A      5.660875  
     330A      5.679334   331A      5.733157   332A      5.778536  
     333A      5.787016   334A      5.971606   335A      6.022179  
     336A      6.138871   337A      6.174160   338A      6.196151  
     339A      6.331159   340A      6.348938   341A      6.364456  
     342A      6.382931   343A      6.518530   344A      6.547868  
     345A      6.674091   346A      6.689756   347A      6.849623  
     348A      7.017908   349A      7.036429   350A      7.097399  
     351A      7.157813   352A      7.237896   353A      7.313046  
     354A      7.338898   355A      7.349500   356A      7.426578  
     357A      7.454021   358A      7.677557   359A      7.706384  
     360A      7.730212   361A      7.733099   362A      7.820778  
     363A      7.923912   364A      7.936670   365A      7.951171  
     366A      8.001515   367A      8.006238   368A      8.034194  
     369A      8.118463   370A      8.129530   371A      8.162301  
     372A      8.190561   373A      8.244374   374A      8.334971  
     375A      8.338901   376A      8.663530   377A      8.788629  
     378A      8.855199   379A      8.867074   380A      8.871161  
     381A      8.944292   382A      8.969528   383A      9.647081  
     384A      9.694572   385A      9.772996   386A      9.846038  
     387A      9.872434   388A      9.947159   389A     10.027426  
     390A     10.034741   391A     10.059420   392A     10.271164  
     393A     10.298712   394A     10.328537   395A     10.896867  
     396A     10.988373   397A     11.262874   398A     11.274376  
     399A     11.660211   400A     11.700476   401A     11.886170  
     402A     11.981585   403A     12.222829   404A     12.365872  
     405A     13.414219   406A     13.643018   407A     13.696539  
     408A     13.750162   409A     13.804589   410A     13.894626  
     411A     13.954539   412A     13.982636   413A     14.134953  
     414A     16.554242   415A     26.251527   416A     26.341917  
     417A     26.385811   418A     26.460394   419A     26.670411  
     420A     46.422388   421A     64.800851   422A     65.833951  
     423A     66.699302   424A    138.792830   425A    138.980646  
     426A    139.392583   427A    711.533906  

    Final Occupation by Irrep:
              A 
    DOCC [     5 ]
    NA   [     5 ]
    NB   [     5 ]

  @DF-RHF Final Energy:   -76.05942503375263

   => Energetics <=

    Nuclear Repulsion Energy =              9.1500964462082575
    One-Electron Energy =                -122.9534447881308665
    Two-Electron Energy =                  37.7439233081699825
    Total Energy =                        -76.0594250337526319

Computation Completed


Properties will be evaluated at   0.000000,   0.000000,   0.000000 [a0]

Properties computed using the SCF density matrix


 Multipole Moments:

 ------------------------------------------------------------------------------------
     Multipole            Electronic (a.u.)      Nuclear  (a.u.)        Total (a.u.)
 ------------------------------------------------------------------------------------

 L = 1.  Multiply by 2.5417464519 to convert [e a0] to [Debye]
 Dipole X            :        -46.9112707           46.1119933           -0.7992774
 Dipole Y            :         40.9375616          -41.0385303           -0.1009688
 Dipole Z            :         17.1437584          -17.1862352           -0.0424768
 Magnitude           :                                                    0.8067486

 ------------------------------------------------------------------------------------

*** tstop() called on ddmfs1 at Mon Jan 22 23:02:26 2024
Module time:
	user time   =      69.73 seconds =       1.16 minutes
	system time =       5.63 seconds =       0.09 minutes
	total time  =          6 seconds =       0.10 minutes
Total time:
	user time   =      69.73 seconds =       1.16 minutes
	system time =       5.63 seconds =       0.09 minutes
	total time  =          6 seconds =       0.10 minutes

*** tstart() called on ddmfs1
*** at Mon Jan 22 23:02:26 2024


  //>>>>>>>>>>>>>>>>>>>>>>>>>>>>>>>>>>>//
  //               DFMP2               //
  //<<<<<<<<<<<<<<<<<<<<<<<<<<<<<<<<<<<//

   => Loading Basis Set <=

    Name: (AUG-CC-PVTZ AUX)
    Role: RIFIT
    Keyword: DF_BASIS_MP2
    atoms 1                     entry BR         line  1248 file /ddmfs1b/softs/psi4conda/share/psi4/basis/aug-cc-pvtz-ri.gbs 
    atoms 2, 5, 8, 11           entry O          line   264 file /ddmfs1b/softs/psi4conda/share/psi4/basis/aug-cc-pvtz-ri.gbs 
    atoms 3-4, 6-7, 9-10, 12-13 entry H          line    30 file /ddmfs1b/softs/psi4conda/share/psi4/basis/aug-cc-pvtz-ri.gbs 

	 --------------------------------------------------------
	                          DF-MP2                         
	      2nd-Order Density-Fitted Moller-Plesset Theory     
	              RMP2 Wavefunction,  20 Threads             
	                                                         
	        Rob Parrish, Justin Turney, Andy Simmonett,      
	           Ed Hohenstein, and C. David Sherrill          
	 --------------------------------------------------------

   => Auxiliary Basis Set <=

  Basis Set: (AUG-CC-PVTZ AUX)
    Blend: AUG-CC-PVTZ-RI
    Number of shells: 267
    Number of basis functions: 983
    Number of Cartesian functions: 1245
    Spherical Harmonics?: true
    Max angular momentum: 5

	 --------------------------------------------------------
	                 NBF =   427, NAUX =   983
	 --------------------------------------------------------
	   CLASS    FOCC     OCC    AOCC    AVIR     VIR    FVIR
	   PAIRS       0       5       5     422     422       0
	 --------------------------------------------------------

	-----------------------------------------------------------
	 ==================> DF-MP2 Energies <==================== 
	-----------------------------------------------------------
	 Reference Energy          =     -76.0594250337526319 [Eh]
	 Singles Energy            =      -0.0000000000000000 [Eh]
	 Same-Spin Energy          =      -0.0685872505363920 [Eh]
	 Opposite-Spin Energy      =      -0.2164198749980208 [Eh]
	 Correlation Energy        =      -0.2850071255344128 [Eh]
	 Total Energy              =     -76.3444321592870381 [Eh]
	-----------------------------------------------------------
	 ================> DF-SCS-MP2 Energies <================== 
	-----------------------------------------------------------
	 SCS Same-Spin Scale       =       0.3333333333333333 [-]
	 SCS Opposite-Spin Scale   =       1.2000000000000000 [-]
	 SCS Same-Spin Energy      =      -0.0228624168454640 [Eh]
	 SCS Opposite-Spin Energy  =      -0.2597038499976250 [Eh]
	 SCS Correlation Energy    =      -0.2825662668430889 [Eh]
	 SCS Total Energy          =     -76.3419913005957227 [Eh]
	-----------------------------------------------------------


*** tstop() called on ddmfs1 at Mon Jan 22 23:02:36 2024
Module time:
	user time   =      26.42 seconds =       0.44 minutes
	system time =       2.14 seconds =       0.04 minutes
	total time  =         10 seconds =       0.17 minutes
Total time:
	user time   =      96.16 seconds =       1.60 minutes
	system time =       7.77 seconds =       0.13 minutes
	total time  =         16 seconds =       0.27 minutes

    Psi4 stopped on: Monday, 22 January 2024 11:02PM
    Psi4 wall time for execution: 0:00:15.42

*** Psi4 exiting successfully. Buy a developer a beer!
