
    -----------------------------------------------------------------------
          Psi4: An Open-Source Ab Initio Electronic Structure Package
                               Psi4 1.8.2 release

                         Git: Rev {} zzzzzzz 


    D. G. A. Smith, L. A. Burns, A. C. Simmonett, R. M. Parrish,
    M. C. Schieber, R. Galvelis, P. Kraus, H. Kruse, R. Di Remigio,
    A. Alenaizan, A. M. James, S. Lehtola, J. P. Misiewicz, M. Scheurer,
    R. A. Shaw, J. B. Schriber, Y. Xie, Z. L. Glick, D. A. Sirianni,
    J. S. O'Brien, J. M. Waldrop, A. Kumar, E. G. Hohenstein,
    B. P. Pritchard, B. R. Brooks, H. F. Schaefer III, A. Yu. Sokolov,
    K. Patkowski, A. E. DePrince III, U. Bozkaya, R. A. King,
    F. A. Evangelista, J. M. Turney, T. D. Crawford, C. D. Sherrill,
    J. Chem. Phys. 152(18) 184108 (2020). https://doi.org/10.1063/5.0006002

                            Additional Code Authors
    E. T. Seidl, C. L. Janssen, E. F. Valeev, M. L. Leininger,
    J. F. Gonthier, R. M. Richard, H. R. McAlexander, M. Saitow, X. Wang,
    P. Verma, M. H. Lechner, A. Jiang, S. Behnle, A. G. Heide,
    M. F. Herbst, and D. L. Poole

             Previous Authors, Complete List of Code Contributors,
                       and Citations for Specific Modules
    https://github.com/psi4/psi4/blob/master/codemeta.json
    https://github.com/psi4/psi4/graphs/contributors
    http://psicode.org/psi4manual/master/introduction.html#citing-psifour

    -----------------------------------------------------------------------


    Psi4 started on: Monday, 22 January 2024 11:17PM

    Process ID: 116404
    Host:       ddmfs1
    PSIDATADIR: /ddmfs1b/softs/psi4conda/share/psi4
    Memory:     500.0 MiB
    Threads:    20
    
  ==> Input File <==

--------------------------------------------------------------------------
MEMORY 60 GB

molecule dimer {
0 1
Gh(Br)     0.000000     0.000000     0.000000
Gh(O)     -3.203691    -0.706166     0.782016
Gh(H)     -2.295960    -0.464817     0.667408
Gh(H)     -3.558639    -0.246998     1.530606
Gh(O)     -1.688294    -2.239204    -1.689504
Gh(H)     -1.640223    -2.974459    -1.039912
Gh(H)     -1.367206    -1.475108    -1.153456
O          1.718343    -2.981602     0.227705
H          1.215621    -3.617408     0.840091
H          1.172353    -2.184568     0.147489
Gh(O)     -1.023386     2.101542     2.512944
Gh(H)     -0.754621     1.462034     1.797374
Gh(H)     -0.259077     2.082588     3.154971

units ang
no_reorient
no_com
symmetry c1
}

set {
basis        aug-cc-pVTZ
scf_type     df
}

energy("mp2")
--------------------------------------------------------------------------

  Memory set to  55.879 GiB by Python driver.

Scratch directory: /ddmfs1a/scratch/
   => Libint2 <=

    Primary   basis highest AM E, G, H:  5, 4, 3
    Auxiliary basis highest AM E, G, H:  6, 5, 4
    Onebody   basis highest AM E, G, H:  6, 5, 4
    Solid Harmonics ordering:            gaussian

*** tstart() called on ddmfs1
*** at Mon Jan 22 23:17:35 2024

   => Loading Basis Set <=

    Name: AUG-CC-PVTZ
    Role: ORBITAL
    Keyword: BASIS
    atoms 1                     entry BR         line  4208 file /ddmfs1b/softs/psi4conda/share/psi4/basis/aug-cc-pvtz.gbs 
    atoms 2, 5, 8, 11           entry O          line   331 file /ddmfs1b/softs/psi4conda/share/psi4/basis/aug-cc-pvtz.gbs 
    atoms 3-4, 6-7, 9-10, 12-13 entry H          line    40 file /ddmfs1b/softs/psi4conda/share/psi4/basis/aug-cc-pvtz.gbs 


         ---------------------------------------------------------
                                   SCF
               by Justin Turney, Rob Parrish, Andy Simmonett
                          and Daniel G. A. Smith
                              RHF Reference
                       20 Threads,  57220 MiB Core
         ---------------------------------------------------------

  ==> Geometry <==

    Molecular point group: c1
    Full point group: C1

    Geometry (in Angstrom), charge = 0, multiplicity = 1:

       Center              X                  Y                   Z               Mass       
    ------------   -----------------  -----------------  -----------------  -----------------
      Gh(BR)          0.000000000000     0.000000000000     0.000000000000    78.918337600000
      Gh(O)          -3.203691000000    -0.706166000000     0.782016000000    15.994914619570
      Gh(H)          -2.295960000000    -0.464817000000     0.667408000000     1.007825032230
      Gh(H)          -3.558639000000    -0.246998000000     1.530606000000     1.007825032230
      Gh(O)          -1.688294000000    -2.239204000000    -1.689504000000    15.994914619570
      Gh(H)          -1.640223000000    -2.974459000000    -1.039912000000     1.007825032230
      Gh(H)          -1.367206000000    -1.475108000000    -1.153456000000     1.007825032230
         O            1.718343000000    -2.981602000000     0.227705000000    15.994914619570
         H            1.215621000000    -3.617408000000     0.840091000000     1.007825032230
         H            1.172353000000    -2.184568000000     0.147489000000     1.007825032230
      Gh(O)          -1.023386000000     2.101542000000     2.512944000000    15.994914619570
      Gh(H)          -0.754621000000     1.462034000000     1.797374000000     1.007825032230
      Gh(H)          -0.259077000000     2.082588000000     3.154971000000     1.007825032230

  Running in c1 symmetry.

  Rotational constants: A =      0.04322  B =      0.03237  C =      0.02355 [cm^-1]
  Rotational constants: A =   1295.71081  B =    970.42593  C =    705.89416 [MHz]
  Nuclear repulsion =    8.866559623542086

  Charge       = 0
  Multiplicity = 1
  Electrons    = 10
  Nalpha       = 5
  Nbeta        = 5

  ==> Algorithm <==

  SCF Algorithm Type is DF.
  DIIS enabled.
  MOM disabled.
  Fractional occupation disabled.
  Guess Type is SAD.
  Energy threshold   = 1.00e-08
  Density threshold  = 1.00e-08
  Integral threshold = 1.00e-12

  ==> Primary Basis <==

  Basis Set: AUG-CC-PVTZ
    Blend: AUG-CC-PVTZ
    Number of shells: 147
    Number of basis functions: 427
    Number of Cartesian functions: 489
    Spherical Harmonics?: true
    Max angular momentum: 3

   => Loading Basis Set <=

    Name: (AUG-CC-PVTZ AUX)
    Role: JKFIT
    Keyword: DF_BASIS_SCF
    atoms 1                     entry BR         line  1492 file /ddmfs1b/softs/psi4conda/share/psi4/basis/aug-cc-pvtz-jkfit.gbs 
    atoms 2, 5, 8, 11           entry O          line   286 file /ddmfs1b/softs/psi4conda/share/psi4/basis/aug-cc-pvtz-jkfit.gbs 
    atoms 3-4, 6-7, 9-10, 12-13 entry H          line    70 file /ddmfs1b/softs/psi4conda/share/psi4/basis/aug-cc-pvtz-jkfit.gbs 

  ==> Integral Setup <==

  DFHelper Memory: AOs need 1.315 GiB; user supplied 41.910 GiB. 
  Using in-core AOs.

  ==> MemDFJK: Density-Fitted J/K Matrices <==

    J tasked:                   Yes
    K tasked:                   Yes
    wK tasked:                   No
    OpenMP threads:              20
    Memory [MiB]:             42915
    Algorithm:                 Core
    Schwarz Cutoff:           1E-12
    Mask sparsity (%):      11.3070
    Fitting Condition:        1E-10

   => Auxiliary Basis Set <=

  Basis Set: (AUG-CC-PVTZ AUX)
    Blend: AUG-CC-PVTZ-JKFIT
    Number of shells: 290
    Number of basis functions: 1032
    Number of Cartesian functions: 1293
    Spherical Harmonics?: true
    Max angular momentum: 4

  Minimum eigenvalue in the overlap matrix is 1.6303374999E-04.
  Reciprocal condition number of the overlap matrix is 1.4327628570E-05.
    Using symmetric orthogonalization.

  ==> Pre-Iterations <==

  SCF Guess: Superposition of Atomic Densities via on-the-fly atomic UHF (no occupation information).

   -------------------------
    Irrep   Nso     Nmo    
   -------------------------
     A        427     427 
   -------------------------
    Total     427     427
   -------------------------

  ==> Iterations <==

                           Total Energy        Delta E     RMS |[F,P]|

   @DF-RHF iter SAD:   -75.43401617309374   -7.54340e+01   0.00000e+00 
   @DF-RHF iter   1:   -75.96906423804253   -5.35048e-01   1.09294e-03 ADIIS/DIIS
   @DF-RHF iter   2:   -76.02054659672534   -5.14824e-02   7.72386e-04 ADIIS/DIIS
   @DF-RHF iter   3:   -76.05460910904034   -3.40625e-02   5.28716e-05 DIIS
   @DF-RHF iter   4:   -76.05505575648387   -4.46647e-04   1.36400e-05 DIIS
   @DF-RHF iter   5:   -76.05508880342241   -3.30469e-05   3.20751e-06 DIIS
   @DF-RHF iter   6:   -76.05509168417707   -2.88075e-06   7.14487e-07 DIIS
   @DF-RHF iter   7:   -76.05509183875337   -1.54576e-07   1.28618e-07 DIIS
   @DF-RHF iter   8:   -76.05509184307687   -4.32350e-09   2.27546e-08 DIIS
   @DF-RHF iter   9:   -76.05509184319017   -1.13303e-10   6.12358e-09 DIIS
  Energy and wave function converged.


  ==> Post-Iterations <==

    Orbital Energies [Eh]
    ---------------------

    Doubly Occupied:                                                      

       1A    -20.572178     2A     -1.335122     3A     -0.702748  
       4A     -0.573917     5A     -0.506937  

    Virtual:                                                              

       6A      0.015342     7A      0.033391     8A      0.039203  
       9A      0.040465    10A      0.054263    11A      0.064592  
      12A      0.066922    13A      0.071185    14A      0.091327  
      15A      0.105850    16A      0.107443    17A      0.119618  
      18A      0.127038    19A      0.140578    20A      0.141959  
      21A      0.147713    22A      0.155342    23A      0.159200  
      24A      0.164330    25A      0.176710    26A      0.180475  
      27A      0.187268    28A      0.189842    29A      0.198875  
      30A      0.204127    31A      0.213277    32A      0.221499  
      33A      0.231057    34A      0.248966    35A      0.260431  
      36A      0.272046    37A      0.277204    38A      0.281113  
      39A      0.293843    40A      0.302637    41A      0.310271  
      42A      0.315361    43A      0.319930    44A      0.328827  
      45A      0.335980    46A      0.344911    47A      0.357409  
      48A      0.361968    49A      0.363058    50A      0.368793  
      51A      0.373175    52A      0.378941    53A      0.391566  
      54A      0.402061    55A      0.405778    56A      0.416931  
      57A      0.427243    58A      0.430146    59A      0.442875  
      60A      0.452834    61A      0.461952    62A      0.467057  
      63A      0.482168    64A      0.490416    65A      0.502170  
      66A      0.529797    67A      0.547537    68A      0.550178  
      69A      0.561647    70A      0.575998    71A      0.600152  
      72A      0.610900    73A      0.622624    74A      0.654774  
      75A      0.683132    76A      0.689241    77A      0.695042  
      78A      0.710168    79A      0.718938    80A      0.722558  
      81A      0.732900    82A      0.744331    83A      0.746855  
      84A      0.758837    85A      0.770897    86A      0.774325  
      87A      0.776119    88A      0.798095    89A      0.802220  
      90A      0.816811    91A      0.818268    92A      0.825598  
      93A      0.834334    94A      0.842521    95A      0.857622  
      96A      0.864377    97A      0.869443    98A      0.877723  
      99A      0.882839   100A      0.887650   101A      0.897744  
     102A      0.900206   103A      0.908497   104A      0.918117  
     105A      0.919682   106A      0.926009   107A      0.932481  
     108A      0.935656   109A      0.958824   110A      0.960850  
     111A      0.966639   112A      0.971905   113A      0.976478  
     114A      0.980234   115A      0.993819   116A      1.006699  
     117A      1.015577   118A      1.017915   119A      1.025001  
     120A      1.025920   121A      1.038040   122A      1.047502  
     123A      1.060979   124A      1.068557   125A      1.076368  
     126A      1.078766   127A      1.089662   128A      1.099462  
     129A      1.104102   130A      1.118214   131A      1.128593  
     132A      1.140791   133A      1.150102   134A      1.158021  
     135A      1.163674   136A      1.181587   137A      1.189588  
     138A      1.203509   139A      1.220685   140A      1.228482  
     141A      1.230951   142A      1.250360   143A      1.257513  
     144A      1.266103   145A      1.288898   146A      1.297577  
     147A      1.310272   148A      1.318182   149A      1.330220  
     150A      1.332342   151A      1.362121   152A      1.377682  
     153A      1.391387   154A      1.419148   155A      1.432416  
     156A      1.460562   157A      1.467341   158A      1.502492  
     159A      1.510182   160A      1.522605   161A      1.526765  
     162A      1.530142   163A      1.550705   164A      1.573056  
     165A      1.610671   166A      1.618860   167A      1.637707  
     168A      1.660086   169A      1.662895   170A      1.687717  
     171A      1.692395   172A      1.717920   173A      1.732703  
     174A      1.748425   175A      1.755532   176A      1.768550  
     177A      1.776781   178A      1.792847   179A      1.815214  
     180A      1.826790   181A      1.843994   182A      1.855392  
     183A      1.869533   184A      1.879509   185A      1.886936  
     186A      1.897530   187A      1.924017   188A      1.927282  
     189A      1.958918   190A      1.975609   191A      1.993460  
     192A      2.018437   193A      2.036682   194A      2.043143  
     195A      2.145501   196A      2.166018   197A      2.246133  
     198A      2.301933   199A      2.370260   200A      2.423381  
     201A      2.442471   202A      2.456648   203A      2.462015  
     204A      2.463153   205A      2.469528   206A      2.475092  
     207A      2.484880   208A      2.487572   209A      2.540005  
     210A      2.546805   211A      2.551929   212A      2.568550  
     213A      2.577022   214A      2.596677   215A      2.605979  
     216A      2.622247   217A      2.634262   218A      2.637293  
     219A      2.657656   220A      2.666803   221A      2.669820  
     222A      2.693123   223A      2.703979   224A      2.724547  
     225A      2.731325   226A      2.758212   227A      2.766475  
     228A      2.769155   229A      2.795180   230A      2.799910  
     231A      2.848573   232A      2.909239   233A      2.919433  
     234A      2.940297   235A      2.952087   236A      2.959421  
     237A      3.031556   238A      3.069472   239A      3.150140  
     240A      3.162955   241A      3.167767   242A      3.173280  
     243A      3.201463   244A      3.203177   245A      3.225067  
     246A      3.259615   247A      3.281857   248A      3.293888  
     249A      3.309669   250A      3.335322   251A      3.346866  
     252A      3.368714   253A      3.387533   254A      3.399737  
     255A      3.419882   256A      3.429325   257A      3.447589  
     258A      3.464838   259A      3.506704   260A      3.520543  
     261A      3.533765   262A      3.549610   263A      3.590511  
     264A      3.597312   265A      3.622710   266A      3.638302  
     267A      3.653103   268A      3.687899   269A      3.707446  
     270A      3.762552   271A      3.781145   272A      3.831184  
     273A      3.845666   274A      3.890097   275A      3.945443  
     276A      4.043384   277A      4.140488   278A      4.197465  
     279A      4.221027   280A      4.243179   281A      4.312285  
     282A      4.372304   283A      4.377573   284A      4.400547  
     285A      4.428788   286A      4.432966   287A      4.441720  
     288A      4.472152   289A      4.494501   290A      4.505461  
     291A      4.522739   292A      4.529547   293A      4.566367  
     294A      4.576021   295A      4.607959   296A      4.632242  
     297A      4.643598   298A      4.670138   299A      4.689863  
     300A      4.692029   301A      4.738898   302A      4.755072  
     303A      4.829949   304A      4.878103   305A      4.883198  
     306A      4.901240   307A      4.913269   308A      4.923535  
     309A      4.931775   310A      4.953864   311A      4.972528  
     312A      4.996264   313A      5.039647   314A      5.072134  
     315A      5.107362   316A      5.194973   317A      5.246475  
     318A      5.258751   319A      5.278121   320A      5.291865  
     321A      5.313035   322A      5.418608   323A      5.445931  
     324A      5.497588   325A      5.501739   326A      5.535472  
     327A      5.568381   328A      5.591136   329A      5.627301  
     330A      5.655185   331A      5.696225   332A      5.722985  
     333A      5.795038   334A      5.835834   335A      5.918878  
     336A      6.127472   337A      6.145168   338A      6.179603  
     339A      6.187474   340A      6.310840   341A      6.366125  
     342A      6.527711   343A      6.537782   344A      6.562535  
     345A      6.592000   346A      6.750926   347A      6.867128  
     348A      6.882208   349A      6.943467   350A      7.009264  
     351A      7.098056   352A      7.186323   353A      7.243656  
     354A      7.298721   355A      7.308016   356A      7.355346  
     357A      7.456419   358A      7.676699   359A      7.699867  
     360A      7.713204   361A      7.746604   362A      7.791411  
     363A      7.855190   364A      7.872006   365A      7.882181  
     366A      7.952103   367A      7.998831   368A      8.071184  
     369A      8.099849   370A      8.116982   371A      8.145275  
     372A      8.212526   373A      8.268144   374A      8.301686  
     375A      8.361217   376A      8.626314   377A      8.630013  
     378A      8.681790   379A      8.798870   380A      8.855692  
     381A      8.896186   382A      9.155873   383A      9.647793  
     384A      9.703357   385A      9.781053   386A      9.841539  
     387A      9.849646   388A      9.908098   389A     10.051444  
     390A     10.068239   391A     10.095619   392A     10.281253  
     393A     10.301025   394A     10.330587   395A     10.998480  
     396A     11.031594   397A     11.109675   398A     11.287816  
     399A     11.617881   400A     11.720788   401A     11.742930  
     402A     11.778647   403A     11.930714   404A     12.318389  
     405A     13.398927   406A     13.493563   407A     13.643585  
     408A     13.767078   409A     13.877078   410A     13.944285  
     411A     13.986983   412A     14.104137   413A     14.144966  
     414A     15.761784   415A     26.285555   416A     26.336165  
     417A     26.397768   418A     26.568869   419A     26.620224  
     420A     46.505257   421A     64.291065   422A     65.264271  
     423A     67.288827   424A    138.726475   425A    139.169121  
     426A    139.418254   427A    711.776706  

    Final Occupation by Irrep:
              A 
    DOCC [     5 ]
    NA   [     5 ]
    NB   [     5 ]

  @DF-RHF Final Energy:   -76.05509184319017

   => Energetics <=

    Nuclear Repulsion Energy =              8.8665596235420860
    One-Electron Energy =                -122.4614943829884623
    Two-Electron Energy =                  37.5398429162561982
    Total Energy =                        -76.0550918431901835

Computation Completed


Properties will be evaluated at   0.000000,   0.000000,   0.000000 [a0]

Properties computed using the SCF density matrix


 Multipole Moments:

 ------------------------------------------------------------------------------------
     Multipole            Electronic (a.u.)      Nuclear  (a.u.)        Total (a.u.)
 ------------------------------------------------------------------------------------

 L = 1.  Multiply by 2.5417464519 to convert [e a0] to [Debye]
 Dipole X            :        -31.1774894           30.4901981           -0.6872913
 Dipole Y            :         56.1520904          -56.0394352            0.1126552
 Dipole Z            :         -4.9633112            5.3086564            0.3453453
 Magnitude           :                                                    0.7773827

 ------------------------------------------------------------------------------------

*** tstop() called on ddmfs1 at Mon Jan 22 23:17:41 2024
Module time:
	user time   =      70.15 seconds =       1.17 minutes
	system time =       5.67 seconds =       0.09 minutes
	total time  =          6 seconds =       0.10 minutes
Total time:
	user time   =      70.15 seconds =       1.17 minutes
	system time =       5.67 seconds =       0.09 minutes
	total time  =          6 seconds =       0.10 minutes

*** tstart() called on ddmfs1
*** at Mon Jan 22 23:17:41 2024


  //>>>>>>>>>>>>>>>>>>>>>>>>>>>>>>>>>>>//
  //               DFMP2               //
  //<<<<<<<<<<<<<<<<<<<<<<<<<<<<<<<<<<<//

   => Loading Basis Set <=

    Name: (AUG-CC-PVTZ AUX)
    Role: RIFIT
    Keyword: DF_BASIS_MP2
    atoms 1                     entry BR         line  1248 file /ddmfs1b/softs/psi4conda/share/psi4/basis/aug-cc-pvtz-ri.gbs 
    atoms 2, 5, 8, 11           entry O          line   264 file /ddmfs1b/softs/psi4conda/share/psi4/basis/aug-cc-pvtz-ri.gbs 
    atoms 3-4, 6-7, 9-10, 12-13 entry H          line    30 file /ddmfs1b/softs/psi4conda/share/psi4/basis/aug-cc-pvtz-ri.gbs 

	 --------------------------------------------------------
	                          DF-MP2                         
	      2nd-Order Density-Fitted Moller-Plesset Theory     
	              RMP2 Wavefunction,  20 Threads             
	                                                         
	        Rob Parrish, Justin Turney, Andy Simmonett,      
	           Ed Hohenstein, and C. David Sherrill          
	 --------------------------------------------------------

   => Auxiliary Basis Set <=

  Basis Set: (AUG-CC-PVTZ AUX)
    Blend: AUG-CC-PVTZ-RI
    Number of shells: 267
    Number of basis functions: 983
    Number of Cartesian functions: 1245
    Spherical Harmonics?: true
    Max angular momentum: 5

	 --------------------------------------------------------
	                 NBF =   427, NAUX =   983
	 --------------------------------------------------------
	   CLASS    FOCC     OCC    AOCC    AVIR     VIR    FVIR
	   PAIRS       0       5       5     422     422       0
	 --------------------------------------------------------

	-----------------------------------------------------------
	 ==================> DF-MP2 Energies <==================== 
	-----------------------------------------------------------
	 Reference Energy          =     -76.0550918431901692 [Eh]
	 Singles Energy            =      -0.0000000000000000 [Eh]
	 Same-Spin Energy          =      -0.0689517230440196 [Eh]
	 Opposite-Spin Energy      =      -0.2175942211327010 [Eh]
	 Correlation Energy        =      -0.2865459441767205 [Eh]
	 Total Energy              =     -76.3416377873668921 [Eh]
	-----------------------------------------------------------
	 ================> DF-SCS-MP2 Energies <================== 
	-----------------------------------------------------------
	 SCS Same-Spin Scale       =       0.3333333333333333 [-]
	 SCS Opposite-Spin Scale   =       1.2000000000000000 [-]
	 SCS Same-Spin Energy      =      -0.0229839076813399 [Eh]
	 SCS Opposite-Spin Energy  =      -0.2611130653592412 [Eh]
	 SCS Correlation Energy    =      -0.2840969730405810 [Eh]
	 SCS Total Energy          =     -76.3391888162307453 [Eh]
	-----------------------------------------------------------


*** tstop() called on ddmfs1 at Mon Jan 22 23:17:50 2024
Module time:
	user time   =      26.43 seconds =       0.44 minutes
	system time =       2.01 seconds =       0.03 minutes
	total time  =          9 seconds =       0.15 minutes
Total time:
	user time   =      96.60 seconds =       1.61 minutes
	system time =       7.69 seconds =       0.13 minutes
	total time  =         15 seconds =       0.25 minutes

    Psi4 stopped on: Monday, 22 January 2024 11:17PM
    Psi4 wall time for execution: 0:00:15.48

*** Psi4 exiting successfully. Buy a developer a beer!
