
    -----------------------------------------------------------------------
          Psi4: An Open-Source Ab Initio Electronic Structure Package
                               Psi4 1.8.2 release

                         Git: Rev {} zzzzzzz 


    D. G. A. Smith, L. A. Burns, A. C. Simmonett, R. M. Parrish,
    M. C. Schieber, R. Galvelis, P. Kraus, H. Kruse, R. Di Remigio,
    A. Alenaizan, A. M. James, S. Lehtola, J. P. Misiewicz, M. Scheurer,
    R. A. Shaw, J. B. Schriber, Y. Xie, Z. L. Glick, D. A. Sirianni,
    J. S. O'Brien, J. M. Waldrop, A. Kumar, E. G. Hohenstein,
    B. P. Pritchard, B. R. Brooks, H. F. Schaefer III, A. Yu. Sokolov,
    K. Patkowski, A. E. DePrince III, U. Bozkaya, R. A. King,
    F. A. Evangelista, J. M. Turney, T. D. Crawford, C. D. Sherrill,
    J. Chem. Phys. 152(18) 184108 (2020). https://doi.org/10.1063/5.0006002

                            Additional Code Authors
    E. T. Seidl, C. L. Janssen, E. F. Valeev, M. L. Leininger,
    J. F. Gonthier, R. M. Richard, H. R. McAlexander, M. Saitow, X. Wang,
    P. Verma, M. H. Lechner, A. Jiang, S. Behnle, A. G. Heide,
    M. F. Herbst, and D. L. Poole

             Previous Authors, Complete List of Code Contributors,
                       and Citations for Specific Modules
    https://github.com/psi4/psi4/blob/master/codemeta.json
    https://github.com/psi4/psi4/graphs/contributors
    http://psicode.org/psi4manual/master/introduction.html#citing-psifour

    -----------------------------------------------------------------------


    Psi4 started on: Tuesday, 23 January 2024 01:21AM

    Process ID: 123791
    Host:       ddmfs1
    PSIDATADIR: /ddmfs1b/softs/psi4conda/share/psi4
    Memory:     500.0 MiB
    Threads:    20
    
  ==> Input File <==

--------------------------------------------------------------------------
MEMORY 60 GB

molecule dimer {
0 1
Gh(Br)     0.000000     0.000000     0.000000
Gh(O)     -2.849832     1.193942    -1.826212
Gh(H)     -1.931928     1.207032    -1.575616
Gh(H)     -2.940118     0.369058    -2.291841
Gh(O)      3.301686    -0.334450    -0.377123
Gh(H)      2.396533    -0.045027    -0.274515
Gh(H)      3.799968     0.084606     0.318721
Gh(O)     -0.087440     3.511872     0.501620
Gh(H)      0.781254     4.031099     0.240035
Gh(H)     -0.046340     2.573718     0.235001
O          0.762499     2.499028    -2.179473
H          0.529887     2.070563    -3.000811
H          0.722495     1.889826    -1.445165
Gh(O)     -1.395787    -1.285353    -2.578759
Gh(H)     -0.708440    -1.470841    -3.234854
Gh(H)     -0.928793    -0.644101    -2.033967

units ang
no_reorient
no_com
symmetry c1
}

set {
basis        aug-cc-pVTZ
scf_type     df
}

energy("mp2")
--------------------------------------------------------------------------

  Memory set to  55.879 GiB by Python driver.

Scratch directory: /ddmfs1a/scratch/
   => Libint2 <=

    Primary   basis highest AM E, G, H:  5, 4, 3
    Auxiliary basis highest AM E, G, H:  6, 5, 4
    Onebody   basis highest AM E, G, H:  6, 5, 4
    Solid Harmonics ordering:            gaussian

*** tstart() called on ddmfs1
*** at Tue Jan 23 01:21:09 2024

   => Loading Basis Set <=

    Name: AUG-CC-PVTZ
    Role: ORBITAL
    Keyword: BASIS
    atoms 1                            entry BR         line  4208 file /ddmfs1b/softs/psi4conda/share/psi4/basis/aug-cc-pvtz.gbs 
    atoms 2, 5, 8, 11, 14              entry O          line   331 file /ddmfs1b/softs/psi4conda/share/psi4/basis/aug-cc-pvtz.gbs 
    atoms 3-4, 6-7, 9-10, 12-13, 15-16 entry H          line    40 file /ddmfs1b/softs/psi4conda/share/psi4/basis/aug-cc-pvtz.gbs 


         ---------------------------------------------------------
                                   SCF
               by Justin Turney, Rob Parrish, Andy Simmonett
                          and Daniel G. A. Smith
                              RHF Reference
                       20 Threads,  57220 MiB Core
         ---------------------------------------------------------

  ==> Geometry <==

    Molecular point group: c1
    Full point group: C1

    Geometry (in Angstrom), charge = 0, multiplicity = 1:

       Center              X                  Y                   Z               Mass       
    ------------   -----------------  -----------------  -----------------  -----------------
      Gh(BR)          0.000000000000     0.000000000000     0.000000000000    78.918337600000
      Gh(O)          -2.849832000000     1.193942000000    -1.826212000000    15.994914619570
      Gh(H)          -1.931928000000     1.207032000000    -1.575616000000     1.007825032230
      Gh(H)          -2.940118000000     0.369058000000    -2.291841000000     1.007825032230
      Gh(O)           3.301686000000    -0.334450000000    -0.377123000000    15.994914619570
      Gh(H)           2.396533000000    -0.045027000000    -0.274515000000     1.007825032230
      Gh(H)           3.799968000000     0.084606000000     0.318721000000     1.007825032230
      Gh(O)          -0.087440000000     3.511872000000     0.501620000000    15.994914619570
      Gh(H)           0.781254000000     4.031099000000     0.240035000000     1.007825032230
      Gh(H)          -0.046340000000     2.573718000000     0.235001000000     1.007825032230
         O            0.762499000000     2.499028000000    -2.179473000000    15.994914619570
         H            0.529887000000     2.070563000000    -3.000811000000     1.007825032230
         H            0.722495000000     1.889826000000    -1.445165000000     1.007825032230
      Gh(O)          -1.395787000000    -1.285353000000    -2.578759000000    15.994914619570
      Gh(H)          -0.708440000000    -1.470841000000    -3.234854000000     1.007825032230
      Gh(H)          -0.928793000000    -0.644101000000    -2.033967000000     1.007825032230

  Running in c1 symmetry.

  Rotational constants: A =      0.02917  B =      0.02526  C =      0.02020 [cm^-1]
  Rotational constants: A =    874.52290  B =    757.37759  C =    605.65849 [MHz]
  Nuclear repulsion =    9.200743534196556

  Charge       = 0
  Multiplicity = 1
  Electrons    = 10
  Nalpha       = 5
  Nbeta        = 5

  ==> Algorithm <==

  SCF Algorithm Type is DF.
  DIIS enabled.
  MOM disabled.
  Fractional occupation disabled.
  Guess Type is SAD.
  Energy threshold   = 1.00e-08
  Density threshold  = 1.00e-08
  Integral threshold = 1.00e-12

  ==> Primary Basis <==

  Basis Set: AUG-CC-PVTZ
    Blend: AUG-CC-PVTZ
    Number of shells: 179
    Number of basis functions: 519
    Number of Cartesian functions: 594
    Spherical Harmonics?: true
    Max angular momentum: 3

   => Loading Basis Set <=

    Name: (AUG-CC-PVTZ AUX)
    Role: JKFIT
    Keyword: DF_BASIS_SCF
    atoms 1                            entry BR         line  1492 file /ddmfs1b/softs/psi4conda/share/psi4/basis/aug-cc-pvtz-jkfit.gbs 
    atoms 2, 5, 8, 11, 14              entry O          line   286 file /ddmfs1b/softs/psi4conda/share/psi4/basis/aug-cc-pvtz-jkfit.gbs 
    atoms 3-4, 6-7, 9-10, 12-13, 15-16 entry H          line    70 file /ddmfs1b/softs/psi4conda/share/psi4/basis/aug-cc-pvtz-jkfit.gbs 

  ==> Integral Setup <==

  DFHelper Memory: AOs need 2.292 GiB; user supplied 41.910 GiB. 
  Using in-core AOs.

  ==> MemDFJK: Density-Fitted J/K Matrices <==

    J tasked:                   Yes
    K tasked:                   Yes
    wK tasked:                   No
    OpenMP threads:              20
    Memory [MiB]:             42915
    Algorithm:                 Core
    Schwarz Cutoff:           1E-12
    Mask sparsity (%):      11.2681
    Fitting Condition:        1E-10

   => Auxiliary Basis Set <=

  Basis Set: (AUG-CC-PVTZ AUX)
    Blend: AUG-CC-PVTZ-JKFIT
    Number of shells: 348
    Number of basis functions: 1228
    Number of Cartesian functions: 1534
    Spherical Harmonics?: true
    Max angular momentum: 4

  Minimum eigenvalue in the overlap matrix is 1.3266162323E-04.
  Reciprocal condition number of the overlap matrix is 9.6829845261E-06.
    Using symmetric orthogonalization.

  ==> Pre-Iterations <==

  SCF Guess: Superposition of Atomic Densities via on-the-fly atomic UHF (no occupation information).

   -------------------------
    Irrep   Nso     Nmo    
   -------------------------
     A        519     519 
   -------------------------
    Total     519     519
   -------------------------

  ==> Iterations <==

                           Total Energy        Delta E     RMS |[F,P]|

   @DF-RHF iter SAD:   -75.47402455065171   -7.54740e+01   0.00000e+00 
   @DF-RHF iter   1:   -75.97661397365651   -5.02589e-01   9.03756e-04 ADIIS/DIIS
   @DF-RHF iter   2:   -76.02900056599226   -5.23866e-02   6.09356e-04 ADIIS/DIIS
   @DF-RHF iter   3:   -76.05968939486836   -3.06888e-02   4.13411e-05 DIIS
   @DF-RHF iter   4:   -76.06007861057707   -3.89216e-04   9.85080e-06 DIIS
   @DF-RHF iter   5:   -76.06010237515780   -2.37646e-05   2.21842e-06 DIIS
   @DF-RHF iter   6:   -76.06010433567093   -1.96051e-06   5.00485e-07 DIIS
   @DF-RHF iter   7:   -76.06010444733415   -1.11663e-07   9.71977e-08 DIIS
   @DF-RHF iter   8:   -76.06010445108180   -3.74764e-09   1.58119e-08 DIIS
   @DF-RHF iter   9:   -76.06010445115996   -7.81597e-11   3.90624e-09 DIIS
  Energy and wave function converged.


  ==> Post-Iterations <==

    Orbital Energies [Eh]
    ---------------------

    Doubly Occupied:                                                      

       1A    -20.563533     2A     -1.349816     3A     -0.731773  
       4A     -0.571918     5A     -0.508442  

    Virtual:                                                              

       6A      0.015172     7A      0.031482     8A      0.037828  
       9A      0.042090    10A      0.050355    11A      0.056604  
      12A      0.065658    13A      0.072155    14A      0.075672  
      15A      0.079494    16A      0.095805    17A      0.097668  
      18A      0.115086    19A      0.124170    20A      0.131659  
      21A      0.135709    22A      0.143115    23A      0.145538  
      24A      0.153749    25A      0.159670    26A      0.164487  
      27A      0.172572    28A      0.179787    29A      0.180100  
      30A      0.185781    31A      0.187270    32A      0.199280  
      33A      0.201894    34A      0.208537    35A      0.215057  
      36A      0.219544    37A      0.233125    38A      0.235376  
      39A      0.251029    40A      0.257527    41A      0.264455  
      42A      0.282193    43A      0.288428    44A      0.293553  
      45A      0.298264    46A      0.307197    47A      0.314870  
      48A      0.318173    49A      0.324773    50A      0.331963  
      51A      0.333793    52A      0.342379    53A      0.347899  
      54A      0.359165    55A      0.368223    56A      0.371600  
      57A      0.375033    58A      0.375208    59A      0.384393  
      60A      0.389297    61A      0.398989    62A      0.402101  
      63A      0.413437    64A      0.419575    65A      0.424020  
      66A      0.431083    67A      0.434351    68A      0.450261  
      69A      0.455308    70A      0.459062    71A      0.471579  
      72A      0.474075    73A      0.484984    74A      0.495289  
      75A      0.506776    76A      0.524142    77A      0.531349  
      78A      0.533086    79A      0.546321    80A      0.554440  
      81A      0.564592    82A      0.573261    83A      0.579676  
      84A      0.595386    85A      0.609918    86A      0.620280  
      87A      0.624221    88A      0.644254    89A      0.666201  
      90A      0.687668    91A      0.700312    92A      0.719564  
      93A      0.740737    94A      0.745010    95A      0.760861  
      96A      0.764196    97A      0.772963    98A      0.781848  
      99A      0.785032   100A      0.791390   101A      0.794033  
     102A      0.804772   103A      0.807741   104A      0.810594  
     105A      0.815566   106A      0.819645   107A      0.825741  
     108A      0.833092   109A      0.842573   110A      0.844779  
     111A      0.852917   112A      0.860406   113A      0.863070  
     114A      0.871777   115A      0.878653   116A      0.893307  
     117A      0.897812   118A      0.911523   119A      0.913540  
     120A      0.922075   121A      0.928449   122A      0.930960  
     123A      0.942440   124A      0.945053   125A      0.950463  
     126A      0.956839   127A      0.961120   128A      0.966272  
     129A      0.981147   130A      0.983133   131A      0.986498  
     132A      0.994884   133A      0.999222   134A      1.002224  
     135A      1.013059   136A      1.023231   137A      1.031607  
     138A      1.034843   139A      1.038907   140A      1.043166  
     141A      1.052488   142A      1.053647   143A      1.069027  
     144A      1.074184   145A      1.079836   146A      1.093803  
     147A      1.102008   148A      1.104013   149A      1.115963  
     150A      1.117437   151A      1.127576   152A      1.134523  
     153A      1.142572   154A      1.153522   155A      1.162219  
     156A      1.175244   157A      1.183614   158A      1.193415  
     159A      1.202866   160A      1.204494   161A      1.224004  
     162A      1.228566   163A      1.233785   164A      1.244397  
     165A      1.262050   166A      1.267211   167A      1.279779  
     168A      1.289301   169A      1.308402   170A      1.321174  
     171A      1.331860   172A      1.343611   173A      1.348548  
     174A      1.360334   175A      1.371611   176A      1.383812  
     177A      1.394345   178A      1.405481   179A      1.422112  
     180A      1.424050   181A      1.427445   182A      1.442907  
     183A      1.449470   184A      1.459047   185A      1.472708  
     186A      1.486952   187A      1.493864   188A      1.500272  
     189A      1.515483   190A      1.537646   191A      1.549888  
     192A      1.557022   193A      1.567363   194A      1.597459  
     195A      1.598937   196A      1.609133   197A      1.626522  
     198A      1.645303   199A      1.649495   200A      1.676350  
     201A      1.683832   202A      1.702982   203A      1.711365  
     204A      1.719701   205A      1.739105   206A      1.748860  
     207A      1.754794   208A      1.763636   209A      1.776996  
     210A      1.780590   211A      1.783566   212A      1.811213  
     213A      1.822557   214A      1.836202   215A      1.858228  
     216A      1.866225   217A      1.871790   218A      1.883300  
     219A      1.896999   220A      1.901690   221A      1.922147  
     222A      1.929325   223A      1.940094   224A      1.950353  
     225A      1.953888   226A      1.977986   227A      1.992354  
     228A      2.002773   229A      2.008798   230A      2.024892  
     231A      2.026833   232A      2.058349   233A      2.080588  
     234A      2.109288   235A      2.139425   236A      2.201763  
     237A      2.217856   238A      2.263165   239A      2.387904  
     240A      2.447788   241A      2.455083   242A      2.461006  
     243A      2.470953   244A      2.496877   245A      2.504414  
     246A      2.511761   247A      2.535839   248A      2.536241  
     249A      2.545999   250A      2.561003   251A      2.567399  
     252A      2.579491   253A      2.583289   254A      2.593809  
     255A      2.611061   256A      2.618591   257A      2.635788  
     258A      2.646605   259A      2.656047   260A      2.659062  
     261A      2.665820   262A      2.670042   263A      2.689404  
     264A      2.696430   265A      2.716040   266A      2.727867  
     267A      2.734528   268A      2.751432   269A      2.764726  
     270A      2.768544   271A      2.776841   272A      2.798066  
     273A      2.804843   274A      2.820807   275A      2.837453  
     276A      2.851367   277A      2.876925   278A      2.896597  
     279A      2.943117   280A      2.944936   281A      2.973305  
     282A      3.011544   283A      3.019801   284A      3.045147  
     285A      3.059066   286A      3.066320   287A      3.092782  
     288A      3.145025   289A      3.149641   290A      3.175366  
     291A      3.180783   292A      3.195607   293A      3.205870  
     294A      3.217541   295A      3.237683   296A      3.254496  
     297A      3.257034   298A      3.273003   299A      3.287994  
     300A      3.318177   301A      3.329268   302A      3.345789  
     303A      3.365997   304A      3.370941   305A      3.386363  
     306A      3.409327   307A      3.420027   308A      3.434212  
     309A      3.455309   310A      3.477194   311A      3.486924  
     312A      3.531157   313A      3.533867   314A      3.552526  
     315A      3.574531   316A      3.583754   317A      3.595981  
     318A      3.607949   319A      3.618296   320A      3.640798  
     321A      3.675622   322A      3.705417   323A      3.723510  
     324A      3.749984   325A      3.761940   326A      3.786879  
     327A      3.825954   328A      3.874432   329A      3.901306  
     330A      3.923177   331A      3.931955   332A      4.101998  
     333A      4.149953   334A      4.214281   335A      4.308297  
     336A      4.349167   337A      4.387580   338A      4.399935  
     339A      4.422925   340A      4.444949   341A      4.454680  
     342A      4.469988   343A      4.484121   344A      4.487212  
     345A      4.490125   346A      4.502520   347A      4.528277  
     348A      4.532360   349A      4.539573   350A      4.579393  
     351A      4.584803   352A      4.588937   353A      4.622267  
     354A      4.633163   355A      4.643623   356A      4.647834  
     357A      4.669872   358A      4.688934   359A      4.701582  
     360A      4.741849   361A      4.763967   362A      4.779797  
     363A      4.803083   364A      4.822413   365A      4.860534  
     366A      4.886400   367A      4.889753   368A      4.913307  
     369A      4.930601   370A      4.935324   371A      4.947131  
     372A      4.954072   373A      4.971111   374A      4.988539  
     375A      4.999900   376A      5.027784   377A      5.067195  
     378A      5.079182   379A      5.174174   380A      5.203998  
     381A      5.226716   382A      5.252644   383A      5.268737  
     384A      5.277282   385A      5.366835   386A      5.388627  
     387A      5.391883   388A      5.436335   389A      5.448073  
     390A      5.491284   391A      5.549027   392A      5.577548  
     393A      5.595248   394A      5.636153   395A      5.650094  
     396A      5.664027   397A      5.680684   398A      5.686689  
     399A      5.691713   400A      5.697943   401A      5.719931  
     402A      5.736083   403A      5.896739   404A      5.920942  
     405A      5.949621   406A      5.991168   407A      6.133997  
     408A      6.146531   409A      6.174033   410A      6.222096  
     411A      6.283406   412A      6.298928   413A      6.407519  
     414A      6.477756   415A      6.602620   416A      6.624793  
     417A      6.663787   418A      6.666342   419A      6.720409  
     420A      6.763910   421A      6.857379   422A      6.933557  
     423A      6.997983   424A      7.105925   425A      7.132441  
     426A      7.180149   427A      7.248406   428A      7.353796  
     429A      7.397511   430A      7.400497   431A      7.536602  
     432A      7.541003   433A      7.709608   434A      7.720965  
     435A      7.749393   436A      7.786067   437A      7.789366  
     438A      7.825737   439A      7.862043   440A      7.916275  
     441A      7.940771   442A      7.969696   443A      8.069249  
     444A      8.074238   445A      8.081639   446A      8.090176  
     447A      8.121246   448A      8.154120   449A      8.220175  
     450A      8.238212   451A      8.253294   452A      8.305329  
     453A      8.327185   454A      8.337756   455A      8.359464  
     456A      8.570691   457A      8.790394   458A      8.839893  
     459A      8.846271   460A      8.885412   461A      8.903209  
     462A      8.967747   463A      9.025927   464A      9.040924  
     465A      9.692382   466A      9.730866   467A      9.746094  
     468A      9.749262   469A      9.862168   470A      9.893234  
     471A      9.896792   472A      9.984866   473A     10.082875  
     474A     10.097426   475A     10.104196   476A     10.112833  
     477A     10.223778   478A     10.281504   479A     10.323480  
     480A     10.402953   481A     10.807266   482A     11.243055  
     483A     11.260201   484A     11.315479   485A     11.330034  
     486A     11.717176   487A     11.773467   488A     11.829316  
     489A     11.850102   490A     11.906855   491A     12.174259  
     492A     12.228764   493A     12.261397   494A     13.317159  
     495A     13.650727   496A     13.655300   497A     13.765766  
     498A     13.842794   499A     13.875951   500A     13.931516  
     501A     13.964823   502A     14.018579   503A     14.084580  
     504A     14.116513   505A     17.065085   506A     26.336642  
     507A     26.380082   508A     26.445113   509A     26.567625  
     510A     26.645103   511A     46.720395   512A     64.283264  
     513A     65.982625   514A     66.563216   515A     66.585615  
     516A    139.022893   517A    139.120331   518A    139.392412  
     519A    712.432915  

    Final Occupation by Irrep:
              A 
    DOCC [     5 ]
    NA   [     5 ]
    NB   [     5 ]

  @DF-RHF Final Energy:   -76.06010445115996

   => Energetics <=

    Nuclear Repulsion Energy =              9.2007435341965564
    One-Electron Energy =                -123.0707290859379128
    Two-Electron Energy =                  37.8098811005813928
    Total Energy =                        -76.0601044511599582

Computation Completed


Properties will be evaluated at   0.000000,   0.000000,   0.000000 [a0]

Properties computed using the SCF density matrix


 Multipole Moments:

 ------------------------------------------------------------------------------------
     Multipole            Electronic (a.u.)      Nuclear  (a.u.)        Total (a.u.)
 ------------------------------------------------------------------------------------

 L = 1.  Multiply by 2.5417464519 to convert [e a0] to [Debye]
 Dipole X            :        -14.0794647           13.8939732           -0.1854914
 Dipole Y            :        -45.9703029           45.2638786           -0.7064243
 Dipole Z            :         41.2916092          -41.3505335           -0.0589244
 Magnitude           :                                                    0.7327445

 ------------------------------------------------------------------------------------

*** tstop() called on ddmfs1 at Tue Jan 23 01:21:17 2024
Module time:
	user time   =     103.69 seconds =       1.73 minutes
	system time =       7.08 seconds =       0.12 minutes
	total time  =          8 seconds =       0.13 minutes
Total time:
	user time   =     103.69 seconds =       1.73 minutes
	system time =       7.08 seconds =       0.12 minutes
	total time  =          8 seconds =       0.13 minutes

*** tstart() called on ddmfs1
*** at Tue Jan 23 01:21:17 2024


  //>>>>>>>>>>>>>>>>>>>>>>>>>>>>>>>>>>>//
  //               DFMP2               //
  //<<<<<<<<<<<<<<<<<<<<<<<<<<<<<<<<<<<//

   => Loading Basis Set <=

    Name: (AUG-CC-PVTZ AUX)
    Role: RIFIT
    Keyword: DF_BASIS_MP2
    atoms 1                            entry BR         line  1248 file /ddmfs1b/softs/psi4conda/share/psi4/basis/aug-cc-pvtz-ri.gbs 
    atoms 2, 5, 8, 11, 14              entry O          line   264 file /ddmfs1b/softs/psi4conda/share/psi4/basis/aug-cc-pvtz-ri.gbs 
    atoms 3-4, 6-7, 9-10, 12-13, 15-16 entry H          line    30 file /ddmfs1b/softs/psi4conda/share/psi4/basis/aug-cc-pvtz-ri.gbs 

	 --------------------------------------------------------
	                          DF-MP2                         
	      2nd-Order Density-Fitted Moller-Plesset Theory     
	              RMP2 Wavefunction,  20 Threads             
	                                                         
	        Rob Parrish, Justin Turney, Andy Simmonett,      
	           Ed Hohenstein, and C. David Sherrill          
	 --------------------------------------------------------

   => Auxiliary Basis Set <=

  Basis Set: (AUG-CC-PVTZ AUX)
    Blend: AUG-CC-PVTZ-RI
    Number of shells: 323
    Number of basis functions: 1181
    Number of Cartesian functions: 1491
    Spherical Harmonics?: true
    Max angular momentum: 5

	 --------------------------------------------------------
	                 NBF =   519, NAUX =  1181
	 --------------------------------------------------------
	   CLASS    FOCC     OCC    AOCC    AVIR     VIR    FVIR
	   PAIRS       0       5       5     514     514       0
	 --------------------------------------------------------

	-----------------------------------------------------------
	 ==================> DF-MP2 Energies <==================== 
	-----------------------------------------------------------
	 Reference Energy          =     -76.0601044511599582 [Eh]
	 Singles Energy            =      -0.0000000000000000 [Eh]
	 Same-Spin Energy          =      -0.0683000323249534 [Eh]
	 Opposite-Spin Energy      =      -0.2156554565791814 [Eh]
	 Correlation Energy        =      -0.2839554889041347 [Eh]
	 Total Energy              =     -76.3440599400640991 [Eh]
	-----------------------------------------------------------
	 ================> DF-SCS-MP2 Energies <================== 
	-----------------------------------------------------------
	 SCS Same-Spin Scale       =       0.3333333333333333 [-]
	 SCS Opposite-Spin Scale   =       1.2000000000000000 [-]
	 SCS Same-Spin Energy      =      -0.0227666774416511 [Eh]
	 SCS Opposite-Spin Energy  =      -0.2587865478950176 [Eh]
	 SCS Correlation Energy    =      -0.2815532253366688 [Eh]
	 SCS Total Energy          =     -76.3416576764966237 [Eh]
	-----------------------------------------------------------


*** tstop() called on ddmfs1 at Tue Jan 23 01:21:29 2024
Module time:
	user time   =      33.97 seconds =       0.57 minutes
	system time =       2.37 seconds =       0.04 minutes
	total time  =         12 seconds =       0.20 minutes
Total time:
	user time   =     137.67 seconds =       2.29 minutes
	system time =       9.45 seconds =       0.16 minutes
	total time  =         20 seconds =       0.33 minutes

    Psi4 stopped on: Tuesday, 23 January 2024 01:21AM
    Psi4 wall time for execution: 0:00:19.72

*** Psi4 exiting successfully. Buy a developer a beer!
