
    -----------------------------------------------------------------------
          Psi4: An Open-Source Ab Initio Electronic Structure Package
                               Psi4 1.8.2 release

                         Git: Rev {} zzzzzzz 


    D. G. A. Smith, L. A. Burns, A. C. Simmonett, R. M. Parrish,
    M. C. Schieber, R. Galvelis, P. Kraus, H. Kruse, R. Di Remigio,
    A. Alenaizan, A. M. James, S. Lehtola, J. P. Misiewicz, M. Scheurer,
    R. A. Shaw, J. B. Schriber, Y. Xie, Z. L. Glick, D. A. Sirianni,
    J. S. O'Brien, J. M. Waldrop, A. Kumar, E. G. Hohenstein,
    B. P. Pritchard, B. R. Brooks, H. F. Schaefer III, A. Yu. Sokolov,
    K. Patkowski, A. E. DePrince III, U. Bozkaya, R. A. King,
    F. A. Evangelista, J. M. Turney, T. D. Crawford, C. D. Sherrill,
    J. Chem. Phys. 152(18) 184108 (2020). https://doi.org/10.1063/5.0006002

                            Additional Code Authors
    E. T. Seidl, C. L. Janssen, E. F. Valeev, M. L. Leininger,
    J. F. Gonthier, R. M. Richard, H. R. McAlexander, M. Saitow, X. Wang,
    P. Verma, M. H. Lechner, A. Jiang, S. Behnle, A. G. Heide,
    M. F. Herbst, and D. L. Poole

             Previous Authors, Complete List of Code Contributors,
                       and Citations for Specific Modules
    https://github.com/psi4/psi4/blob/master/codemeta.json
    https://github.com/psi4/psi4/graphs/contributors
    http://psicode.org/psi4manual/master/introduction.html#citing-psifour

    -----------------------------------------------------------------------


    Psi4 started on: Tuesday, 23 January 2024 01:27AM

    Process ID: 124129
    Host:       ddmfs1
    PSIDATADIR: /ddmfs1b/softs/psi4conda/share/psi4
    Memory:     500.0 MiB
    Threads:    20
    
  ==> Input File <==

--------------------------------------------------------------------------
MEMORY 60 GB

molecule dimer {
0 1
Gh(Br)     0.000000     0.000000     0.000000
Gh(O)     -3.013040     1.056931    -1.652607
Gh(H)     -3.813809     1.223376    -2.275182
Gh(H)     -2.526972     0.362284    -2.116240
Gh(O)      1.719771     0.511071     2.753016
Gh(H)      1.308822     0.434263     1.867281
Gh(H)      1.064406     1.091765     3.184491
Gh(O)      2.086628    -1.623677    -2.132399
Gh(H)      1.634885    -1.468970    -1.284862
Gh(H)      2.494299    -0.787280    -2.350925
O          1.986251    -2.482713     1.611018
H          2.888043    -2.189647     1.545517
H          1.404825    -1.913044     1.045753
Gh(O)     -1.890204    -2.588045    -0.295930
Gh(H)     -1.108235    -1.992414    -0.188325
Gh(H)     -2.004398    -3.102901     0.508548

units ang
no_reorient
no_com
symmetry c1
}

set {
basis        aug-cc-pVTZ
scf_type     df
}

energy("mp2")
--------------------------------------------------------------------------

  Memory set to  55.879 GiB by Python driver.

Scratch directory: /ddmfs1a/scratch/
   => Libint2 <=

    Primary   basis highest AM E, G, H:  5, 4, 3
    Auxiliary basis highest AM E, G, H:  6, 5, 4
    Onebody   basis highest AM E, G, H:  6, 5, 4
    Solid Harmonics ordering:            gaussian

*** tstart() called on ddmfs1
*** at Tue Jan 23 01:27:22 2024

   => Loading Basis Set <=

    Name: AUG-CC-PVTZ
    Role: ORBITAL
    Keyword: BASIS
    atoms 1                            entry BR         line  4208 file /ddmfs1b/softs/psi4conda/share/psi4/basis/aug-cc-pvtz.gbs 
    atoms 2, 5, 8, 11, 14              entry O          line   331 file /ddmfs1b/softs/psi4conda/share/psi4/basis/aug-cc-pvtz.gbs 
    atoms 3-4, 6-7, 9-10, 12-13, 15-16 entry H          line    40 file /ddmfs1b/softs/psi4conda/share/psi4/basis/aug-cc-pvtz.gbs 


         ---------------------------------------------------------
                                   SCF
               by Justin Turney, Rob Parrish, Andy Simmonett
                          and Daniel G. A. Smith
                              RHF Reference
                       20 Threads,  57220 MiB Core
         ---------------------------------------------------------

  ==> Geometry <==

    Molecular point group: c1
    Full point group: C1

    Geometry (in Angstrom), charge = 0, multiplicity = 1:

       Center              X                  Y                   Z               Mass       
    ------------   -----------------  -----------------  -----------------  -----------------
      Gh(BR)          0.000000000000     0.000000000000     0.000000000000    78.918337600000
      Gh(O)          -3.013040000000     1.056931000000    -1.652607000000    15.994914619570
      Gh(H)          -3.813809000000     1.223376000000    -2.275182000000     1.007825032230
      Gh(H)          -2.526972000000     0.362284000000    -2.116240000000     1.007825032230
      Gh(O)           1.719771000000     0.511071000000     2.753016000000    15.994914619570
      Gh(H)           1.308822000000     0.434263000000     1.867281000000     1.007825032230
      Gh(H)           1.064406000000     1.091765000000     3.184491000000     1.007825032230
      Gh(O)           2.086628000000    -1.623677000000    -2.132399000000    15.994914619570
      Gh(H)           1.634885000000    -1.468970000000    -1.284862000000     1.007825032230
      Gh(H)           2.494299000000    -0.787280000000    -2.350925000000     1.007825032230
         O            1.986251000000    -2.482713000000     1.611018000000    15.994914619570
         H            2.888043000000    -2.189647000000     1.545517000000     1.007825032230
         H            1.404825000000    -1.913044000000     1.045753000000     1.007825032230
      Gh(O)          -1.890204000000    -2.588045000000    -0.295930000000    15.994914619570
      Gh(H)          -1.108235000000    -1.992414000000    -0.188325000000     1.007825032230
      Gh(H)          -2.004398000000    -3.102901000000     0.508548000000     1.007825032230

  Running in c1 symmetry.

  Rotational constants: A =      0.03567  B =      0.02264  C =      0.01936 [cm^-1]
  Rotational constants: A =   1069.45678  B =    678.65428  C =    580.29145 [MHz]
  Nuclear repulsion =    9.058747889436164

  Charge       = 0
  Multiplicity = 1
  Electrons    = 10
  Nalpha       = 5
  Nbeta        = 5

  ==> Algorithm <==

  SCF Algorithm Type is DF.
  DIIS enabled.
  MOM disabled.
  Fractional occupation disabled.
  Guess Type is SAD.
  Energy threshold   = 1.00e-08
  Density threshold  = 1.00e-08
  Integral threshold = 1.00e-12

  ==> Primary Basis <==

  Basis Set: AUG-CC-PVTZ
    Blend: AUG-CC-PVTZ
    Number of shells: 179
    Number of basis functions: 519
    Number of Cartesian functions: 594
    Spherical Harmonics?: true
    Max angular momentum: 3

   => Loading Basis Set <=

    Name: (AUG-CC-PVTZ AUX)
    Role: JKFIT
    Keyword: DF_BASIS_SCF
    atoms 1                            entry BR         line  1492 file /ddmfs1b/softs/psi4conda/share/psi4/basis/aug-cc-pvtz-jkfit.gbs 
    atoms 2, 5, 8, 11, 14              entry O          line   286 file /ddmfs1b/softs/psi4conda/share/psi4/basis/aug-cc-pvtz-jkfit.gbs 
    atoms 3-4, 6-7, 9-10, 12-13, 15-16 entry H          line    70 file /ddmfs1b/softs/psi4conda/share/psi4/basis/aug-cc-pvtz-jkfit.gbs 

  ==> Integral Setup <==

  DFHelper Memory: AOs need 2.185 GiB; user supplied 41.910 GiB. 
  Using in-core AOs.

  ==> MemDFJK: Density-Fitted J/K Matrices <==

    J tasked:                   Yes
    K tasked:                   Yes
    wK tasked:                   No
    OpenMP threads:              20
    Memory [MiB]:             42915
    Algorithm:                 Core
    Schwarz Cutoff:           1E-12
    Mask sparsity (%):      15.6229
    Fitting Condition:        1E-10

   => Auxiliary Basis Set <=

  Basis Set: (AUG-CC-PVTZ AUX)
    Blend: AUG-CC-PVTZ-JKFIT
    Number of shells: 348
    Number of basis functions: 1228
    Number of Cartesian functions: 1534
    Spherical Harmonics?: true
    Max angular momentum: 4

  Minimum eigenvalue in the overlap matrix is 1.5406099629E-04.
  Reciprocal condition number of the overlap matrix is 1.2802956821E-05.
    Using symmetric orthogonalization.

  ==> Pre-Iterations <==

  SCF Guess: Superposition of Atomic Densities via on-the-fly atomic UHF (no occupation information).

   -------------------------
    Irrep   Nso     Nmo    
   -------------------------
     A        519     519 
   -------------------------
    Total     519     519
   -------------------------

  ==> Iterations <==

                           Total Energy        Delta E     RMS |[F,P]|

   @DF-RHF iter SAD:   -75.45688220738937   -7.54569e+01   0.00000e+00 
   @DF-RHF iter   1:   -75.97367108215195   -5.16789e-01   9.01751e-04 ADIIS/DIIS
   @DF-RHF iter   2:   -76.02571006028425   -5.20390e-02   6.19762e-04 ADIIS/DIIS
   @DF-RHF iter   3:   -76.05772319289554   -3.20131e-02   4.22375e-05 DIIS
   @DF-RHF iter   4:   -76.05813717249809   -4.13980e-04   1.04293e-05 DIIS
   @DF-RHF iter   5:   -76.05816470179109   -2.75293e-05   2.40313e-06 DIIS
   @DF-RHF iter   6:   -76.05816705183751   -2.35005e-06   5.43788e-07 DIIS
   @DF-RHF iter   7:   -76.05816718464172   -1.32804e-07   1.02564e-07 DIIS
   @DF-RHF iter   8:   -76.05816718878174   -4.14002e-09   1.72198e-08 DIIS
   @DF-RHF iter   9:   -76.05816718887607   -9.43317e-11   4.45319e-09 DIIS
  Energy and wave function converged.


  ==> Post-Iterations <==

    Orbital Energies [Eh]
    ---------------------

    Doubly Occupied:                                                      

       1A    -20.566896     2A     -1.343375     3A     -0.720318  
       4A     -0.571818     5A     -0.507608  

    Virtual:                                                              

       6A      0.014556     7A      0.030221     8A      0.035555  
       9A      0.040397    10A      0.047338    11A      0.058436  
      12A      0.059859    13A      0.069256    14A      0.077473  
      15A      0.083825    16A      0.087328    17A      0.107230  
      18A      0.108839    19A      0.115706    20A      0.130731  
      21A      0.133892    22A      0.135119    23A      0.146332  
      24A      0.155937    25A      0.158778    26A      0.164632  
      27A      0.169021    28A      0.174515    29A      0.177619  
      30A      0.181333    31A      0.187883    32A      0.193847  
      33A      0.205936    34A      0.212612    35A      0.213510  
      36A      0.221766    37A      0.229670    38A      0.234015  
      39A      0.239629    40A      0.258902    41A      0.266623  
      42A      0.271312    43A      0.278690    44A      0.292177  
      45A      0.295446    46A      0.298266    47A      0.306671  
      48A      0.314778    49A      0.317644    50A      0.322342  
      51A      0.335749    52A      0.336738    53A      0.343393  
      54A      0.349314    55A      0.352565    56A      0.353210  
      57A      0.358023    58A      0.364002    59A      0.369848  
      60A      0.379817    61A      0.383501    62A      0.392933  
      63A      0.397544    64A      0.407239    65A      0.409005  
      66A      0.414781    67A      0.420120    68A      0.425512  
      69A      0.437969    70A      0.439953    71A      0.449715  
      72A      0.451305    73A      0.462194    74A      0.470555  
      75A      0.478371    76A      0.502098    77A      0.516129  
      78A      0.529626    79A      0.532918    80A      0.542262  
      81A      0.550463    82A      0.561987    83A      0.577572  
      84A      0.588172    85A      0.605954    86A      0.610599  
      87A      0.622398    88A      0.640185    89A      0.648414  
      90A      0.669777    91A      0.686859    92A      0.692748  
      93A      0.709500    94A      0.717792    95A      0.730217  
      96A      0.732203    97A      0.736624    98A      0.751718  
      99A      0.764387   100A      0.770588   101A      0.780414  
     102A      0.796060   103A      0.801756   104A      0.808755  
     105A      0.810983   106A      0.811770   107A      0.820932  
     108A      0.822999   109A      0.825462   110A      0.832265  
     111A      0.835829   112A      0.840566   113A      0.843776  
     114A      0.851020   115A      0.857961   116A      0.862862  
     117A      0.865736   118A      0.872520   119A      0.878560  
     120A      0.884687   121A      0.888339   122A      0.899376  
     123A      0.907370   124A      0.914277   125A      0.923062  
     126A      0.929772   127A      0.938633   128A      0.942296  
     129A      0.950577   130A      0.958672   131A      0.966148  
     132A      0.974832   133A      0.978973   134A      0.982007  
     135A      0.987847   136A      0.989943   137A      1.000341  
     138A      1.003721   139A      1.011742   140A      1.015846  
     141A      1.019146   142A      1.035450   143A      1.037866  
     144A      1.046084   145A      1.049550   146A      1.053927  
     147A      1.061804   148A      1.070094   149A      1.073507  
     150A      1.079570   151A      1.089917   152A      1.094093  
     153A      1.099025   154A      1.103646   155A      1.105718  
     156A      1.122655   157A      1.129679   158A      1.135966  
     159A      1.146524   160A      1.154613   161A      1.160558  
     162A      1.171635   163A      1.180198   164A      1.189749  
     165A      1.195515   166A      1.215246   167A      1.226103  
     168A      1.235279   169A      1.238949   170A      1.249339  
     171A      1.266948   172A      1.272873   173A      1.281794  
     174A      1.288215   175A      1.300948   176A      1.317824  
     177A      1.324231   178A      1.330441   179A      1.336807  
     180A      1.354976   181A      1.365935   182A      1.385324  
     183A      1.389873   184A      1.408587   185A      1.412176  
     186A      1.425479   187A      1.436950   188A      1.446767  
     189A      1.468329   190A      1.471909   191A      1.478274  
     192A      1.504983   193A      1.521272   194A      1.531159  
     195A      1.541979   196A      1.550130   197A      1.558200  
     198A      1.584110   199A      1.607007   200A      1.625362  
     201A      1.646383   202A      1.647754   203A      1.676184  
     204A      1.687737   205A      1.692100   206A      1.718962  
     207A      1.730138   208A      1.737628   209A      1.742954  
     210A      1.752120   211A      1.762607   212A      1.770438  
     213A      1.776667   214A      1.786281   215A      1.798630  
     216A      1.804296   217A      1.819184   218A      1.834537  
     219A      1.837670   220A      1.852104   221A      1.867840  
     222A      1.870493   223A      1.884727   224A      1.895630  
     225A      1.910806   226A      1.926684   227A      1.933942  
     228A      1.952499   229A      1.968303   230A      1.976686  
     231A      1.994803   232A      2.024317   233A      2.080712  
     234A      2.104437   235A      2.120518   236A      2.159883  
     237A      2.177481   238A      2.220402   239A      2.356839  
     240A      2.384835   241A      2.404868   242A      2.417376  
     243A      2.429356   244A      2.445574   245A      2.464606  
     246A      2.469948   247A      2.473120   248A      2.484862  
     249A      2.502289   250A      2.510988   251A      2.522923  
     252A      2.540771   253A      2.541663   254A      2.547252  
     255A      2.557963   256A      2.565522   257A      2.572398  
     258A      2.574352   259A      2.599600   260A      2.609589  
     261A      2.616625   262A      2.624762   263A      2.635772  
     264A      2.647576   265A      2.651310   266A      2.665980  
     267A      2.677937   268A      2.681746   269A      2.695308  
     270A      2.711024   271A      2.720760   272A      2.739569  
     273A      2.754105   274A      2.760405   275A      2.765298  
     276A      2.770212   277A      2.786316   278A      2.817252  
     279A      2.863118   280A      2.872232   281A      2.895105  
     282A      2.923171   283A      2.936293   284A      2.968324  
     285A      3.000364   286A      3.004960   287A      3.034693  
     288A      3.071750   289A      3.116216   290A      3.134365  
     291A      3.175615   292A      3.187981   293A      3.193925  
     294A      3.206514   295A      3.214703   296A      3.221634  
     297A      3.233903   298A      3.236589   299A      3.245032  
     300A      3.256184   301A      3.293432   302A      3.297824  
     303A      3.308334   304A      3.323615   305A      3.340548  
     306A      3.371974   307A      3.387919   308A      3.400138  
     309A      3.406410   310A      3.427953   311A      3.449287  
     312A      3.462948   313A      3.469966   314A      3.503976  
     315A      3.541182   316A      3.549619   317A      3.554748  
     318A      3.560225   319A      3.585416   320A      3.614234  
     321A      3.632709   322A      3.641285   323A      3.682644  
     324A      3.712037   325A      3.742157   326A      3.743979  
     327A      3.767252   328A      3.802393   329A      3.829883  
     330A      3.876687   331A      3.909038   332A      3.983465  
     333A      4.027842   334A      4.144036   335A      4.265588  
     336A      4.304638   337A      4.324007   338A      4.336847  
     339A      4.388039   340A      4.406292   341A      4.417108  
     342A      4.424103   343A      4.433434   344A      4.438468  
     345A      4.467994   346A      4.479510   347A      4.483692  
     348A      4.495704   349A      4.508949   350A      4.534854  
     351A      4.540821   352A      4.543364   353A      4.565531  
     354A      4.570402   355A      4.608517   356A      4.625116  
     357A      4.628658   358A      4.643646   359A      4.651260  
     360A      4.674471   361A      4.700545   362A      4.713538  
     363A      4.732978   364A      4.769325   365A      4.794795  
     366A      4.844149   367A      4.862052   368A      4.869293  
     369A      4.885419   370A      4.900531   371A      4.915970  
     372A      4.925400   373A      4.934617   374A      4.941883  
     375A      4.956677   376A      4.965811   377A      4.982103  
     378A      4.989636   379A      5.016565   380A      5.118099  
     381A      5.165806   382A      5.207402   383A      5.217384  
     384A      5.230326   385A      5.254972   386A      5.306296  
     387A      5.372591   388A      5.394025   389A      5.419565  
     390A      5.428175   391A      5.459866   392A      5.513001  
     393A      5.521377   394A      5.555966   395A      5.569382  
     396A      5.593240   397A      5.605679   398A      5.636221  
     399A      5.645421   400A      5.656366   401A      5.661444  
     402A      5.770938   403A      5.793784   404A      5.821189  
     405A      5.875845   406A      5.919740   407A      6.097830  
     408A      6.137723   409A      6.155542   410A      6.184777  
     411A      6.217126   412A      6.263755   413A      6.318066  
     414A      6.355325   415A      6.434148   416A      6.449701  
     417A      6.591246   418A      6.623591   419A      6.673306  
     420A      6.749984   421A      6.800780   422A      6.899522  
     423A      6.928972   424A      7.030992   425A      7.046368  
     426A      7.082421   427A      7.220878   428A      7.314450  
     429A      7.340407   430A      7.379005   431A      7.442312  
     432A      7.486436   433A      7.668846   434A      7.721226  
     435A      7.732397   436A      7.747681   437A      7.756796  
     438A      7.788830   439A      7.790207   440A      7.837617  
     441A      7.892537   442A      7.916327   443A      7.972996  
     444A      8.017950   445A      8.034869   446A      8.059881  
     447A      8.076961   448A      8.088666   449A      8.115004  
     450A      8.220425   451A      8.229752   452A      8.252964  
     453A      8.266636   454A      8.279661   455A      8.295047  
     456A      8.548879   457A      8.691600   458A      8.725372  
     459A      8.735390   460A      8.748164   461A      8.795732  
     462A      8.880690   463A      8.919342   464A      8.945511  
     465A      9.631868   466A      9.678268   467A      9.696927  
     468A      9.705754   469A      9.838249   470A      9.861544  
     471A      9.885112   472A      9.905807   473A      9.979744  
     474A     10.062618   475A     10.076623   476A     10.120483  
     477A     10.222174   478A     10.287612   479A     10.299142  
     480A     10.328870   481A     10.926567   482A     10.933872  
     483A     11.093303   484A     11.176461   485A     11.203984  
     486A     11.539140   487A     11.728437   488A     11.741243  
     489A     11.792320   490A     11.806713   491A     11.994113  
     492A     12.042402   493A     12.110438   494A     13.350476  
     495A     13.509624   496A     13.560827   497A     13.579641  
     498A     13.743092   499A     13.840833   500A     13.868661  
     501A     13.931773   502A     13.962488   503A     13.989309  
     504A     14.128418   505A     16.349760   506A     26.326164  
     507A     26.348249   508A     26.454324   509A     26.527901  
     510A     26.651808   511A     46.451071   512A     62.939993  
     513A     65.242325   514A     65.503216   515A     65.748753  
     516A    138.840686   517A    139.058387   518A    139.390306  
     519A    711.602966  

    Final Occupation by Irrep:
              A 
    DOCC [     5 ]
    NA   [     5 ]
    NB   [     5 ]

  @DF-RHF Final Energy:   -76.05816718887607

   => Energetics <=

    Nuclear Repulsion Energy =              9.0587478894361642
    One-Electron Energy =                -122.8137971696851736
    Two-Electron Energy =                  37.6968820913729417
    Total Energy =                        -76.0581671888760695

Computation Completed


Properties will be evaluated at   0.000000,   0.000000,   0.000000 [a0]

Properties computed using the SCF density matrix


 Multipole Moments:

 ------------------------------------------------------------------------------------
     Multipole            Electronic (a.u.)      Nuclear  (a.u.)        Total (a.u.)
 ------------------------------------------------------------------------------------

 L = 1.  Multiply by 2.5417464519 to convert [e a0] to [Debye]
 Dipole X            :        -37.9200978           38.1401081            0.2200103
 Dipole Y            :         45.8638324          -45.2861433            0.5776890
 Dipole Z            :        -29.6733137           29.2518530           -0.4214607
 Magnitude           :                                                    0.7481699

 ------------------------------------------------------------------------------------

*** tstop() called on ddmfs1 at Tue Jan 23 01:27:30 2024
Module time:
	user time   =     101.32 seconds =       1.69 minutes
	system time =       6.80 seconds =       0.11 minutes
	total time  =          8 seconds =       0.13 minutes
Total time:
	user time   =     101.32 seconds =       1.69 minutes
	system time =       6.80 seconds =       0.11 minutes
	total time  =          8 seconds =       0.13 minutes

*** tstart() called on ddmfs1
*** at Tue Jan 23 01:27:30 2024


  //>>>>>>>>>>>>>>>>>>>>>>>>>>>>>>>>>>>//
  //               DFMP2               //
  //<<<<<<<<<<<<<<<<<<<<<<<<<<<<<<<<<<<//

   => Loading Basis Set <=

    Name: (AUG-CC-PVTZ AUX)
    Role: RIFIT
    Keyword: DF_BASIS_MP2
    atoms 1                            entry BR         line  1248 file /ddmfs1b/softs/psi4conda/share/psi4/basis/aug-cc-pvtz-ri.gbs 
    atoms 2, 5, 8, 11, 14              entry O          line   264 file /ddmfs1b/softs/psi4conda/share/psi4/basis/aug-cc-pvtz-ri.gbs 
    atoms 3-4, 6-7, 9-10, 12-13, 15-16 entry H          line    30 file /ddmfs1b/softs/psi4conda/share/psi4/basis/aug-cc-pvtz-ri.gbs 

	 --------------------------------------------------------
	                          DF-MP2                         
	      2nd-Order Density-Fitted Moller-Plesset Theory     
	              RMP2 Wavefunction,  20 Threads             
	                                                         
	        Rob Parrish, Justin Turney, Andy Simmonett,      
	           Ed Hohenstein, and C. David Sherrill          
	 --------------------------------------------------------

   => Auxiliary Basis Set <=

  Basis Set: (AUG-CC-PVTZ AUX)
    Blend: AUG-CC-PVTZ-RI
    Number of shells: 323
    Number of basis functions: 1181
    Number of Cartesian functions: 1491
    Spherical Harmonics?: true
    Max angular momentum: 5

	 --------------------------------------------------------
	                 NBF =   519, NAUX =  1181
	 --------------------------------------------------------
	   CLASS    FOCC     OCC    AOCC    AVIR     VIR    FVIR
	   PAIRS       0       5       5     514     514       0
	 --------------------------------------------------------

	-----------------------------------------------------------
	 ==================> DF-MP2 Energies <==================== 
	-----------------------------------------------------------
	 Reference Energy          =     -76.0581671888760695 [Eh]
	 Singles Energy            =      -0.0000000000000000 [Eh]
	 Same-Spin Energy          =      -0.0685532236805663 [Eh]
	 Opposite-Spin Energy      =      -0.2163397789227837 [Eh]
	 Correlation Energy        =      -0.2848930026033500 [Eh]
	 Total Energy              =     -76.3430601914794238 [Eh]
	-----------------------------------------------------------
	 ================> DF-SCS-MP2 Energies <================== 
	-----------------------------------------------------------
	 SCS Same-Spin Scale       =       0.3333333333333333 [-]
	 SCS Opposite-Spin Scale   =       1.2000000000000000 [-]
	 SCS Same-Spin Energy      =      -0.0228510745601888 [Eh]
	 SCS Opposite-Spin Energy  =      -0.2596077347073405 [Eh]
	 SCS Correlation Energy    =      -0.2824588092675293 [Eh]
	 SCS Total Energy          =     -76.3406259981435937 [Eh]
	-----------------------------------------------------------


*** tstop() called on ddmfs1 at Tue Jan 23 01:27:42 2024
Module time:
	user time   =      34.08 seconds =       0.57 minutes
	system time =       2.50 seconds =       0.04 minutes
	total time  =         12 seconds =       0.20 minutes
Total time:
	user time   =     135.42 seconds =       2.26 minutes
	system time =       9.30 seconds =       0.15 minutes
	total time  =         20 seconds =       0.33 minutes

    Psi4 stopped on: Tuesday, 23 January 2024 01:27AM
    Psi4 wall time for execution: 0:00:19.64

*** Psi4 exiting successfully. Buy a developer a beer!
