
    -----------------------------------------------------------------------
          Psi4: An Open-Source Ab Initio Electronic Structure Package
                               Psi4 1.8.2 release

                         Git: Rev {} zzzzzzz 


    D. G. A. Smith, L. A. Burns, A. C. Simmonett, R. M. Parrish,
    M. C. Schieber, R. Galvelis, P. Kraus, H. Kruse, R. Di Remigio,
    A. Alenaizan, A. M. James, S. Lehtola, J. P. Misiewicz, M. Scheurer,
    R. A. Shaw, J. B. Schriber, Y. Xie, Z. L. Glick, D. A. Sirianni,
    J. S. O'Brien, J. M. Waldrop, A. Kumar, E. G. Hohenstein,
    B. P. Pritchard, B. R. Brooks, H. F. Schaefer III, A. Yu. Sokolov,
    K. Patkowski, A. E. DePrince III, U. Bozkaya, R. A. King,
    F. A. Evangelista, J. M. Turney, T. D. Crawford, C. D. Sherrill,
    J. Chem. Phys. 152(18) 184108 (2020). https://doi.org/10.1063/5.0006002

                            Additional Code Authors
    E. T. Seidl, C. L. Janssen, E. F. Valeev, M. L. Leininger,
    J. F. Gonthier, R. M. Richard, H. R. McAlexander, M. Saitow, X. Wang,
    P. Verma, M. H. Lechner, A. Jiang, S. Behnle, A. G. Heide,
    M. F. Herbst, and D. L. Poole

             Previous Authors, Complete List of Code Contributors,
                       and Citations for Specific Modules
    https://github.com/psi4/psi4/blob/master/codemeta.json
    https://github.com/psi4/psi4/graphs/contributors
    http://psicode.org/psi4manual/master/introduction.html#citing-psifour

    -----------------------------------------------------------------------


    Psi4 started on: Tuesday, 23 January 2024 12:14AM

    Process ID: 119975
    Host:       ddmfs1
    PSIDATADIR: /ddmfs1b/softs/psi4conda/share/psi4
    Memory:     500.0 MiB
    Threads:    20
    
  ==> Input File <==

--------------------------------------------------------------------------
MEMORY 60 GB

molecule dimer {
0 1
Gh(Br)     0.000000     0.000000     0.000000
Gh(O)     -1.098908    -3.071508    -0.487534
Gh(H)     -0.293885    -3.421066    -1.019080
Gh(H)     -0.905828    -2.104128    -0.516759
Gh(O)      1.164874    -2.706180     2.071644
Gh(H)      1.253804    -2.143184     2.914441
Gh(H)      0.471840    -2.302890     1.514895
Gh(O)      0.575450    -0.529067    -2.994827
Gh(H)      0.141283    -0.085171    -2.247597
Gh(H)      1.099265    -1.253083    -2.580112
Gh(O)     -0.792664     1.020897     3.205548
Gh(H)      0.118432     0.983099     2.910144
Gh(H)     -0.793424     1.323019     4.123454
O          3.168574    -1.492021    -0.608818
H          3.582456    -1.338518     0.262661
H          2.354410    -0.982806    -0.504585

units ang
no_reorient
no_com
symmetry c1
}

set {
basis        aug-cc-pVTZ
scf_type     df
}

energy("mp2")
--------------------------------------------------------------------------

  Memory set to  55.879 GiB by Python driver.

Scratch directory: /ddmfs1a/scratch/
   => Libint2 <=

    Primary   basis highest AM E, G, H:  5, 4, 3
    Auxiliary basis highest AM E, G, H:  6, 5, 4
    Onebody   basis highest AM E, G, H:  6, 5, 4
    Solid Harmonics ordering:            gaussian

*** tstart() called on ddmfs1
*** at Tue Jan 23 00:14:35 2024

   => Loading Basis Set <=

    Name: AUG-CC-PVTZ
    Role: ORBITAL
    Keyword: BASIS
    atoms 1                            entry BR         line  4208 file /ddmfs1b/softs/psi4conda/share/psi4/basis/aug-cc-pvtz.gbs 
    atoms 2, 5, 8, 11, 14              entry O          line   331 file /ddmfs1b/softs/psi4conda/share/psi4/basis/aug-cc-pvtz.gbs 
    atoms 3-4, 6-7, 9-10, 12-13, 15-16 entry H          line    40 file /ddmfs1b/softs/psi4conda/share/psi4/basis/aug-cc-pvtz.gbs 


         ---------------------------------------------------------
                                   SCF
               by Justin Turney, Rob Parrish, Andy Simmonett
                          and Daniel G. A. Smith
                              RHF Reference
                       20 Threads,  57220 MiB Core
         ---------------------------------------------------------

  ==> Geometry <==

    Molecular point group: c1
    Full point group: C1

    Geometry (in Angstrom), charge = 0, multiplicity = 1:

       Center              X                  Y                   Z               Mass       
    ------------   -----------------  -----------------  -----------------  -----------------
      Gh(BR)          0.000000000000     0.000000000000     0.000000000000    78.918337600000
      Gh(O)          -1.098908000000    -3.071508000000    -0.487534000000    15.994914619570
      Gh(H)          -0.293885000000    -3.421066000000    -1.019080000000     1.007825032230
      Gh(H)          -0.905828000000    -2.104128000000    -0.516759000000     1.007825032230
      Gh(O)           1.164874000000    -2.706180000000     2.071644000000    15.994914619570
      Gh(H)           1.253804000000    -2.143184000000     2.914441000000     1.007825032230
      Gh(H)           0.471840000000    -2.302890000000     1.514895000000     1.007825032230
      Gh(O)           0.575450000000    -0.529067000000    -2.994827000000    15.994914619570
      Gh(H)           0.141283000000    -0.085171000000    -2.247597000000     1.007825032230
      Gh(H)           1.099265000000    -1.253083000000    -2.580112000000     1.007825032230
      Gh(O)          -0.792664000000     1.020897000000     3.205548000000    15.994914619570
      Gh(H)           0.118432000000     0.983099000000     2.910144000000     1.007825032230
      Gh(H)          -0.793424000000     1.323019000000     4.123454000000     1.007825032230
         O            3.168574000000    -1.492021000000    -0.608818000000    15.994914619570
         H            3.582456000000    -1.338518000000     0.262661000000     1.007825032230
         H            2.354410000000    -0.982806000000    -0.504585000000     1.007825032230

  Running in c1 symmetry.

  Rotational constants: A =      0.03061  B =      0.02543  C =      0.01971 [cm^-1]
  Rotational constants: A =    917.80032  B =    762.32761  C =    590.95276 [MHz]
  Nuclear repulsion =    9.071133158172689

  Charge       = 0
  Multiplicity = 1
  Electrons    = 10
  Nalpha       = 5
  Nbeta        = 5

  ==> Algorithm <==

  SCF Algorithm Type is DF.
  DIIS enabled.
  MOM disabled.
  Fractional occupation disabled.
  Guess Type is SAD.
  Energy threshold   = 1.00e-08
  Density threshold  = 1.00e-08
  Integral threshold = 1.00e-12

  ==> Primary Basis <==

  Basis Set: AUG-CC-PVTZ
    Blend: AUG-CC-PVTZ
    Number of shells: 179
    Number of basis functions: 519
    Number of Cartesian functions: 594
    Spherical Harmonics?: true
    Max angular momentum: 3

   => Loading Basis Set <=

    Name: (AUG-CC-PVTZ AUX)
    Role: JKFIT
    Keyword: DF_BASIS_SCF
    atoms 1                            entry BR         line  1492 file /ddmfs1b/softs/psi4conda/share/psi4/basis/aug-cc-pvtz-jkfit.gbs 
    atoms 2, 5, 8, 11, 14              entry O          line   286 file /ddmfs1b/softs/psi4conda/share/psi4/basis/aug-cc-pvtz-jkfit.gbs 
    atoms 3-4, 6-7, 9-10, 12-13, 15-16 entry H          line    70 file /ddmfs1b/softs/psi4conda/share/psi4/basis/aug-cc-pvtz-jkfit.gbs 

  ==> Integral Setup <==

  DFHelper Memory: AOs need 2.256 GiB; user supplied 41.910 GiB. 
  Using in-core AOs.

  ==> MemDFJK: Density-Fitted J/K Matrices <==

    J tasked:                   Yes
    K tasked:                   Yes
    wK tasked:                   No
    OpenMP threads:              20
    Memory [MiB]:             42915
    Algorithm:                 Core
    Schwarz Cutoff:           1E-12
    Mask sparsity (%):      12.7524
    Fitting Condition:        1E-10

   => Auxiliary Basis Set <=

  Basis Set: (AUG-CC-PVTZ AUX)
    Blend: AUG-CC-PVTZ-JKFIT
    Number of shells: 348
    Number of basis functions: 1228
    Number of Cartesian functions: 1534
    Spherical Harmonics?: true
    Max angular momentum: 4

  Minimum eigenvalue in the overlap matrix is 1.4585486635E-04.
  Reciprocal condition number of the overlap matrix is 1.1209991875E-05.
    Using symmetric orthogonalization.

  ==> Pre-Iterations <==

  SCF Guess: Superposition of Atomic Densities via on-the-fly atomic UHF (no occupation information).

   -------------------------
    Irrep   Nso     Nmo    
   -------------------------
     A        519     519 
   -------------------------
    Total     519     519
   -------------------------

  ==> Iterations <==

                           Total Energy        Delta E     RMS |[F,P]|

   @DF-RHF iter SAD:   -75.46612362474595   -7.54661e+01   0.00000e+00 
   @DF-RHF iter   1:   -75.97329379469028   -5.07170e-01   9.01190e-04 ADIIS/DIIS
   @DF-RHF iter   2:   -76.02551487144993   -5.22211e-02   6.25423e-04 ADIIS/DIIS
   @DF-RHF iter   3:   -76.05823832493820   -3.27235e-02   4.24539e-05 DIIS
   @DF-RHF iter   4:   -76.05864030740850   -4.01982e-04   1.04611e-05 DIIS
   @DF-RHF iter   5:   -76.05866749903504   -2.71916e-05   2.43611e-06 DIIS
   @DF-RHF iter   6:   -76.05866979787720   -2.29884e-06   5.27498e-07 DIIS
   @DF-RHF iter   7:   -76.05866991420918   -1.16332e-07   8.95054e-08 DIIS
   @DF-RHF iter   8:   -76.05866991709151   -2.88233e-09   1.50278e-08 DIIS
   @DF-RHF iter   9:   -76.05866991715448   -6.29683e-11   3.60307e-09 DIIS
  Energy and wave function converged.


  ==> Post-Iterations <==

    Orbital Energies [Eh]
    ---------------------

    Doubly Occupied:                                                      

       1A    -20.571462     2A     -1.349405     3A     -0.701807  
       4A     -0.590490     5A     -0.510446  

    Virtual:                                                              

       6A      0.014656     7A      0.032567     8A      0.035899  
       9A      0.039448    10A      0.053614    11A      0.056246  
      12A      0.061612    13A      0.067834    14A      0.071069  
      15A      0.085867    16A      0.092108    17A      0.095291  
      18A      0.109208    19A      0.119104    20A      0.125949  
      21A      0.139769    22A      0.142964    23A      0.145682  
      24A      0.148418    25A      0.156703    26A      0.165219  
      27A      0.168570    28A      0.176540    29A      0.181159  
      30A      0.186256    31A      0.187794    32A      0.196957  
      33A      0.203174    34A      0.206209    35A      0.221507  
      36A      0.225510    37A      0.232833    38A      0.238548  
      39A      0.248865    40A      0.254735    41A      0.261885  
      42A      0.267113    43A      0.277522    44A      0.290622  
      45A      0.295467    46A      0.301635    47A      0.309003  
      48A      0.315696    49A      0.320130    50A      0.334292  
      51A      0.337009    52A      0.342978    53A      0.346973  
      54A      0.350071    55A      0.361150    56A      0.363672  
      57A      0.369142    58A      0.375076    59A      0.383489  
      60A      0.385773    61A      0.393681    62A      0.398566  
      63A      0.405598    64A      0.409521    65A      0.417595  
      66A      0.427457    67A      0.431146    68A      0.433568  
      69A      0.447888    70A      0.455087    71A      0.459448  
      72A      0.464529    73A      0.470335    74A      0.473677  
      75A      0.488089    76A      0.495806    77A      0.501020  
      78A      0.515228    79A      0.530866    80A      0.531555  
      81A      0.552795    82A      0.565020    83A      0.580873  
      84A      0.590967    85A      0.601213    86A      0.615535  
      87A      0.634428    88A      0.643253    89A      0.654793  
      90A      0.672493    91A      0.695292    92A      0.705058  
      93A      0.712379    94A      0.722907    95A      0.726238  
      96A      0.744093    97A      0.754210    98A      0.756158  
      99A      0.761140   100A      0.769148   101A      0.775829  
     102A      0.781230   103A      0.781726   104A      0.795369  
     105A      0.803764   106A      0.805306   107A      0.810682  
     108A      0.820176   109A      0.829757   110A      0.834613  
     111A      0.839711   112A      0.847898   113A      0.848850  
     114A      0.859352   115A      0.864580   116A      0.866041  
     117A      0.877953   118A      0.880388   119A      0.888599  
     120A      0.895432   121A      0.899404   122A      0.905665  
     123A      0.913031   124A      0.915934   125A      0.924324  
     126A      0.932532   127A      0.937891   128A      0.944113  
     129A      0.950590   130A      0.956233   131A      0.964766  
     132A      0.975282   133A      0.977109   134A      0.987827  
     135A      0.990436   136A      0.995834   137A      1.004575  
     138A      1.009014   139A      1.020982   140A      1.027931  
     141A      1.029633   142A      1.033984   143A      1.043970  
     144A      1.055054   145A      1.064420   146A      1.067903  
     147A      1.080794   148A      1.083581   149A      1.093880  
     150A      1.101350   151A      1.107565   152A      1.115451  
     153A      1.123575   154A      1.127534   155A      1.136518  
     156A      1.142976   157A      1.159952   158A      1.161739  
     159A      1.179161   160A      1.188707   161A      1.197059  
     162A      1.199444   163A      1.204859   164A      1.216249  
     165A      1.222863   166A      1.230115   167A      1.238616  
     168A      1.252248   169A      1.267977   170A      1.274411  
     171A      1.286956   172A      1.291469   173A      1.299991  
     174A      1.316623   175A      1.326671   176A      1.332062  
     177A      1.341850   178A      1.361121   179A      1.370893  
     180A      1.373495   181A      1.389894   182A      1.395229  
     183A      1.406568   184A      1.425854   185A      1.429178  
     186A      1.447689   187A      1.452987   188A      1.470549  
     189A      1.491667   190A      1.498234   191A      1.503029  
     192A      1.527246   193A      1.530399   194A      1.543999  
     195A      1.553965   196A      1.558598   197A      1.579206  
     198A      1.584429   199A      1.606535   200A      1.618255  
     201A      1.639690   202A      1.646881   203A      1.655777  
     204A      1.670180   205A      1.691467   206A      1.695935  
     207A      1.707448   208A      1.732540   209A      1.743013  
     210A      1.747477   211A      1.759371   212A      1.776578  
     213A      1.779497   214A      1.788277   215A      1.797905  
     216A      1.803321   217A      1.813529   218A      1.836646  
     219A      1.843451   220A      1.856613   221A      1.859204  
     222A      1.868266   223A      1.893709   224A      1.916832  
     225A      1.925967   226A      1.934823   227A      1.965017  
     228A      1.971543   229A      1.993204   230A      2.007926  
     231A      2.021671   232A      2.053802   233A      2.063862  
     234A      2.074430   235A      2.110267   236A      2.133717  
     237A      2.155977   238A      2.203294   239A      2.335807  
     240A      2.384322   241A      2.402304   242A      2.415978  
     243A      2.421726   244A      2.471870   245A      2.486379  
     246A      2.493013   247A      2.504036   248A      2.505325  
     249A      2.515770   250A      2.527658   251A      2.533957  
     252A      2.539219   253A      2.552219   254A      2.565526  
     255A      2.568266   256A      2.585192   257A      2.588088  
     258A      2.602923   259A      2.606449   260A      2.612351  
     261A      2.624595   262A      2.641133   263A      2.655895  
     264A      2.662806   265A      2.673653   266A      2.694131  
     267A      2.704259   268A      2.714432   269A      2.721412  
     270A      2.733058   271A      2.741198   272A      2.764440  
     273A      2.788073   274A      2.796154   275A      2.815181  
     276A      2.833546   277A      2.847378   278A      2.856433  
     279A      2.880903   280A      2.897560   281A      2.911401  
     282A      2.925653   283A      2.941216   284A      2.975429  
     285A      2.981790   286A      3.031137   287A      3.041511  
     288A      3.122477   289A      3.135917   290A      3.151462  
     291A      3.157186   292A      3.174273   293A      3.187300  
     294A      3.198462   295A      3.220001   296A      3.235442  
     297A      3.251720   298A      3.258504   299A      3.267217  
     300A      3.277116   301A      3.287201   302A      3.296086  
     303A      3.324895   304A      3.345995   305A      3.356930  
     306A      3.371919   307A      3.382673   308A      3.391658  
     309A      3.411799   310A      3.418397   311A      3.430648  
     312A      3.454331   313A      3.457336   314A      3.477584  
     315A      3.522016   316A      3.528147   317A      3.563627  
     318A      3.577959   319A      3.587156   320A      3.612291  
     321A      3.628138   322A      3.648246   323A      3.663725  
     324A      3.680793   325A      3.720528   326A      3.748401  
     327A      3.783770   328A      3.790190   329A      3.805536  
     330A      3.837474   331A      3.866413   332A      3.923355  
     333A      3.983492   334A      4.129707   335A      4.196326  
     336A      4.269351   337A      4.325142   338A      4.344426  
     339A      4.357761   340A      4.378487   341A      4.396678  
     342A      4.407884   343A      4.419662   344A      4.430362  
     345A      4.453133   346A      4.472887   347A      4.486168  
     348A      4.493930   349A      4.506783   350A      4.514075  
     351A      4.556599   352A      4.569206   353A      4.573403  
     354A      4.609231   355A      4.622376   356A      4.634834  
     357A      4.648733   358A      4.675891   359A      4.688216  
     360A      4.692498   361A      4.722512   362A      4.724284  
     363A      4.737477   364A      4.788111   365A      4.818653  
     366A      4.851625   367A      4.878470   368A      4.883575  
     369A      4.909963   370A      4.915720   371A      4.915902  
     372A      4.933940   373A      4.961368   374A      4.979979  
     375A      4.988810   376A      5.011299   377A      5.028894  
     378A      5.072592   379A      5.123116   380A      5.142091  
     381A      5.176298   382A      5.210163   383A      5.228875  
     384A      5.257045   385A      5.276560   386A      5.297278  
     387A      5.316671   388A      5.385761   389A      5.400900  
     390A      5.444235   391A      5.458483   392A      5.469704  
     393A      5.507171   394A      5.511539   395A      5.544125  
     396A      5.576875   397A      5.582762   398A      5.593430  
     399A      5.618361   400A      5.632658   401A      5.657906  
     402A      5.689565   403A      5.754105   404A      5.808785  
     405A      5.825095   406A      5.896350   407A      6.121754  
     408A      6.133516   409A      6.160609   410A      6.179901  
     411A      6.275488   412A      6.304132   413A      6.343776  
     414A      6.356893   415A      6.425164   416A      6.437110  
     417A      6.553777   418A      6.591126   419A      6.610328  
     420A      6.729234   421A      6.781702   422A      6.936268  
     423A      6.962189   424A      7.025495   425A      7.051674  
     426A      7.069345   427A      7.142873   428A      7.258920  
     429A      7.303870   430A      7.346104   431A      7.432831  
     432A      7.446018   433A      7.675264   434A      7.685456  
     435A      7.714853   436A      7.739428   437A      7.760289  
     438A      7.789633   439A      7.806069   440A      7.864535  
     441A      7.884725   442A      7.932870   443A      7.979379  
     444A      8.010272   445A      8.048246   446A      8.068820  
     447A      8.070323   448A      8.132611   449A      8.170641  
     450A      8.221342   451A      8.226678   452A      8.250058  
     453A      8.263568   454A      8.267178   455A      8.271354  
     456A      8.572032   457A      8.621769   458A      8.725055  
     459A      8.752461   460A      8.765859   461A      8.795184  
     462A      8.811415   463A      8.817251   464A      8.835972  
     465A      9.694661   466A      9.716745   467A      9.727162  
     468A      9.763249   469A      9.835824   470A      9.871442  
     471A      9.893937   472A      9.904449   473A     10.003459  
     474A     10.056893   475A     10.067768   476A     10.074273  
     477A     10.208172   478A     10.267048   479A     10.323146  
     480A     10.351307   481A     10.798827   482A     10.946186  
     483A     10.952723   484A     11.121780   485A     11.178313  
     486A     11.613761   487A     11.685752   488A     11.711494  
     489A     11.724322   490A     11.805007   491A     11.863442  
     492A     11.972433   493A     12.099745   494A     13.383330  
     495A     13.452128   496A     13.533456   497A     13.555164  
     498A     13.812800   499A     13.816522   500A     13.900102  
     501A     13.914375   502A     13.960761   503A     13.974548  
     504A     14.024997   505A     16.140555   506A     26.290358  
     507A     26.335966   508A     26.454375   509A     26.529676  
     510A     26.595096   511A     46.370228   512A     63.605748  
     513A     64.002075   514A     64.813617   515A     64.934180  
     516A    138.987399   517A    139.110716   518A    139.226041  
     519A    711.325583  

    Final Occupation by Irrep:
              A 
    DOCC [     5 ]
    NA   [     5 ]
    NB   [     5 ]

  @DF-RHF Final Energy:   -76.05866991715448

   => Energetics <=

    Nuclear Repulsion Energy =              9.0711331581726888
    One-Electron Energy =                -122.8123825811162391
    Two-Electron Energy =                  37.6825795057890858
    Total Energy =                        -76.0586699171544751

Computation Completed


Properties will be evaluated at   0.000000,   0.000000,   0.000000 [a0]

Properties computed using the SCF density matrix


 Multipole Moments:

 ------------------------------------------------------------------------------------
     Multipole            Electronic (a.u.)      Nuclear  (a.u.)        Total (a.u.)
 ------------------------------------------------------------------------------------

 L = 1.  Multiply by 2.5417464519 to convert [e a0] to [Debye]
 Dipole X            :        -59.3835979           59.1209473           -0.2626506
 Dipole Y            :         27.3754704          -26.9427551            0.4327153
 Dipole Z            :         10.2958098           -9.6611643            0.6346455
 Magnitude           :                                                    0.8117899

 ------------------------------------------------------------------------------------

*** tstop() called on ddmfs1 at Tue Jan 23 00:14:44 2024
Module time:
	user time   =     102.69 seconds =       1.71 minutes
	system time =       6.91 seconds =       0.12 minutes
	total time  =          9 seconds =       0.15 minutes
Total time:
	user time   =     102.69 seconds =       1.71 minutes
	system time =       6.91 seconds =       0.12 minutes
	total time  =          9 seconds =       0.15 minutes

*** tstart() called on ddmfs1
*** at Tue Jan 23 00:14:44 2024


  //>>>>>>>>>>>>>>>>>>>>>>>>>>>>>>>>>>>//
  //               DFMP2               //
  //<<<<<<<<<<<<<<<<<<<<<<<<<<<<<<<<<<<//

   => Loading Basis Set <=

    Name: (AUG-CC-PVTZ AUX)
    Role: RIFIT
    Keyword: DF_BASIS_MP2
    atoms 1                            entry BR         line  1248 file /ddmfs1b/softs/psi4conda/share/psi4/basis/aug-cc-pvtz-ri.gbs 
    atoms 2, 5, 8, 11, 14              entry O          line   264 file /ddmfs1b/softs/psi4conda/share/psi4/basis/aug-cc-pvtz-ri.gbs 
    atoms 3-4, 6-7, 9-10, 12-13, 15-16 entry H          line    30 file /ddmfs1b/softs/psi4conda/share/psi4/basis/aug-cc-pvtz-ri.gbs 

	 --------------------------------------------------------
	                          DF-MP2                         
	      2nd-Order Density-Fitted Moller-Plesset Theory     
	              RMP2 Wavefunction,  20 Threads             
	                                                         
	        Rob Parrish, Justin Turney, Andy Simmonett,      
	           Ed Hohenstein, and C. David Sherrill          
	 --------------------------------------------------------

   => Auxiliary Basis Set <=

  Basis Set: (AUG-CC-PVTZ AUX)
    Blend: AUG-CC-PVTZ-RI
    Number of shells: 323
    Number of basis functions: 1181
    Number of Cartesian functions: 1491
    Spherical Harmonics?: true
    Max angular momentum: 5

	 --------------------------------------------------------
	                 NBF =   519, NAUX =  1181
	 --------------------------------------------------------
	   CLASS    FOCC     OCC    AOCC    AVIR     VIR    FVIR
	   PAIRS       0       5       5     514     514       0
	 --------------------------------------------------------

	-----------------------------------------------------------
	 ==================> DF-MP2 Energies <==================== 
	-----------------------------------------------------------
	 Reference Energy          =     -76.0586699171544751 [Eh]
	 Singles Energy            =      -0.0000000000000000 [Eh]
	 Same-Spin Energy          =      -0.0687471282572079 [Eh]
	 Opposite-Spin Energy      =      -0.2168285919348077 [Eh]
	 Correlation Energy        =      -0.2855757201920156 [Eh]
	 Total Energy              =     -76.3442456373464893 [Eh]
	-----------------------------------------------------------
	 ================> DF-SCS-MP2 Energies <================== 
	-----------------------------------------------------------
	 SCS Same-Spin Scale       =       0.3333333333333333 [-]
	 SCS Opposite-Spin Scale   =       1.2000000000000000 [-]
	 SCS Same-Spin Energy      =      -0.0229157094190693 [Eh]
	 SCS Opposite-Spin Energy  =      -0.2601943103217693 [Eh]
	 SCS Correlation Energy    =      -0.2831100197408385 [Eh]
	 SCS Total Energy          =     -76.3417799368953069 [Eh]
	-----------------------------------------------------------


*** tstop() called on ddmfs1 at Tue Jan 23 00:14:55 2024
Module time:
	user time   =      34.54 seconds =       0.58 minutes
	system time =       2.37 seconds =       0.04 minutes
	total time  =         11 seconds =       0.18 minutes
Total time:
	user time   =     137.25 seconds =       2.29 minutes
	system time =       9.28 seconds =       0.15 minutes
	total time  =         20 seconds =       0.33 minutes

    Psi4 stopped on: Tuesday, 23 January 2024 12:14AM
    Psi4 wall time for execution: 0:00:19.79

*** Psi4 exiting successfully. Buy a developer a beer!
