
    -----------------------------------------------------------------------
          Psi4: An Open-Source Ab Initio Electronic Structure Package
                               Psi4 1.8.2 release

                         Git: Rev {} zzzzzzz 


    D. G. A. Smith, L. A. Burns, A. C. Simmonett, R. M. Parrish,
    M. C. Schieber, R. Galvelis, P. Kraus, H. Kruse, R. Di Remigio,
    A. Alenaizan, A. M. James, S. Lehtola, J. P. Misiewicz, M. Scheurer,
    R. A. Shaw, J. B. Schriber, Y. Xie, Z. L. Glick, D. A. Sirianni,
    J. S. O'Brien, J. M. Waldrop, A. Kumar, E. G. Hohenstein,
    B. P. Pritchard, B. R. Brooks, H. F. Schaefer III, A. Yu. Sokolov,
    K. Patkowski, A. E. DePrince III, U. Bozkaya, R. A. King,
    F. A. Evangelista, J. M. Turney, T. D. Crawford, C. D. Sherrill,
    J. Chem. Phys. 152(18) 184108 (2020). https://doi.org/10.1063/5.0006002

                            Additional Code Authors
    E. T. Seidl, C. L. Janssen, E. F. Valeev, M. L. Leininger,
    J. F. Gonthier, R. M. Richard, H. R. McAlexander, M. Saitow, X. Wang,
    P. Verma, M. H. Lechner, A. Jiang, S. Behnle, A. G. Heide,
    M. F. Herbst, and D. L. Poole

             Previous Authors, Complete List of Code Contributors,
                       and Citations for Specific Modules
    https://github.com/psi4/psi4/blob/master/codemeta.json
    https://github.com/psi4/psi4/graphs/contributors
    http://psicode.org/psi4manual/master/introduction.html#citing-psifour

    -----------------------------------------------------------------------


    Psi4 started on: Tuesday, 23 January 2024 01:36AM

    Process ID: 124770
    Host:       ddmfs1
    PSIDATADIR: /ddmfs1b/softs/psi4conda/share/psi4
    Memory:     500.0 MiB
    Threads:    20
    
  ==> Input File <==

--------------------------------------------------------------------------
MEMORY 60 GB

molecule dimer {
0 1
Gh(Br)     0.000000     0.000000     0.000000
O         -1.772441    -1.013978     2.474033
H         -1.574978    -0.449582     3.217609
H         -1.403679    -0.590186     1.642038
Gh(O)      0.153443     3.026345    -1.370826
Gh(H)     -0.355384     2.308360    -1.026650
Gh(H)     -0.493762     3.710273    -1.432334
Gh(O)     -2.091719     2.479956     1.054046
Gh(H)     -1.732622     2.926053     1.826747
Gh(H)     -1.314715     1.926701     0.771278
Gh(O)     -2.844312    -0.096528    -2.039101
Gh(H)     -2.475962     0.417129    -2.754453
Gh(H)     -2.104157    -0.194575    -1.466153
Gh(O)      0.017861    -2.734789    -2.364762
Gh(H)      0.784096    -3.289794    -2.529533
Gh(H)      0.337217    -2.049244    -1.765328
Gh(O)      2.661036     0.539110    -2.156861
Gh(H)      2.239767     1.400442    -1.867415
Gh(H)      2.677201    -0.043631    -1.356634

units ang
no_reorient
no_com
symmetry c1
}

set {
basis        aug-cc-pVTZ
scf_type     df
}

energy("mp2")
--------------------------------------------------------------------------

  Memory set to  55.879 GiB by Python driver.

Scratch directory: /ddmfs1a/scratch/
   => Libint2 <=

    Primary   basis highest AM E, G, H:  5, 4, 3
    Auxiliary basis highest AM E, G, H:  6, 5, 4
    Onebody   basis highest AM E, G, H:  6, 5, 4
    Solid Harmonics ordering:            gaussian

*** tstart() called on ddmfs1
*** at Tue Jan 23 01:36:41 2024

   => Loading Basis Set <=

    Name: AUG-CC-PVTZ
    Role: ORBITAL
    Keyword: BASIS
    atoms 1                                   entry BR         line  4208 file /ddmfs1b/softs/psi4conda/share/psi4/basis/aug-cc-pvtz.gbs 
    atoms 2, 5, 8, 11, 14, 17                 entry O          line   331 file /ddmfs1b/softs/psi4conda/share/psi4/basis/aug-cc-pvtz.gbs 
    atoms 3-4, 6-7, 9-10, 12-13, 15-16, 18-19 entry H          line    40 file /ddmfs1b/softs/psi4conda/share/psi4/basis/aug-cc-pvtz.gbs 


         ---------------------------------------------------------
                                   SCF
               by Justin Turney, Rob Parrish, Andy Simmonett
                          and Daniel G. A. Smith
                              RHF Reference
                       20 Threads,  57220 MiB Core
         ---------------------------------------------------------

  ==> Geometry <==

    Molecular point group: c1
    Full point group: C1

    Geometry (in Angstrom), charge = 0, multiplicity = 1:

       Center              X                  Y                   Z               Mass       
    ------------   -----------------  -----------------  -----------------  -----------------
      Gh(BR)          0.000000000000     0.000000000000     0.000000000000    78.918337600000
         O           -1.772441000000    -1.013978000000     2.474033000000    15.994914619570
         H           -1.574978000000    -0.449582000000     3.217609000000     1.007825032230
         H           -1.403679000000    -0.590186000000     1.642038000000     1.007825032230
      Gh(O)           0.153443000000     3.026345000000    -1.370826000000    15.994914619570
      Gh(H)          -0.355384000000     2.308360000000    -1.026650000000     1.007825032230
      Gh(H)          -0.493762000000     3.710273000000    -1.432334000000     1.007825032230
      Gh(O)          -2.091719000000     2.479956000000     1.054046000000    15.994914619570
      Gh(H)          -1.732622000000     2.926053000000     1.826747000000     1.007825032230
      Gh(H)          -1.314715000000     1.926701000000     0.771278000000     1.007825032230
      Gh(O)          -2.844312000000    -0.096528000000    -2.039101000000    15.994914619570
      Gh(H)          -2.475962000000     0.417129000000    -2.754453000000     1.007825032230
      Gh(H)          -2.104157000000    -0.194575000000    -1.466153000000     1.007825032230
      Gh(O)           0.017861000000    -2.734789000000    -2.364762000000    15.994914619570
      Gh(H)           0.784096000000    -3.289794000000    -2.529533000000     1.007825032230
      Gh(H)           0.337217000000    -2.049244000000    -1.765328000000     1.007825032230
      Gh(O)           2.661036000000     0.539110000000    -2.156861000000    15.994914619570
      Gh(H)           2.239767000000     1.400442000000    -1.867415000000     1.007825032230
      Gh(H)           2.677201000000    -0.043631000000    -1.356634000000     1.007825032230

  Running in c1 symmetry.

  Rotational constants: A =      0.02380  B =      0.02023  C =      0.01748 [cm^-1]
  Rotational constants: A =    713.49307  B =    606.56365  C =    524.09267 [MHz]
  Nuclear repulsion =    8.986347295394888

  Charge       = 0
  Multiplicity = 1
  Electrons    = 10
  Nalpha       = 5
  Nbeta        = 5

  ==> Algorithm <==

  SCF Algorithm Type is DF.
  DIIS enabled.
  MOM disabled.
  Fractional occupation disabled.
  Guess Type is SAD.
  Energy threshold   = 1.00e-08
  Density threshold  = 1.00e-08
  Integral threshold = 1.00e-12

  ==> Primary Basis <==

  Basis Set: AUG-CC-PVTZ
    Blend: AUG-CC-PVTZ
    Number of shells: 211
    Number of basis functions: 611
    Number of Cartesian functions: 699
    Spherical Harmonics?: true
    Max angular momentum: 3

   => Loading Basis Set <=

    Name: (AUG-CC-PVTZ AUX)
    Role: JKFIT
    Keyword: DF_BASIS_SCF
    atoms 1                                   entry BR         line  1492 file /ddmfs1b/softs/psi4conda/share/psi4/basis/aug-cc-pvtz-jkfit.gbs 
    atoms 2, 5, 8, 11, 14, 17                 entry O          line   286 file /ddmfs1b/softs/psi4conda/share/psi4/basis/aug-cc-pvtz-jkfit.gbs 
    atoms 3-4, 6-7, 9-10, 12-13, 15-16, 18-19 entry H          line    70 file /ddmfs1b/softs/psi4conda/share/psi4/basis/aug-cc-pvtz-jkfit.gbs 

  ==> Integral Setup <==

  DFHelper Memory: AOs need 3.492 GiB; user supplied 41.910 GiB. 
  Using in-core AOs.

  ==> MemDFJK: Density-Fitted J/K Matrices <==

    J tasked:                   Yes
    K tasked:                   Yes
    wK tasked:                   No
    OpenMP threads:              20
    Memory [MiB]:             42915
    Algorithm:                 Core
    Schwarz Cutoff:           1E-12
    Mask sparsity (%):      15.5250
    Fitting Condition:        1E-10

   => Auxiliary Basis Set <=

  Basis Set: (AUG-CC-PVTZ AUX)
    Blend: AUG-CC-PVTZ-JKFIT
    Number of shells: 406
    Number of basis functions: 1424
    Number of Cartesian functions: 1775
    Spherical Harmonics?: true
    Max angular momentum: 4

  Minimum eigenvalue in the overlap matrix is 1.0995639063E-04.
  Reciprocal condition number of the overlap matrix is 8.3215588075E-06.
    Using symmetric orthogonalization.

  ==> Pre-Iterations <==

  SCF Guess: Superposition of Atomic Densities via on-the-fly atomic UHF (no occupation information).

   -------------------------
    Irrep   Nso     Nmo    
   -------------------------
     A        611     611 
   -------------------------
    Total     611     611
   -------------------------

  ==> Iterations <==

                           Total Energy        Delta E     RMS |[F,P]|

   @DF-RHF iter SAD:   -75.44812388663912   -7.54481e+01   0.00000e+00 
   @DF-RHF iter   1:   -75.97182490434946   -5.23701e-01   7.65288e-04 ADIIS/DIIS
   @DF-RHF iter   2:   -76.02369520933152   -5.18703e-02   5.31549e-04 ADIIS/DIIS
   @DF-RHF iter   3:   -76.05648015585187   -3.27849e-02   3.63078e-05 DIIS
   @DF-RHF iter   4:   -76.05690747775535   -4.27322e-04   9.13015e-06 DIIS
   @DF-RHF iter   5:   -76.05693717302643   -2.96953e-05   2.12505e-06 DIIS
   @DF-RHF iter   6:   -76.05693974069214   -2.56767e-06   4.79429e-07 DIIS
   @DF-RHF iter   7:   -76.05693988381992   -1.43128e-07   8.88481e-08 DIIS
   @DF-RHF iter   8:   -76.05693988809878   -4.27886e-09   1.52457e-08 DIIS
   @DF-RHF iter   9:   -76.05693988820200   -1.03213e-10   4.02637e-09 DIIS
  Energy and wave function converged.


  ==> Post-Iterations <==

    Orbital Energies [Eh]
    ---------------------

    Doubly Occupied:                                                      

       1A    -20.568836     2A     -1.340316     3A     -0.713683  
       4A     -0.572512     5A     -0.507333  

    Virtual:                                                              

       6A      0.013531     7A      0.028776     8A      0.032868  
       9A      0.037373    10A      0.047729    11A      0.054499  
      12A      0.058653    13A      0.062746    14A      0.068218  
      15A      0.073004    16A      0.083426    17A      0.091877  
      18A      0.098657    19A      0.112122    20A      0.113492  
      21A      0.121266    22A      0.129181    23A      0.134208  
      24A      0.137742    25A      0.144328    26A      0.154566  
      27A      0.156781    28A      0.158655    29A      0.162360  
      30A      0.167387    31A      0.169539    32A      0.179351  
      33A      0.182113    34A      0.183058    35A      0.186966  
      36A      0.199108    37A      0.205299    38A      0.209121  
      39A      0.215511    40A      0.218567    41A      0.224629  
      42A      0.232388    43A      0.235219    44A      0.246469  
      45A      0.254747    46A      0.263882    47A      0.266056  
      48A      0.278632    49A      0.282628    50A      0.290133  
      51A      0.295615    52A      0.306789    53A      0.313815  
      54A      0.316171    55A      0.320263    56A      0.323869  
      57A      0.330527    58A      0.333823    59A      0.340521  
      60A      0.346653    61A      0.348208    62A      0.355997  
      63A      0.358390    64A      0.362935    65A      0.367585  
      66A      0.371383    67A      0.383220    68A      0.386708  
      69A      0.396076    70A      0.399010    71A      0.402891  
      72A      0.406539    73A      0.409062    74A      0.412251  
      75A      0.416493    76A      0.420524    77A      0.429374  
      78A      0.444530    79A      0.451325    80A      0.457610  
      81A      0.459834    82A      0.461911    83A      0.469331  
      84A      0.471244    85A      0.478439    86A      0.487320  
      87A      0.497449    88A      0.502751    89A      0.512561  
      90A      0.527868    91A      0.540551    92A      0.544113  
      93A      0.559363    94A      0.567434    95A      0.580548  
      96A      0.595270    97A      0.611683    98A      0.619937  
      99A      0.633603   100A      0.638129   101A      0.662725  
     102A      0.674151   103A      0.677715   104A      0.689996  
     105A      0.696007   106A      0.709526   107A      0.713729  
     108A      0.721014   109A      0.733501   110A      0.741993  
     111A      0.742359   112A      0.748701   113A      0.757065  
     114A      0.765429   115A      0.768768   116A      0.769910  
     117A      0.775303   118A      0.786935   119A      0.789683  
     120A      0.790545   121A      0.796393   122A      0.804106  
     123A      0.819498   124A      0.820699   125A      0.826083  
     126A      0.831061   127A      0.834418   128A      0.841627  
     129A      0.849428   130A      0.849787   131A      0.851903  
     132A      0.861734   133A      0.869451   134A      0.872634  
     135A      0.877494   136A      0.884716   137A      0.892803  
     138A      0.899928   139A      0.903836   140A      0.906583  
     141A      0.908391   142A      0.915684   143A      0.920855  
     144A      0.922646   145A      0.929680   146A      0.932199  
     147A      0.935093   148A      0.939126   149A      0.953114  
     150A      0.954323   151A      0.960118   152A      0.966729  
     153A      0.972904   154A      0.978554   155A      0.985919  
     156A      0.991425   157A      0.996736   158A      1.006965  
     159A      1.012005   160A      1.022105   161A      1.026911  
     162A      1.033707   163A      1.037955   164A      1.043220  
     165A      1.048797   166A      1.052180   167A      1.055221  
     168A      1.060468   169A      1.064859   170A      1.081018  
     171A      1.087561   172A      1.094785   173A      1.097275  
     174A      1.103369   175A      1.109690   176A      1.114633  
     177A      1.122982   178A      1.132786   179A      1.135539  
     180A      1.144095   181A      1.144733   182A      1.160899  
     183A      1.162728   184A      1.168857   185A      1.179401  
     186A      1.184849   187A      1.197023   188A      1.205387  
     189A      1.214055   190A      1.216378   191A      1.222730  
     192A      1.232106   193A      1.240841   194A      1.245348  
     195A      1.259386   196A      1.265965   197A      1.275008  
     198A      1.275922   199A      1.294586   200A      1.306231  
     201A      1.309091   202A      1.312436   203A      1.321647  
     204A      1.331015   205A      1.334460   206A      1.347990  
     207A      1.356638   208A      1.363273   209A      1.374149  
     210A      1.379223   211A      1.397907   212A      1.407637  
     213A      1.428421   214A      1.442461   215A      1.449619  
     216A      1.454747   217A      1.463445   218A      1.477826  
     219A      1.482508   220A      1.491286   221A      1.500994  
     222A      1.504962   223A      1.513571   224A      1.530491  
     225A      1.549643   226A      1.556310   227A      1.567990  
     228A      1.585739   229A      1.587718   230A      1.604178  
     231A      1.616825   232A      1.622600   233A      1.639633  
     234A      1.648895   235A      1.666276   236A      1.681979  
     237A      1.695161   238A      1.706776   239A      1.721138  
     240A      1.726251   241A      1.747421   242A      1.751848  
     243A      1.758088   244A      1.769708   245A      1.775133  
     246A      1.787794   247A      1.793591   248A      1.794014  
     249A      1.804754   250A      1.815687   251A      1.822007  
     252A      1.843000   253A      1.846496   254A      1.858336  
     255A      1.871511   256A      1.877235   257A      1.888547  
     258A      1.893442   259A      1.904070   260A      1.908954  
     261A      1.925985   262A      1.932720   263A      1.947269  
     264A      1.950819   265A      1.956221   266A      1.960934  
     267A      1.977255   268A      1.988610   269A      2.002407  
     270A      2.018444   271A      2.029695   272A      2.048113  
     273A      2.064458   274A      2.093511   275A      2.150681  
     276A      2.178932   277A      2.252868   278A      2.323840  
     279A      2.332395   280A      2.356659   281A      2.416839  
     282A      2.437407   283A      2.444108   284A      2.463608  
     285A      2.467376   286A      2.467841   287A      2.477666  
     288A      2.489176   289A      2.493769   290A      2.496005  
     291A      2.507257   292A      2.531801   293A      2.535747  
     294A      2.540761   295A      2.548750   296A      2.561811  
     297A      2.564135   298A      2.571457   299A      2.574541  
     300A      2.586299   301A      2.594586   302A      2.599992  
     303A      2.610197   304A      2.626458   305A      2.627994  
     306A      2.635395   307A      2.642300   308A      2.659068  
     309A      2.665792   310A      2.673580   311A      2.682786  
     312A      2.687762   313A      2.700607   314A      2.710727  
     315A      2.721748   316A      2.732782   317A      2.739751  
     318A      2.750413   319A      2.771117   320A      2.783654  
     321A      2.788033   322A      2.801152   323A      2.816175  
     324A      2.820741   325A      2.836911   326A      2.859786  
     327A      2.884014   328A      2.888428   329A      2.912580  
     330A      2.937368   331A      2.947469   332A      2.962500  
     333A      2.969666   334A      3.003460   335A      3.008630  
     336A      3.015939   337A      3.079862   338A      3.145763  
     339A      3.171003   340A      3.186481   341A      3.191306  
     342A      3.203643   343A      3.205593   344A      3.217369  
     345A      3.219385   346A      3.227899   347A      3.245097  
     348A      3.259932   349A      3.270992   350A      3.283001  
     351A      3.285602   352A      3.303172   353A      3.315076  
     354A      3.333881   355A      3.354070   356A      3.367182  
     357A      3.377955   358A      3.401377   359A      3.413261  
     360A      3.429516   361A      3.450029   362A      3.457838  
     363A      3.477124   364A      3.490693   365A      3.505195  
     366A      3.518415   367A      3.546228   368A      3.555337  
     369A      3.575366   370A      3.579602   371A      3.599538  
     372A      3.607693   373A      3.619250   374A      3.632511  
     375A      3.646582   376A      3.657708   377A      3.665382  
     378A      3.709781   379A      3.720529   380A      3.729065  
     381A      3.765234   382A      3.782335   383A      3.797692  
     384A      3.828570   385A      3.874099   386A      3.884573  
     387A      3.912603   388A      3.936205   389A      4.050403  
     390A      4.095016   391A      4.213601   392A      4.251143  
     393A      4.288021   394A      4.301716   395A      4.391617  
     396A      4.396733   397A      4.402074   398A      4.416676  
     399A      4.439839   400A      4.453498   401A      4.462280  
     402A      4.464202   403A      4.484393   404A      4.488674  
     405A      4.500586   406A      4.513314   407A      4.528353  
     408A      4.535366   409A      4.542235   410A      4.550266  
     411A      4.567321   412A      4.598517   413A      4.607168  
     414A      4.613843   415A      4.622247   416A      4.630028  
     417A      4.636255   418A      4.644963   419A      4.660223  
     420A      4.677892   421A      4.704758   422A      4.726299  
     423A      4.732567   424A      4.754540   425A      4.769422  
     426A      4.772749   427A      4.813921   428A      4.840450  
     429A      4.861945   430A      4.879940   431A      4.885315  
     432A      4.894529   433A      4.904568   434A      4.908602  
     435A      4.923095   436A      4.929401   437A      4.938364  
     438A      4.964544   439A      4.977395   440A      4.981382  
     441A      5.002265   442A      5.019997   443A      5.025595  
     444A      5.041065   445A      5.075490   446A      5.114996  
     447A      5.142620   448A      5.207524   449A      5.219499  
     450A      5.278962   451A      5.314503   452A      5.347208  
     453A      5.360154   454A      5.374948   455A      5.393234  
     456A      5.416063   457A      5.488519   458A      5.510432  
     459A      5.536254   460A      5.546608   461A      5.561126  
     462A      5.576995   463A      5.625341   464A      5.634921  
     465A      5.649537   466A      5.655238   467A      5.669174  
     468A      5.685619   469A      5.740708   470A      5.750384  
     471A      5.758986   472A      5.769232   473A      5.779265  
     474A      5.903532   475A      5.920490   476A      5.941304  
     477A      6.034997   478A      6.131890   479A      6.140686  
     480A      6.153287   481A      6.154346   482A      6.179886  
     483A      6.193025   484A      6.302474   485A      6.418429  
     486A      6.453425   487A      6.466855   488A      6.495535  
     489A      6.565644   490A      6.596444   491A      6.666120  
     492A      6.693237   493A      6.734325   494A      6.800400  
     495A      6.828533   496A      6.872224   497A      6.935873  
     498A      7.030910   499A      7.086657   500A      7.160798  
     501A      7.194003   502A      7.218965   503A      7.284111  
     504A      7.318637   505A      7.356015   506A      7.410809  
     507A      7.505354   508A      7.702772   509A      7.715463  
     510A      7.721123   511A      7.755130   512A      7.780235  
     513A      7.794450   514A      7.802291   515A      7.840993  
     516A      7.877693   517A      7.895595   518A      7.917246  
     519A      7.946137   520A      8.010497   521A      8.037586  
     522A      8.053152   523A      8.087095   524A      8.094734  
     525A      8.125446   526A      8.147890   527A      8.163735  
     528A      8.187775   529A      8.221603   530A      8.226431  
     531A      8.241219   532A      8.290479   533A      8.320628  
     534A      8.350793   535A      8.365699   536A      8.619366  
     537A      8.682923   538A      8.709797   539A      8.744317  
     540A      8.793391   541A      8.858722   542A      8.867261  
     543A      8.893249   544A      8.901484   545A      9.036054  
     546A      9.076940   547A      9.653274   548A      9.692217  
     549A      9.748994   550A      9.784193   551A      9.830232  
     552A      9.858765   553A      9.892345   554A      9.897719  
     555A      9.924485   556A      9.947150   557A     10.044048  
     558A     10.070921   559A     10.078734   560A     10.091876  
     561A     10.111272   562A     10.218835   563A     10.291267  
     564A     10.310140   565A     10.324192   566A     10.351003  
     567A     10.993179   568A     11.143204   569A     11.217516  
     570A     11.342297   571A     11.394300   572A     11.480387  
     573A     11.663331   574A     11.686427   575A     11.755554  
     576A     11.791666   577A     11.800161   578A     11.873200  
     579A     12.047838   580A     12.119718   581A     12.338927  
     582A     12.365962   583A     13.397040   584A     13.562492  
     585A     13.604245   586A     13.729896   587A     13.826037  
     588A     13.861275   589A     13.912208   590A     13.930132  
     591A     13.959571   592A     13.981460   593A     14.012971  
     594A     14.027104   595A     14.131491   596A     16.090679  
     597A     26.334177   598A     26.395497   599A     26.554764  
     600A     26.633015   601A     26.689412   602A     46.788310  
     603A     63.535818   604A     65.150983   605A     65.357798  
     606A     66.720328   607A     67.553241   608A    139.098098  
     609A    139.249206   610A    139.463369   611A    712.636596  

    Final Occupation by Irrep:
              A 
    DOCC [     5 ]
    NA   [     5 ]
    NB   [     5 ]

  @DF-RHF Final Energy:   -76.05693988820200

   => Energetics <=

    Nuclear Repulsion Energy =              8.9863472953948875
    One-Electron Energy =                -122.6812094758683997
    Two-Electron Energy =                  37.6379222922715044
    Total Energy =                        -76.0569398882020096

Computation Completed


Properties will be evaluated at   0.000000,   0.000000,   0.000000 [a0]

Properties computed using the SCF density matrix


 Multipole Moments:

 ------------------------------------------------------------------------------------
     Multipole            Electronic (a.u.)      Nuclear  (a.u.)        Total (a.u.)
 ------------------------------------------------------------------------------------

 L = 1.  Multiply by 2.5417464519 to convert [e a0] to [Debye]
 Dipole X            :         32.7998862          -32.4242705            0.3756158
 Dipole Y            :         17.9518496          -17.2940025            0.6578471
 Dipole Z            :        -46.6371564           46.5853603           -0.0517962
 Magnitude           :                                                    0.7592976

 ------------------------------------------------------------------------------------

*** tstop() called on ddmfs1 at Tue Jan 23 01:36:52 2024
Module time:
	user time   =     147.61 seconds =       2.46 minutes
	system time =       8.72 seconds =       0.15 minutes
	total time  =         11 seconds =       0.18 minutes
Total time:
	user time   =     147.61 seconds =       2.46 minutes
	system time =       8.72 seconds =       0.15 minutes
	total time  =         11 seconds =       0.18 minutes

*** tstart() called on ddmfs1
*** at Tue Jan 23 01:36:52 2024


  //>>>>>>>>>>>>>>>>>>>>>>>>>>>>>>>>>>>//
  //               DFMP2               //
  //<<<<<<<<<<<<<<<<<<<<<<<<<<<<<<<<<<<//

   => Loading Basis Set <=

    Name: (AUG-CC-PVTZ AUX)
    Role: RIFIT
    Keyword: DF_BASIS_MP2
    atoms 1                                   entry BR         line  1248 file /ddmfs1b/softs/psi4conda/share/psi4/basis/aug-cc-pvtz-ri.gbs 
    atoms 2, 5, 8, 11, 14, 17                 entry O          line   264 file /ddmfs1b/softs/psi4conda/share/psi4/basis/aug-cc-pvtz-ri.gbs 
    atoms 3-4, 6-7, 9-10, 12-13, 15-16, 18-19 entry H          line    30 file /ddmfs1b/softs/psi4conda/share/psi4/basis/aug-cc-pvtz-ri.gbs 

	 --------------------------------------------------------
	                          DF-MP2                         
	      2nd-Order Density-Fitted Moller-Plesset Theory     
	              RMP2 Wavefunction,  20 Threads             
	                                                         
	        Rob Parrish, Justin Turney, Andy Simmonett,      
	           Ed Hohenstein, and C. David Sherrill          
	 --------------------------------------------------------

   => Auxiliary Basis Set <=

  Basis Set: (AUG-CC-PVTZ AUX)
    Blend: AUG-CC-PVTZ-RI
    Number of shells: 379
    Number of basis functions: 1379
    Number of Cartesian functions: 1737
    Spherical Harmonics?: true
    Max angular momentum: 5

	 --------------------------------------------------------
	                 NBF =   611, NAUX =  1379
	 --------------------------------------------------------
	   CLASS    FOCC     OCC    AOCC    AVIR     VIR    FVIR
	   PAIRS       0       5       5     606     606       0
	 --------------------------------------------------------

	-----------------------------------------------------------
	 ==================> DF-MP2 Energies <==================== 
	-----------------------------------------------------------
	 Reference Energy          =     -76.0569398882019954 [Eh]
	 Singles Energy            =      -0.0000000000000000 [Eh]
	 Same-Spin Energy          =      -0.0686999308016619 [Eh]
	 Opposite-Spin Energy      =      -0.2168161879517543 [Eh]
	 Correlation Energy        =      -0.2855161187534162 [Eh]
	 Total Energy              =     -76.3424560069554161 [Eh]
	-----------------------------------------------------------
	 ================> DF-SCS-MP2 Energies <================== 
	-----------------------------------------------------------
	 SCS Same-Spin Scale       =       0.3333333333333333 [-]
	 SCS Opposite-Spin Scale   =       1.2000000000000000 [-]
	 SCS Same-Spin Energy      =      -0.0228999769338873 [Eh]
	 SCS Opposite-Spin Energy  =      -0.2601794255421052 [Eh]
	 SCS Correlation Energy    =      -0.2830794024759924 [Eh]
	 SCS Total Energy          =     -76.3400192906779864 [Eh]
	-----------------------------------------------------------


*** tstop() called on ddmfs1 at Tue Jan 23 01:37:06 2024
Module time:
	user time   =      43.83 seconds =       0.73 minutes
	system time =       2.95 seconds =       0.05 minutes
	total time  =         14 seconds =       0.23 minutes
Total time:
	user time   =     191.45 seconds =       3.19 minutes
	system time =      11.67 seconds =       0.19 minutes
	total time  =         25 seconds =       0.42 minutes

    Psi4 stopped on: Tuesday, 23 January 2024 01:37AM
    Psi4 wall time for execution: 0:00:25.14

*** Psi4 exiting successfully. Buy a developer a beer!
