
    -----------------------------------------------------------------------
          Psi4: An Open-Source Ab Initio Electronic Structure Package
                               Psi4 1.8.2 release

                         Git: Rev {} zzzzzzz 


    D. G. A. Smith, L. A. Burns, A. C. Simmonett, R. M. Parrish,
    M. C. Schieber, R. Galvelis, P. Kraus, H. Kruse, R. Di Remigio,
    A. Alenaizan, A. M. James, S. Lehtola, J. P. Misiewicz, M. Scheurer,
    R. A. Shaw, J. B. Schriber, Y. Xie, Z. L. Glick, D. A. Sirianni,
    J. S. O'Brien, J. M. Waldrop, A. Kumar, E. G. Hohenstein,
    B. P. Pritchard, B. R. Brooks, H. F. Schaefer III, A. Yu. Sokolov,
    K. Patkowski, A. E. DePrince III, U. Bozkaya, R. A. King,
    F. A. Evangelista, J. M. Turney, T. D. Crawford, C. D. Sherrill,
    J. Chem. Phys. 152(18) 184108 (2020). https://doi.org/10.1063/5.0006002

                            Additional Code Authors
    E. T. Seidl, C. L. Janssen, E. F. Valeev, M. L. Leininger,
    J. F. Gonthier, R. M. Richard, H. R. McAlexander, M. Saitow, X. Wang,
    P. Verma, M. H. Lechner, A. Jiang, S. Behnle, A. G. Heide,
    M. F. Herbst, and D. L. Poole

             Previous Authors, Complete List of Code Contributors,
                       and Citations for Specific Modules
    https://github.com/psi4/psi4/blob/master/codemeta.json
    https://github.com/psi4/psi4/graphs/contributors
    http://psicode.org/psi4manual/master/introduction.html#citing-psifour

    -----------------------------------------------------------------------


    Psi4 started on: Monday, 22 January 2024 10:07PM

    Process ID: 112078
    Host:       ddmfs1
    PSIDATADIR: /ddmfs1b/softs/psi4conda/share/psi4
    Memory:     500.0 MiB
    Threads:    20
    
  ==> Input File <==

--------------------------------------------------------------------------
MEMORY 60 GB

molecule dimer {
0 1
Gh(Br)     0.000000     0.000000     0.000000
Gh(O)     -0.134210     2.411128    -2.072805
Gh(H)      0.609473     1.830673    -2.287997
Gh(H)     -0.403434     2.300933    -1.141755
Gh(O)     -1.310303    -2.052809     2.019950
Gh(H)     -0.550126    -2.646822     1.949115
Gh(H)     -1.196439    -1.381497     1.375027
O         -3.132579     0.001629    -1.095278
H         -2.256450    -0.233826    -0.636847
H         -2.985203    -0.177030    -2.038425

units ang
no_reorient
no_com
symmetry c1
}

set {
basis        aug-cc-pVTZ
scf_type     df
}

energy("mp2")
--------------------------------------------------------------------------

  Memory set to  55.879 GiB by Python driver.

Scratch directory: /ddmfs1a/scratch/
   => Libint2 <=

    Primary   basis highest AM E, G, H:  5, 4, 3
    Auxiliary basis highest AM E, G, H:  6, 5, 4
    Onebody   basis highest AM E, G, H:  6, 5, 4
    Solid Harmonics ordering:            gaussian

*** tstart() called on ddmfs1
*** at Mon Jan 22 22:07:57 2024

   => Loading Basis Set <=

    Name: AUG-CC-PVTZ
    Role: ORBITAL
    Keyword: BASIS
    atoms 1              entry BR         line  4208 file /ddmfs1b/softs/psi4conda/share/psi4/basis/aug-cc-pvtz.gbs 
    atoms 2, 5, 8        entry O          line   331 file /ddmfs1b/softs/psi4conda/share/psi4/basis/aug-cc-pvtz.gbs 
    atoms 3-4, 6-7, 9-10 entry H          line    40 file /ddmfs1b/softs/psi4conda/share/psi4/basis/aug-cc-pvtz.gbs 


         ---------------------------------------------------------
                                   SCF
               by Justin Turney, Rob Parrish, Andy Simmonett
                          and Daniel G. A. Smith
                              RHF Reference
                       20 Threads,  57220 MiB Core
         ---------------------------------------------------------

  ==> Geometry <==

    Molecular point group: c1
    Full point group: C1

    Geometry (in Angstrom), charge = 0, multiplicity = 1:

       Center              X                  Y                   Z               Mass       
    ------------   -----------------  -----------------  -----------------  -----------------
      Gh(BR)          0.000000000000     0.000000000000     0.000000000000    78.918337600000
      Gh(O)          -0.134210000000     2.411128000000    -2.072805000000    15.994914619570
      Gh(H)           0.609473000000     1.830673000000    -2.287997000000     1.007825032230
      Gh(H)          -0.403434000000     2.300933000000    -1.141755000000     1.007825032230
      Gh(O)          -1.310303000000    -2.052809000000     2.019950000000    15.994914619570
      Gh(H)          -0.550126000000    -2.646822000000     1.949115000000     1.007825032230
      Gh(H)          -1.196439000000    -1.381497000000     1.375027000000     1.007825032230
         O           -3.132579000000     0.001629000000    -1.095278000000    15.994914619570
         H           -2.256450000000    -0.233826000000    -0.636847000000     1.007825032230
         H           -2.985203000000    -0.177030000000    -2.038425000000     1.007825032230

  Running in c1 symmetry.

  Rotational constants: A =      0.07894  B =      0.04957  C =      0.03093 [cm^-1]
  Rotational constants: A =   2366.69170  B =   1485.92615  C =    927.12983 [MHz]
  Nuclear repulsion =    8.858716416398959

  Charge       = 0
  Multiplicity = 1
  Electrons    = 10
  Nalpha       = 5
  Nbeta        = 5

  ==> Algorithm <==

  SCF Algorithm Type is DF.
  DIIS enabled.
  MOM disabled.
  Fractional occupation disabled.
  Guess Type is SAD.
  Energy threshold   = 1.00e-08
  Density threshold  = 1.00e-08
  Integral threshold = 1.00e-12

  ==> Primary Basis <==

  Basis Set: AUG-CC-PVTZ
    Blend: AUG-CC-PVTZ
    Number of shells: 115
    Number of basis functions: 335
    Number of Cartesian functions: 384
    Spherical Harmonics?: true
    Max angular momentum: 3

   => Loading Basis Set <=

    Name: (AUG-CC-PVTZ AUX)
    Role: JKFIT
    Keyword: DF_BASIS_SCF
    atoms 1              entry BR         line  1492 file /ddmfs1b/softs/psi4conda/share/psi4/basis/aug-cc-pvtz-jkfit.gbs 
    atoms 2, 5, 8        entry O          line   286 file /ddmfs1b/softs/psi4conda/share/psi4/basis/aug-cc-pvtz-jkfit.gbs 
    atoms 3-4, 6-7, 9-10 entry H          line    70 file /ddmfs1b/softs/psi4conda/share/psi4/basis/aug-cc-pvtz-jkfit.gbs 

  ==> Integral Setup <==

  DFHelper Memory: AOs need 0.682 GiB; user supplied 41.910 GiB. 
  Using in-core AOs.

  ==> MemDFJK: Density-Fitted J/K Matrices <==

    J tasked:                   Yes
    K tasked:                   Yes
    wK tasked:                   No
    OpenMP threads:              20
    Memory [MiB]:             42915
    Algorithm:                 Core
    Schwarz Cutoff:           1E-12
    Mask sparsity (%):       8.8162
    Fitting Condition:        1E-10

   => Auxiliary Basis Set <=

  Basis Set: (AUG-CC-PVTZ AUX)
    Blend: AUG-CC-PVTZ-JKFIT
    Number of shells: 232
    Number of basis functions: 836
    Number of Cartesian functions: 1052
    Spherical Harmonics?: true
    Max angular momentum: 4

  Minimum eigenvalue in the overlap matrix is 2.0154253584E-04.
  Reciprocal condition number of the overlap matrix is 2.0373791954E-05.
    Using symmetric orthogonalization.

  ==> Pre-Iterations <==

  SCF Guess: Superposition of Atomic Densities via on-the-fly atomic UHF (no occupation information).

   -------------------------
    Irrep   Nso     Nmo    
   -------------------------
     A        335     335 
   -------------------------
    Total     335     335
   -------------------------

  ==> Iterations <==

                           Total Energy        Delta E     RMS |[F,P]|

   @DF-RHF iter SAD:   -75.43386024026982   -7.54339e+01   0.00000e+00 
   @DF-RHF iter   1:   -75.96880628245538   -5.34946e-01   1.39286e-03 DIIS/ADIIS
   @DF-RHF iter   2:   -76.02028024599927   -5.14740e-02   9.86763e-04 DIIS/ADIIS
   @DF-RHF iter   3:   -76.05453589528400   -3.42556e-02   6.75477e-05 DIIS
   @DF-RHF iter   4:   -76.05498308109718   -4.47186e-04   1.74536e-05 DIIS
   @DF-RHF iter   5:   -76.05501638941394   -3.33083e-05   4.11384e-06 DIIS
   @DF-RHF iter   6:   -76.05501929331228   -2.90390e-06   9.10573e-07 DIIS
   @DF-RHF iter   7:   -76.05501944661445   -1.53302e-07   1.61238e-07 DIIS
   @DF-RHF iter   8:   -76.05501945074862   -4.13417e-09   2.86028e-08 DIIS
   @DF-RHF iter   9:   -76.05501945085751   -1.08898e-10   7.68635e-09 DIIS
  Energy and wave function converged.


  ==> Post-Iterations <==

    Orbital Energies [Eh]
    ---------------------

    Doubly Occupied:                                                      

       1A    -20.572932     2A     -1.335363     3A     -0.699891  
       4A     -0.576077     5A     -0.507253  

    Virtual:                                                              

       6A      0.017950     7A      0.033817     8A      0.043515  
       9A      0.048363    10A      0.062312    11A      0.073215  
      12A      0.080071    13A      0.098562    14A      0.107500  
      15A      0.113797    16A      0.128302    17A      0.142769  
      18A      0.150624    19A      0.154836    20A      0.163163  
      21A      0.166428    22A      0.175383    23A      0.191121  
      24A      0.193437    25A      0.205511    26A      0.216067  
      27A      0.226483    28A      0.242290    29A      0.259870  
      30A      0.270549    31A      0.278703    32A      0.283423  
      33A      0.290654    34A      0.298648    35A      0.311436  
      36A      0.315223    37A      0.319730    38A      0.326734  
      39A      0.348680    40A      0.352608    41A      0.359115  
      42A      0.367684    43A      0.381323    44A      0.386446  
      45A      0.400810    46A      0.405053    47A      0.421744  
      48A      0.429657    49A      0.445460    50A      0.447989  
      51A      0.461638    52A      0.472125    53A      0.484381  
      54A      0.499612    55A      0.512979    56A      0.538142  
      57A      0.547579    58A      0.586470    59A      0.589679  
      60A      0.609522    61A      0.654081    62A      0.678736  
      63A      0.709590    64A      0.718342    65A      0.730786  
      66A      0.741615    67A      0.750427    68A      0.764773  
      69A      0.786397    70A      0.791256    71A      0.795851  
      72A      0.798788    73A      0.806724    74A      0.818921  
      75A      0.822222    76A      0.826274    77A      0.838987  
      78A      0.847275    79A      0.858248    80A      0.872933  
      81A      0.883008    82A      0.892071    83A      0.905215  
      84A      0.909018    85A      0.919881    86A      0.930048  
      87A      0.935174    88A      0.953662    89A      0.958655  
      90A      0.978056    91A      0.991657    92A      0.993398  
      93A      1.001433    94A      1.006730    95A      1.016485  
      96A      1.018181    97A      1.028937    98A      1.034782  
      99A      1.048482   100A      1.056523   101A      1.067716  
     102A      1.074250   103A      1.086395   104A      1.094665  
     105A      1.101832   106A      1.114423   107A      1.140460  
     108A      1.150587   109A      1.153683   110A      1.172798  
     111A      1.193392   112A      1.205926   113A      1.222036  
     114A      1.229098   115A      1.248855   116A      1.252829  
     117A      1.278188   118A      1.285906   119A      1.293044  
     120A      1.325617   121A      1.346260   122A      1.369186  
     123A      1.384896   124A      1.395704   125A      1.434943  
     126A      1.449795   127A      1.457485   128A      1.472382  
     129A      1.512211   130A      1.519045   131A      1.542563  
     132A      1.555026   133A      1.583019   134A      1.603399  
     135A      1.617150   136A      1.642334   137A      1.659115  
     138A      1.685271   139A      1.709153   140A      1.723797  
     141A      1.747772   142A      1.756023   143A      1.770680  
     144A      1.778685   145A      1.793750   146A      1.832521  
     147A      1.878231   148A      1.893049   149A      1.909028  
     150A      1.934034   151A      1.953817   152A      1.963648  
     153A      2.003020   154A      2.011221   155A      2.052678  
     156A      2.155841   157A      2.317054   158A      2.351118  
     159A      2.405504   160A      2.415378   161A      2.438805  
     162A      2.452961   163A      2.463188   164A      2.475864  
     165A      2.495235   166A      2.510910   167A      2.536111  
     168A      2.548890   169A      2.561044   170A      2.581329  
     171A      2.589653   172A      2.622529   173A      2.645968  
     174A      2.654354   175A      2.679152   176A      2.685606  
     177A      2.719397   178A      2.762376   179A      2.765960  
     180A      2.769157   181A      2.805892   182A      2.812054  
     183A      2.847221   184A      2.879022   185A      2.945439  
     186A      2.961135   187A      2.981089   188A      3.008144  
     189A      3.123867   190A      3.150365   191A      3.163706  
     192A      3.182178   193A      3.192897   194A      3.203371  
     195A      3.228909   196A      3.234427   197A      3.245419  
     198A      3.259948   199A      3.280512   200A      3.297659  
     201A      3.325034   202A      3.343153   203A      3.363363  
     204A      3.393952   205A      3.397846   206A      3.421488  
     207A      3.458180   208A      3.491223   209A      3.530382  
     210A      3.558228   211A      3.579550   212A      3.588200  
     213A      3.656458   214A      3.676743   215A      3.724039  
     216A      3.759395   217A      3.788607   218A      3.885737  
     219A      3.966890   220A      4.094171   221A      4.190058  
     222A      4.250936   223A      4.271183   224A      4.350776  
     225A      4.377055   226A      4.391748   227A      4.402716  
     228A      4.440506   229A      4.468972   230A      4.477198  
     231A      4.494894   232A      4.537946   233A      4.564569  
     234A      4.591455   235A      4.643785   236A      4.645679  
     237A      4.664157   238A      4.677659   239A      4.729649  
     240A      4.766172   241A      4.830367   242A      4.873622  
     243A      4.884599   244A      4.903823   245A      4.932109  
     246A      4.974421   247A      4.999901   248A      5.071906  
     249A      5.081502   250A      5.093270   251A      5.151258  
     252A      5.232709   253A      5.277023   254A      5.298503  
     255A      5.452068   256A      5.460693   257A      5.538389  
     258A      5.557268   259A      5.612747   260A      5.666877  
     261A      5.674064   262A      5.735604   263A      5.746526  
     264A      5.858291   265A      6.123036   266A      6.153201  
     267A      6.190580   268A      6.304833   269A      6.474948  
     270A      6.572524   271A      6.732058   272A      6.742170  
     273A      6.785844   274A      6.877840   275A      7.029592  
     276A      7.115526   277A      7.171414   278A      7.277981  
     279A      7.299922   280A      7.303614   281A      7.370764  
     282A      7.481631   283A      7.613003   284A      7.694026  
     285A      7.747257   286A      7.770861   287A      7.833345  
     288A      7.880686   289A      7.931114   290A      8.085482  
     291A      8.138674   292A      8.238474   293A      8.273864  
     294A      8.284710   295A      8.305772   296A      8.640884  
     297A      8.737987   298A      8.784189   299A      8.829197  
     300A      9.069423   301A      9.673216   302A      9.721609  
     303A      9.850239   304A      9.863037   305A     10.016377  
     306A     10.083790   307A     10.192613   308A     10.327089  
     309A     10.396135   310A     11.084250   311A     11.238511  
     312A     11.642263   313A     11.784240   314A     12.017277  
     315A     12.275920   316A     13.439192   317A     13.514049  
     318A     13.634420   319A     13.757108   320A     13.830171  
     321A     13.902499   322A     14.021439   323A     15.331570  
     324A     26.216331   325A     26.259362   326A     26.290672  
     327A     26.379684   328A     26.606157   329A     46.073418  
     330A     64.427560   331A     66.996391   332A    138.502611  
     333A    138.905120   334A    139.140807   335A    710.474859  

    Final Occupation by Irrep:
              A 
    DOCC [     5 ]
    NA   [     5 ]
    NB   [     5 ]

  @DF-RHF Final Energy:   -76.05501945085751

   => Energetics <=

    Nuclear Repulsion Energy =              8.8587164163989591
    One-Electron Energy =                -122.4444355015252341
    Two-Electron Energy =                  37.5306996342687640
    Total Energy =                        -76.0550194508575146

Computation Completed


Properties will be evaluated at   0.000000,   0.000000,   0.000000 [a0]

Properties computed using the SCF density matrix


 Multipole Moments:

 ------------------------------------------------------------------------------------
     Multipole            Electronic (a.u.)      Nuclear  (a.u.)        Total (a.u.)
 ------------------------------------------------------------------------------------

 L = 1.  Multiply by 2.5417464519 to convert [e a0] to [Debye]
 Dipole X            :         57.9270974          -57.2630196            0.6640778
 Dipole Y            :          0.4817614           -0.7517784           -0.2700170
 Dipole Z            :         21.2911426          -21.6137350           -0.3225924
 Magnitude           :                                                    0.7861134

 ------------------------------------------------------------------------------------

*** tstop() called on ddmfs1 at Mon Jan 22 22:08:02 2024
Module time:
	user time   =      46.63 seconds =       0.78 minutes
	system time =       4.57 seconds =       0.08 minutes
	total time  =          5 seconds =       0.08 minutes
Total time:
	user time   =      46.63 seconds =       0.78 minutes
	system time =       4.57 seconds =       0.08 minutes
	total time  =          5 seconds =       0.08 minutes

*** tstart() called on ddmfs1
*** at Mon Jan 22 22:08:02 2024


  //>>>>>>>>>>>>>>>>>>>>>>>>>>>>>>>>>>>//
  //               DFMP2               //
  //<<<<<<<<<<<<<<<<<<<<<<<<<<<<<<<<<<<//

   => Loading Basis Set <=

    Name: (AUG-CC-PVTZ AUX)
    Role: RIFIT
    Keyword: DF_BASIS_MP2
    atoms 1              entry BR         line  1248 file /ddmfs1b/softs/psi4conda/share/psi4/basis/aug-cc-pvtz-ri.gbs 
    atoms 2, 5, 8        entry O          line   264 file /ddmfs1b/softs/psi4conda/share/psi4/basis/aug-cc-pvtz-ri.gbs 
    atoms 3-4, 6-7, 9-10 entry H          line    30 file /ddmfs1b/softs/psi4conda/share/psi4/basis/aug-cc-pvtz-ri.gbs 

	 --------------------------------------------------------
	                          DF-MP2                         
	      2nd-Order Density-Fitted Moller-Plesset Theory     
	              RMP2 Wavefunction,  20 Threads             
	                                                         
	        Rob Parrish, Justin Turney, Andy Simmonett,      
	           Ed Hohenstein, and C. David Sherrill          
	 --------------------------------------------------------

   => Auxiliary Basis Set <=

  Basis Set: (AUG-CC-PVTZ AUX)
    Blend: AUG-CC-PVTZ-RI
    Number of shells: 211
    Number of basis functions: 785
    Number of Cartesian functions: 999
    Spherical Harmonics?: true
    Max angular momentum: 5

	 --------------------------------------------------------
	                 NBF =   335, NAUX =   785
	 --------------------------------------------------------
	   CLASS    FOCC     OCC    AOCC    AVIR     VIR    FVIR
	   PAIRS       0       5       5     330     330       0
	 --------------------------------------------------------

	-----------------------------------------------------------
	 ==================> DF-MP2 Energies <==================== 
	-----------------------------------------------------------
	 Reference Energy          =     -76.0550194508575146 [Eh]
	 Singles Energy            =      -0.0000000000000000 [Eh]
	 Same-Spin Energy          =      -0.0689975675923235 [Eh]
	 Opposite-Spin Energy      =      -0.2176111799317423 [Eh]
	 Correlation Energy        =      -0.2866087475240658 [Eh]
	 Total Energy              =     -76.3416281983815850 [Eh]
	-----------------------------------------------------------
	 ================> DF-SCS-MP2 Energies <================== 
	-----------------------------------------------------------
	 SCS Same-Spin Scale       =       0.3333333333333333 [-]
	 SCS Opposite-Spin Scale   =       1.2000000000000000 [-]
	 SCS Same-Spin Energy      =      -0.0229991891974412 [Eh]
	 SCS Opposite-Spin Energy  =      -0.2611334159180908 [Eh]
	 SCS Correlation Energy    =      -0.2841326051155320 [Eh]
	 SCS Total Energy          =     -76.3391520559730452 [Eh]
	-----------------------------------------------------------


*** tstop() called on ddmfs1 at Mon Jan 22 22:08:09 2024
Module time:
	user time   =      20.32 seconds =       0.34 minutes
	system time =       1.64 seconds =       0.03 minutes
	total time  =          7 seconds =       0.12 minutes
Total time:
	user time   =      66.97 seconds =       1.12 minutes
	system time =       6.22 seconds =       0.10 minutes
	total time  =         12 seconds =       0.20 minutes

    Psi4 stopped on: Monday, 22 January 2024 10:08PM
    Psi4 wall time for execution: 0:00:12.19

*** Psi4 exiting successfully. Buy a developer a beer!
