
    -----------------------------------------------------------------------
          Psi4: An Open-Source Ab Initio Electronic Structure Package
                               Psi4 1.8.2 release

                         Git: Rev {} zzzzzzz 


    D. G. A. Smith, L. A. Burns, A. C. Simmonett, R. M. Parrish,
    M. C. Schieber, R. Galvelis, P. Kraus, H. Kruse, R. Di Remigio,
    A. Alenaizan, A. M. James, S. Lehtola, J. P. Misiewicz, M. Scheurer,
    R. A. Shaw, J. B. Schriber, Y. Xie, Z. L. Glick, D. A. Sirianni,
    J. S. O'Brien, J. M. Waldrop, A. Kumar, E. G. Hohenstein,
    B. P. Pritchard, B. R. Brooks, H. F. Schaefer III, A. Yu. Sokolov,
    K. Patkowski, A. E. DePrince III, U. Bozkaya, R. A. King,
    F. A. Evangelista, J. M. Turney, T. D. Crawford, C. D. Sherrill,
    J. Chem. Phys. 152(18) 184108 (2020). https://doi.org/10.1063/5.0006002

                            Additional Code Authors
    E. T. Seidl, C. L. Janssen, E. F. Valeev, M. L. Leininger,
    J. F. Gonthier, R. M. Richard, H. R. McAlexander, M. Saitow, X. Wang,
    P. Verma, M. H. Lechner, A. Jiang, S. Behnle, A. G. Heide,
    M. F. Herbst, and D. L. Poole

             Previous Authors, Complete List of Code Contributors,
                       and Citations for Specific Modules
    https://github.com/psi4/psi4/blob/master/codemeta.json
    https://github.com/psi4/psi4/graphs/contributors
    http://psicode.org/psi4manual/master/introduction.html#citing-psifour

    -----------------------------------------------------------------------


    Psi4 started on: Tuesday, 23 January 2024 12:14AM

    Process ID: 119997
    Host:       ddmfs1
    PSIDATADIR: /ddmfs1b/softs/psi4conda/share/psi4
    Memory:     500.0 MiB
    Threads:    20
    
  ==> Input File <==

--------------------------------------------------------------------------
MEMORY 60 GB

molecule dimer {
-1 1
Br         0.000000     0.000000     0.000000
O         -1.098908    -3.071508    -0.487534
H         -0.293885    -3.421066    -1.019080
H         -0.905828    -2.104128    -0.516759
O          1.164874    -2.706180     2.071644
H          1.253804    -2.143184     2.914441
H          0.471840    -2.302890     1.514895
O          0.575450    -0.529067    -2.994827
H          0.141283    -0.085171    -2.247597
H          1.099265    -1.253083    -2.580112
O         -0.792664     1.020897     3.205548
H          0.118432     0.983099     2.910144
H         -0.793424     1.323019     4.123454
O          3.168574    -1.492021    -0.608818
H          3.582456    -1.338518     0.262661
H          2.354410    -0.982806    -0.504585

units ang
no_reorient
no_com
symmetry c1
}

set {
basis        aug-cc-pVTZ
scf_type     df
}

energy("mp2")
--------------------------------------------------------------------------

  Memory set to  55.879 GiB by Python driver.

Scratch directory: /ddmfs1a/scratch/
   => Libint2 <=

    Primary   basis highest AM E, G, H:  5, 4, 3
    Auxiliary basis highest AM E, G, H:  6, 5, 4
    Onebody   basis highest AM E, G, H:  6, 5, 4
    Solid Harmonics ordering:            gaussian

*** tstart() called on ddmfs1
*** at Tue Jan 23 00:14:56 2024

   => Loading Basis Set <=

    Name: AUG-CC-PVTZ
    Role: ORBITAL
    Keyword: BASIS
    atoms 1                            entry BR         line  4208 file /ddmfs1b/softs/psi4conda/share/psi4/basis/aug-cc-pvtz.gbs 
    atoms 2, 5, 8, 11, 14              entry O          line   331 file /ddmfs1b/softs/psi4conda/share/psi4/basis/aug-cc-pvtz.gbs 
    atoms 3-4, 6-7, 9-10, 12-13, 15-16 entry H          line    40 file /ddmfs1b/softs/psi4conda/share/psi4/basis/aug-cc-pvtz.gbs 


         ---------------------------------------------------------
                                   SCF
               by Justin Turney, Rob Parrish, Andy Simmonett
                          and Daniel G. A. Smith
                              RHF Reference
                       20 Threads,  57220 MiB Core
         ---------------------------------------------------------

  ==> Geometry <==

    Molecular point group: c1
    Full point group: C1

    Geometry (in Angstrom), charge = -1, multiplicity = 1:

       Center              X                  Y                   Z               Mass       
    ------------   -----------------  -----------------  -----------------  -----------------
         BR           0.000000000000     0.000000000000     0.000000000000    78.918337600000
         O           -1.098908000000    -3.071508000000    -0.487534000000    15.994914619570
         H           -0.293885000000    -3.421066000000    -1.019080000000     1.007825032230
         H           -0.905828000000    -2.104128000000    -0.516759000000     1.007825032230
         O            1.164874000000    -2.706180000000     2.071644000000    15.994914619570
         H            1.253804000000    -2.143184000000     2.914441000000     1.007825032230
         H            0.471840000000    -2.302890000000     1.514895000000     1.007825032230
         O            0.575450000000    -0.529067000000    -2.994827000000    15.994914619570
         H            0.141283000000    -0.085171000000    -2.247597000000     1.007825032230
         H            1.099265000000    -1.253083000000    -2.580112000000     1.007825032230
         O           -0.792664000000     1.020897000000     3.205548000000    15.994914619570
         H            0.118432000000     0.983099000000     2.910144000000     1.007825032230
         H           -0.793424000000     1.323019000000     4.123454000000     1.007825032230
         O            3.168574000000    -1.492021000000    -0.608818000000    15.994914619570
         H            3.582456000000    -1.338518000000     0.262661000000     1.007825032230
         H            2.354410000000    -0.982806000000    -0.504585000000     1.007825032230

  Running in c1 symmetry.

  Rotational constants: A =      0.03061  B =      0.02543  C =      0.01971 [cm^-1]
  Rotational constants: A =    917.80032  B =    762.32761  C =    590.95276 [MHz]
  Nuclear repulsion =  444.468166226943936

  Charge       = -1
  Multiplicity = 1
  Electrons    = 86
  Nalpha       = 43
  Nbeta        = 43

  ==> Algorithm <==

  SCF Algorithm Type is DF.
  DIIS enabled.
  MOM disabled.
  Fractional occupation disabled.
  Guess Type is SAD.
  Energy threshold   = 1.00e-08
  Density threshold  = 1.00e-08
  Integral threshold = 1.00e-12

  ==> Primary Basis <==

  Basis Set: AUG-CC-PVTZ
    Blend: AUG-CC-PVTZ
    Number of shells: 179
    Number of basis functions: 519
    Number of Cartesian functions: 594
    Spherical Harmonics?: true
    Max angular momentum: 3

   => Loading Basis Set <=

    Name: (AUG-CC-PVTZ AUX)
    Role: JKFIT
    Keyword: DF_BASIS_SCF
    atoms 1                            entry BR         line  1492 file /ddmfs1b/softs/psi4conda/share/psi4/basis/aug-cc-pvtz-jkfit.gbs 
    atoms 2, 5, 8, 11, 14              entry O          line   286 file /ddmfs1b/softs/psi4conda/share/psi4/basis/aug-cc-pvtz-jkfit.gbs 
    atoms 3-4, 6-7, 9-10, 12-13, 15-16 entry H          line    70 file /ddmfs1b/softs/psi4conda/share/psi4/basis/aug-cc-pvtz-jkfit.gbs 

  ==> Integral Setup <==

  DFHelper Memory: AOs need 2.256 GiB; user supplied 41.910 GiB. 
  Using in-core AOs.

  ==> MemDFJK: Density-Fitted J/K Matrices <==

    J tasked:                   Yes
    K tasked:                   Yes
    wK tasked:                   No
    OpenMP threads:              20
    Memory [MiB]:             42915
    Algorithm:                 Core
    Schwarz Cutoff:           1E-12
    Mask sparsity (%):      12.7524
    Fitting Condition:        1E-10

   => Auxiliary Basis Set <=

  Basis Set: (AUG-CC-PVTZ AUX)
    Blend: AUG-CC-PVTZ-JKFIT
    Number of shells: 348
    Number of basis functions: 1228
    Number of Cartesian functions: 1534
    Spherical Harmonics?: true
    Max angular momentum: 4

  Minimum eigenvalue in the overlap matrix is 1.4585486635E-04.
  Reciprocal condition number of the overlap matrix is 1.1209991875E-05.
    Using symmetric orthogonalization.

  ==> Pre-Iterations <==

  SCF Guess: Superposition of Atomic Densities via on-the-fly atomic UHF (no occupation information).

   -------------------------
    Irrep   Nso     Nmo    
   -------------------------
     A        519     519 
   -------------------------
    Total     519     519
   -------------------------

  ==> Iterations <==

                           Total Energy        Delta E     RMS |[F,P]|

   @DF-RHF iter SAD: -2948.02715224840540   -2.94803e+03   0.00000e+00 
   @DF-RHF iter   1: -2952.23018753501674   -4.20304e+00   2.80892e-03 DIIS/ADIIS
   @DF-RHF iter   2: -2952.65423317374643   -4.24046e-01   1.69200e-03 DIIS/ADIIS
   @DF-RHF iter   3: -2952.85280467241910   -1.98571e-01   1.40240e-04 DIIS/ADIIS
   @DF-RHF iter   4: -2952.85546708987658   -2.66242e-03   6.66139e-05 DIIS
   @DF-RHF iter   5: -2952.85601660349721   -5.49514e-04   1.04371e-05 DIIS
   @DF-RHF iter   6: -2952.85605314700797   -3.65435e-05   2.95061e-06 DIIS
   @DF-RHF iter   7: -2952.85605607666230   -2.92965e-06   1.26761e-06 DIIS
   @DF-RHF iter   8: -2952.85605639706682   -3.20405e-07   3.78048e-07 DIIS
   @DF-RHF iter   9: -2952.85605643775943   -4.06926e-08   6.29326e-08 DIIS
   @DF-RHF iter  10: -2952.85605643909639   -1.33696e-09   1.66240e-08 DIIS
   @DF-RHF iter  11: -2952.85605643916642   -7.00311e-11   6.78644e-09 DIIS
  Energy and wave function converged.


  ==> Post-Iterations <==

    Orbital Energies [Eh]
    ---------------------

    Doubly Occupied:                                                      

       1A   -489.784412     2A    -64.925015     3A    -58.279516  
       4A    -58.279487     5A    -58.279443     6A    -20.453275  
       7A    -20.432155     8A    -20.427797     9A    -20.420427  
      10A    -20.401427    11A     -9.597534    12A     -7.205185  
      13A     -7.205033    14A     -7.204855    15A     -2.946838  
      16A     -2.946825    17A     -2.946559    18A     -2.946378  
      19A     -2.946324    20A     -1.235008    21A     -1.208726  
      22A     -1.193939    23A     -1.181230    24A     -1.179804  
      25A     -0.765530    26A     -0.606803    27A     -0.565602  
      28A     -0.563497    29A     -0.544198    30A     -0.532356  
      31A     -0.462505    32A     -0.454402    33A     -0.438283  
      34A     -0.435883    35A     -0.425785    36A     -0.395042  
      37A     -0.375364    38A     -0.364967    39A     -0.356781  
      40A     -0.345793    41A     -0.212931    42A     -0.211824  
      43A     -0.208994  

    Virtual:                                                              

      44A      0.102829    45A      0.120172    46A      0.135036  
      47A      0.141941    48A      0.146618    49A      0.157794  
      50A      0.162228    51A      0.175239    52A      0.179297  
      53A      0.190320    54A      0.225989    55A      0.229595  
      56A      0.247350    57A      0.249087    58A      0.259750  
      59A      0.262564    60A      0.268166    61A      0.277328  
      62A      0.282414    63A      0.288612    64A      0.297157  
      65A      0.301089    66A      0.311695    67A      0.319789  
      68A      0.320791    69A      0.325962    70A      0.336865  
      71A      0.341819    72A      0.345318    73A      0.347913  
      74A      0.352171    75A      0.355747    76A      0.366043  
      77A      0.373721    78A      0.377718    79A      0.391146  
      80A      0.395703    81A      0.408703    82A      0.412546  
      83A      0.420561    84A      0.428882    85A      0.437992  
      86A      0.440967    87A      0.442995    88A      0.456114  
      89A      0.464996    90A      0.473302    91A      0.478645  
      92A      0.493877    93A      0.499352    94A      0.504439  
      95A      0.509418    96A      0.521275    97A      0.523765  
      98A      0.524192    99A      0.534194   100A      0.543471  
     101A      0.552795   102A      0.556432   103A      0.559300  
     104A      0.572316   105A      0.579915   106A      0.583385  
     107A      0.591005   108A      0.598242   109A      0.611523  
     110A      0.613575   111A      0.622582   112A      0.636259  
     113A      0.645675   114A      0.649273   115A      0.652473  
     116A      0.661979   117A      0.681686   118A      0.699758  
     119A      0.717637   120A      0.720394   121A      0.742310  
     122A      0.757096   123A      0.771590   124A      0.785317  
     125A      0.792571   126A      0.798853   127A      0.800774  
     128A      0.811885   129A      0.820111   130A      0.828458  
     131A      0.841656   132A      0.845442   133A      0.858231  
     134A      0.866844   135A      0.870896   136A      0.876071  
     137A      0.884439   138A      0.894084   139A      0.895127  
     140A      0.901677   141A      0.905947   142A      0.912581  
     143A      0.918205   144A      0.926145   145A      0.927588  
     146A      0.934273   147A      0.943405   148A      0.953735  
     149A      0.958612   150A      0.971624   151A      0.984850  
     152A      0.997250   153A      0.999269   154A      1.010759  
     155A      1.016568   156A      1.024344   157A      1.032603  
     158A      1.039787   159A      1.048399   160A      1.053026  
     161A      1.061621   162A      1.064623   163A      1.068921  
     164A      1.078233   165A      1.080101   166A      1.084277  
     167A      1.093613   168A      1.098259   169A      1.104613  
     170A      1.107122   171A      1.115395   172A      1.122208  
     173A      1.131397   174A      1.138679   175A      1.145809  
     176A      1.150475   177A      1.155314   178A      1.166458  
     179A      1.168780   180A      1.185139   181A      1.192852  
     182A      1.194641   183A      1.202550   184A      1.207051  
     185A      1.211447   186A      1.218028   187A      1.229194  
     188A      1.237260   189A      1.248601   190A      1.253846  
     191A      1.256157   192A      1.265091   193A      1.267224  
     194A      1.268820   195A      1.286268   196A      1.294896  
     197A      1.300252   198A      1.315463   199A      1.324214  
     200A      1.330863   201A      1.336034   202A      1.345937  
     203A      1.354522   204A      1.365755   205A      1.369579  
     206A      1.376986   207A      1.383788   208A      1.403384  
     209A      1.410301   210A      1.415190   211A      1.423724  
     212A      1.431113   213A      1.434160   214A      1.452786  
     215A      1.478532   216A      1.490247   217A      1.500790  
     218A      1.509391   219A      1.515698   220A      1.520607  
     221A      1.537007   222A      1.547169   223A      1.564300  
     224A      1.579056   225A      1.598427   226A      1.607781  
     227A      1.616937   228A      1.635862   229A      1.665659  
     230A      1.670008   231A      1.672886   232A      1.680286  
     233A      1.686895   234A      1.693128   235A      1.706495  
     236A      1.720132   237A      1.726848   238A      1.731457  
     239A      1.747235   240A      1.748941   241A      1.769832  
     242A      1.777156   243A      1.784118   244A      1.800077  
     245A      1.809212   246A      1.835361   247A      1.858481  
     248A      1.872818   249A      1.874924   250A      1.906620  
     251A      1.917302   252A      1.955681   253A      1.969534  
     254A      1.980265   255A      2.003406   256A      2.045859  
     257A      2.056919   258A      2.066891   259A      2.089822  
     260A      2.099878   261A      2.106575   262A      2.126715  
     263A      2.129727   264A      2.145344   265A      2.155644  
     266A      2.170195   267A      2.220535   268A      2.262252  
     269A      2.272389   270A      2.398085   271A      2.402479  
     272A      2.422717   273A      2.431102   274A      2.449340  
     275A      2.464027   276A      2.480763   277A      2.482240  
     278A      2.500880   279A      2.507038   280A      2.527099  
     281A      2.534419   282A      2.537247   283A      2.549766  
     284A      2.558964   285A      2.563278   286A      2.579365  
     287A      2.587072   288A      2.595127   289A      2.599201  
     290A      2.607919   291A      2.617580   292A      2.618817  
     293A      2.627150   294A      2.636183   295A      2.644852  
     296A      2.662041   297A      2.671177   298A      2.677124  
     299A      2.689369   300A      2.702698   301A      2.711985  
     302A      2.719729   303A      2.728451   304A      2.734176  
     305A      2.745986   306A      2.751693   307A      2.763871  
     308A      2.773181   309A      2.783139   310A      2.803519  
     311A      2.813451   312A      2.827283   313A      2.830572  
     314A      2.840063   315A      2.849579   316A      2.862984  
     317A      2.872058   318A      2.880658   319A      2.900369  
     320A      2.906565   321A      2.909032   322A      2.925359  
     323A      2.934337   324A      2.945693   325A      2.950370  
     326A      2.967361   327A      2.975262   328A      2.988952  
     329A      3.002726   330A      3.014181   331A      3.020082  
     332A      3.033368   333A      3.036812   334A      3.049269  
     335A      3.070350   336A      3.079685   337A      3.105363  
     338A      3.136768   339A      3.146621   340A      3.155633  
     341A      3.175805   342A      3.181885   343A      3.199642  
     344A      3.219196   345A      3.227544   346A      3.268608  
     347A      3.326522   348A      3.331542   349A      3.814643  
     350A      3.829819   351A      3.865965   352A      3.905822  
     353A      3.933859   354A      3.944570   355A      3.998355  
     356A      4.031898   357A      4.111961   358A      4.121118  
     359A      4.157278   360A      4.190526   361A      4.228531  
     362A      4.240708   363A      4.262203   364A      4.272063  
     365A      4.324749   366A      4.337590   367A      4.353805  
     368A      4.362399   369A      4.377501   370A      4.388042  
     371A      4.411740   372A      4.419062   373A      4.428190  
     374A      4.440974   375A      4.446650   376A      4.453710  
     377A      4.464401   378A      4.470086   379A      4.476841  
     380A      4.492602   381A      4.506051   382A      4.516560  
     383A      4.528955   384A      4.536187   385A      4.544561  
     386A      4.554824   387A      4.560005   388A      4.573534  
     389A      4.578484   390A      4.581810   391A      4.598651  
     392A      4.614046   393A      4.619862   394A      4.642975  
     395A      4.646833   396A      4.654212   397A      4.676655  
     398A      4.689304   399A      4.713320   400A      4.743412  
     401A      4.761576   402A      4.840575   403A      4.856330  
     404A      4.884243   405A      4.926330   406A      4.934424  
     407A      4.941273   408A      4.954716   409A      5.016799  
     410A      5.030738   411A      5.042626   412A      5.068538  
     413A      5.103746   414A      5.186400   415A      5.207087  
     416A      5.236083   417A      5.248363   418A      5.273119  
     419A      5.277124   420A      5.279218   421A      5.320286  
     422A      5.338641   423A      5.380906   424A      5.401164  
     425A      5.416237   426A      5.433854   427A      5.438617  
     428A      5.445826   429A      5.449807   430A      5.462301  
     431A      5.489097   432A      5.489571   433A      5.518709  
     434A      5.562143   435A      5.610499   436A      5.619059  
     437A      5.660353   438A      5.669981   439A      5.689351  
     440A      5.758181   441A      5.825869   442A      5.854359  
     443A      5.871717   444A      5.904638   445A      6.293458  
     446A      6.335132   447A      6.431371   448A      6.450878  
     449A      6.482783   450A      6.686708   451A      6.693535  
     452A      6.706796   453A      6.741611   454A      6.755028  
     455A      6.855697   456A      6.918652   457A      6.925281  
     458A      6.951090   459A      7.000865   460A      7.009684  
     461A      7.038853   462A      7.107066   463A      7.130741  
     464A      7.162187   465A      7.239225   466A      7.266034  
     467A      7.267725   468A      7.279225   469A      7.346533  
     470A      7.358247   471A      7.378284   472A      7.386487  
     473A      7.398770   474A      7.427944   475A      7.431428  
     476A      7.436982   477A      7.457703   478A      7.462935  
     479A      7.465229   480A      7.472235   481A      7.483245  
     482A      7.488312   483A      7.492739   484A      7.498576  
     485A      7.508628   486A      7.531499   487A      7.546541  
     488A      7.562712   489A      7.573900   490A      7.587240  
     491A      7.600526   492A      7.626896   493A      7.630212  
     494A      7.646027   495A      7.702524   496A      7.729646  
     497A      7.787063   498A      7.791527   499A      7.866507  
     500A      7.999663   501A      8.017645   502A      8.035233  
     503A      8.066541   504A      8.078338   505A      8.085218  
     506A      8.111532   507A      8.115888   508A      8.126669  
     509A      8.168064   510A      8.746356   511A      8.780847  
     512A      8.894389   513A      8.914162   514A      8.962632  
     515A     15.307809   516A     15.434144   517A     15.991848  
     518A     16.021607   519A     16.291083  

    Final Occupation by Irrep:
              A 
    DOCC [    43 ]
    NA   [    43 ]
    NB   [    43 ]

  @DF-RHF Final Energy: -2952.85605643916642

   => Energetics <=

    Nuclear Repulsion Energy =            444.4681662269439357
    One-Electron Energy =               -5010.8609734640758688
    Two-Electron Energy =                1613.5367507979653965
    Total Energy =                      -2952.8560564391664229

Computation Completed


Properties will be evaluated at   0.000000,   0.000000,   0.000000 [a0]

Properties computed using the SCF density matrix


 Multipole Moments:

 ------------------------------------------------------------------------------------
     Multipole            Electronic (a.u.)      Nuclear  (a.u.)        Total (a.u.)
 ------------------------------------------------------------------------------------

 L = 1.  Multiply by 2.5417464519 to convert [e a0] to [Debye]
 Dipole X            :        -58.6900339           58.8970205            0.2069866
 Dipole Y            :        125.9874508         -123.8673145            2.1201363
 Dipole Z            :        -25.2756479           27.1091909            1.8335429
 Magnitude           :                                                    2.8106407

 ------------------------------------------------------------------------------------

*** tstop() called on ddmfs1 at Tue Jan 23 00:15:09 2024
Module time:
	user time   =     177.77 seconds =       2.96 minutes
	system time =      14.31 seconds =       0.24 minutes
	total time  =         13 seconds =       0.22 minutes
Total time:
	user time   =     177.77 seconds =       2.96 minutes
	system time =      14.31 seconds =       0.24 minutes
	total time  =         13 seconds =       0.22 minutes

*** tstart() called on ddmfs1
*** at Tue Jan 23 00:15:09 2024


  //>>>>>>>>>>>>>>>>>>>>>>>>>>>>>>>>>>>//
  //               DFMP2               //
  //<<<<<<<<<<<<<<<<<<<<<<<<<<<<<<<<<<<//

   => Loading Basis Set <=

    Name: (AUG-CC-PVTZ AUX)
    Role: RIFIT
    Keyword: DF_BASIS_MP2
    atoms 1                            entry BR         line  1248 file /ddmfs1b/softs/psi4conda/share/psi4/basis/aug-cc-pvtz-ri.gbs 
    atoms 2, 5, 8, 11, 14              entry O          line   264 file /ddmfs1b/softs/psi4conda/share/psi4/basis/aug-cc-pvtz-ri.gbs 
    atoms 3-4, 6-7, 9-10, 12-13, 15-16 entry H          line    30 file /ddmfs1b/softs/psi4conda/share/psi4/basis/aug-cc-pvtz-ri.gbs 

	 --------------------------------------------------------
	                          DF-MP2                         
	      2nd-Order Density-Fitted Moller-Plesset Theory     
	              RMP2 Wavefunction,  20 Threads             
	                                                         
	        Rob Parrish, Justin Turney, Andy Simmonett,      
	           Ed Hohenstein, and C. David Sherrill          
	 --------------------------------------------------------

   => Auxiliary Basis Set <=

  Basis Set: (AUG-CC-PVTZ AUX)
    Blend: AUG-CC-PVTZ-RI
    Number of shells: 323
    Number of basis functions: 1181
    Number of Cartesian functions: 1491
    Spherical Harmonics?: true
    Max angular momentum: 5

	 --------------------------------------------------------
	                 NBF =   519, NAUX =  1181
	 --------------------------------------------------------
	   CLASS    FOCC     OCC    AOCC    AVIR     VIR    FVIR
	   PAIRS       0      43      43     476     476       0
	 --------------------------------------------------------

	-----------------------------------------------------------
	 ==================> DF-MP2 Energies <==================== 
	-----------------------------------------------------------
	 Reference Energy          =   -2952.8560564391664229 [Eh]
	 Singles Energy            =      -0.0000000000000000 [Eh]
	 Same-Spin Energy          =      -0.4464526326558237 [Eh]
	 Opposite-Spin Energy      =      -1.3065596042252361 [Eh]
	 Correlation Energy        =      -1.7530122368810597 [Eh]
	 Total Energy              =   -2954.6090686760476274 [Eh]
	-----------------------------------------------------------
	 ================> DF-SCS-MP2 Energies <================== 
	-----------------------------------------------------------
	 SCS Same-Spin Scale       =       0.3333333333333333 [-]
	 SCS Opposite-Spin Scale   =       1.2000000000000000 [-]
	 SCS Same-Spin Energy      =      -0.1488175442186079 [Eh]
	 SCS Opposite-Spin Energy  =      -1.5678715250702833 [Eh]
	 SCS Correlation Energy    =      -1.7166890692888912 [Eh]
	 SCS Total Energy          =   -2954.5727455084552275 [Eh]
	-----------------------------------------------------------


*** tstop() called on ddmfs1 at Tue Jan 23 00:15:22 2024
Module time:
	user time   =      64.97 seconds =       1.08 minutes
	system time =       3.18 seconds =       0.05 minutes
	total time  =         13 seconds =       0.22 minutes
Total time:
	user time   =     242.76 seconds =       4.05 minutes
	system time =      17.49 seconds =       0.29 minutes
	total time  =         26 seconds =       0.43 minutes

    Psi4 stopped on: Tuesday, 23 January 2024 12:15AM
    Psi4 wall time for execution: 0:00:26.58

*** Psi4 exiting successfully. Buy a developer a beer!
