
    -----------------------------------------------------------------------
          Psi4: An Open-Source Ab Initio Electronic Structure Package
                               Psi4 1.9 release

                         Git: Rev {} zzzzzzz 


    D. G. A. Smith, L. A. Burns, A. C. Simmonett, R. M. Parrish,
    M. C. Schieber, R. Galvelis, P. Kraus, H. Kruse, R. Di Remigio,
    A. Alenaizan, A. M. James, S. Lehtola, J. P. Misiewicz, M. Scheurer,
    R. A. Shaw, J. B. Schriber, Y. Xie, Z. L. Glick, D. A. Sirianni,
    J. S. O'Brien, J. M. Waldrop, A. Kumar, E. G. Hohenstein,
    B. P. Pritchard, B. R. Brooks, H. F. Schaefer III, A. Yu. Sokolov,
    K. Patkowski, A. E. DePrince III, U. Bozkaya, R. A. King,
    F. A. Evangelista, J. M. Turney, T. D. Crawford, C. D. Sherrill,
    J. Chem. Phys. 152(18) 184108 (2020). https://doi.org/10.1063/5.0006002

                            Additional Code Authors
    E. T. Seidl, C. L. Janssen, E. F. Valeev, M. L. Leininger,
    J. F. Gonthier, R. M. Richard, H. R. McAlexander, M. Saitow, X. Wang,
    P. Verma, M. H. Lechner, A. Jiang, S. Behnle, A. G. Heide,
    M. F. Herbst, and D. L. Poole

             Previous Authors, Complete List of Code Contributors,
                       and Citations for Specific Modules
    https://github.com/psi4/psi4/blob/master/codemeta.json
    https://github.com/psi4/psi4/graphs/contributors
    http://psicode.org/psi4manual/master/introduction.html#citing-psifour

    -----------------------------------------------------------------------


    Psi4 started on: Sunday, 07 January 2024 12:11AM

    Process ID: 561674
    Host:       moses-razer
    PSIDATADIR: /home/kchung25/anaconda3/envs/psi4_19/share/psi4
    Memory:     500.0 MiB
    Threads:    6
    
  ==> Input File <==

--------------------------------------------------------------------------
MEMORY 60 GB

molecule dimer {
-1 1
Br     0.000000     0.000000     0.000000
--
0 1
O      2.503250     1.309100    -1.941613
H      1.693555     1.376407    -1.484593
H      2.297101     0.825735    -2.742119
O     -3.001212     0.171636     1.161661
H     -2.095584     0.222145     0.811440
H     -3.311681     1.091997     1.388500
O      0.694505    -1.649884    -3.009010
H      1.348391    -1.016594    -3.241515
H      0.489087    -1.363055    -2.138119
O     -1.346088     2.952246    -0.232248
H     -0.998482     2.049470    -0.375845
H     -2.085144     2.836345     0.344825
O      1.132621     1.535541     2.844400
H      0.751306     1.043572     2.062688
H      1.972007     2.061134     2.749098

units ang
no_reorient
no_com
symmetry c1
}

set {
basis        aug-cc-pVTZ
scf_type     df
}

energy("mp2", bsse_type="cp")
--------------------------------------------------------------------------

  Memory set to  55.879 GiB by Python driver.

Scratch directory: /scratch/

  //>>>>>>>>>>>>>>>>>>>>>>>>>>>>>>>>>>>>>//
  // ManyBody Setup: N-Body Levels [1, 2]//
  //<<<<<<<<<<<<<<<<<<<<<<<<<<<<<<<<<<<<<//

        Number of 1-body computations:     2
        Number of 2-body computations:     1

    -----------------------------------------------------------------------
          Psi4: An Open-Source Ab Initio Electronic Structure Package
                               Psi4 1.9 release

                         Git: Rev {} zzzzzzz 


    D. G. A. Smith, L. A. Burns, A. C. Simmonett, R. M. Parrish,
    M. C. Schieber, R. Galvelis, P. Kraus, H. Kruse, R. Di Remigio,
    A. Alenaizan, A. M. James, S. Lehtola, J. P. Misiewicz, M. Scheurer,
    R. A. Shaw, J. B. Schriber, Y. Xie, Z. L. Glick, D. A. Sirianni,
    J. S. O'Brien, J. M. Waldrop, A. Kumar, E. G. Hohenstein,
    B. P. Pritchard, B. R. Brooks, H. F. Schaefer III, A. Yu. Sokolov,
    K. Patkowski, A. E. DePrince III, U. Bozkaya, R. A. King,
    F. A. Evangelista, J. M. Turney, T. D. Crawford, C. D. Sherrill,
    J. Chem. Phys. 152(18) 184108 (2020). https://doi.org/10.1063/5.0006002

                            Additional Code Authors
    E. T. Seidl, C. L. Janssen, E. F. Valeev, M. L. Leininger,
    J. F. Gonthier, R. M. Richard, H. R. McAlexander, M. Saitow, X. Wang,
    P. Verma, M. H. Lechner, A. Jiang, S. Behnle, A. G. Heide,
    M. F. Herbst, and D. L. Poole

             Previous Authors, Complete List of Code Contributors,
                       and Citations for Specific Modules
    https://github.com/psi4/psi4/blob/master/codemeta.json
    https://github.com/psi4/psi4/graphs/contributors
    http://psicode.org/psi4manual/master/introduction.html#citing-psifour

    -----------------------------------------------------------------------


    Psi4 started on: Sunday, 07 January 2024 12:11AM

    Process ID: 561674
    Host:       moses-razer
    PSIDATADIR: /home/kchung25/anaconda3/envs/psi4_19/share/psi4
    Memory:     55.9 GiB
    Threads:    6
    
  ==> Input QCSchema <==

--------------------------------------------------------------------------
{'driver': 'energy',
 'extras': {'psiapi': True, 'wfn_qcvars_only': True},
 'id': None,
 'keywords': {'SCF_TYPE': 'DF', 'function_kwargs': {}},
 'model': {'basis': 'aug-cc-pvtz', 'method': 'mp2'},
 'molecule': {'atom_labels': ['', '', '', '', '', '', '', '', '', '', '', '', '', '', '', ''],
              'atomic_numbers': [35, 8, 1, 1, 8, 1, 1, 8, 1, 1, 8, 1, 1, 8, 1, 1],
              'extras': {},
              'fix_com': True,
              'fix_orientation': True,
              'fix_symmetry': 'c1',
              'fragment_charges': [0.0, 0.0],
              'fragment_multiplicities': [1, 1],
              'fragments': [[0], [1, 2, 3, 4, 5, 6, 7, 8, 9, 10, 11, 12, 13, 14, 15]],
              'geometry': [0.0, 0.0, 0.0, 4.730456923552309, 2.473840470836843, -3.66911681162855, 3.2003551283997314,
                           2.6010322671630326, -2.8054741777718135, 4.3408917725153024, 1.5604130022049196,
                           -5.181853913414295, -5.67146872443754, 0.3243450332690798, 2.195221140625466,
                           -3.9600798328914175, 0.41979321013982923, 1.5333993672415, -6.258170104882306,
                           2.063575259821572, 2.6238847251981947, 1.312424242761089, -3.1178288987748632,
                           -5.6862048087638595, 2.548089700032206, -1.9210842407836752, -6.125575581563432,
                           0.9242404815217928, -2.57580064393592, -4.0404593336377665, -2.543737660765277,
                           5.5789363949783715, -0.4388851131853297, -1.8868575211993832, 3.872937002342055,
                           -0.7102441156226974, -3.9403510921416376, 5.359915247311684, 0.6516248112109956,
                           2.140343493942171, 2.901751944411639, 5.375136991252246, 1.4197625764132191,
                           1.9720652721962766, 3.8979154022683566, 3.7265531474857156, 3.8949787678693952,
                           5.1950423120438645],
              'mass_numbers': [79, 16, 1, 1, 16, 1, 1, 16, 1, 1, 16, 1, 1, 16, 1, 1],
              'masses': [78.9183376, 15.99491461957, 1.00782503223, 1.00782503223, 15.99491461957, 1.00782503223,
                         1.00782503223, 15.99491461957, 1.00782503223, 1.00782503223, 15.99491461957, 1.00782503223,
                         1.00782503223, 15.99491461957, 1.00782503223, 1.00782503223],
              'molecular_charge': 0.0,
              'molecular_multiplicity': 1,
              'name': 'dimer',
              'provenance': {'creator': 'QCElemental',
                             'routine': 'qcelemental.molparse.from_string',
                             'version': '0.27.1'},
              'real': [False, True, True, True, True, True, True, True, True, True, True, True, True, True, True, True],
              'schema_name': 'qcschema_molecule',
              'schema_version': 2,
              'symbols': ['Br', 'O', 'H', 'H', 'O', 'H', 'H', 'O', 'H', 'H', 'O', 'H', 'H', 'O', 'H', 'H'],
              'validated': True},
 'protocols': {'stdout': True},
 'provenance': {'creator': 'QCElemental', 'routine': 'qcelemental.models.results', 'version': '0.27.1'},
 'schema_name': 'qcschema_input',
 'schema_version': 1}
--------------------------------------------------------------------------

Scratch directory: /scratch/
   => Libint2 <=

    Primary   basis highest AM E, G, H:  5, 4, 3
    Auxiliary basis highest AM E, G, H:  6, 5, 4
    Onebody   basis highest AM E, G, H:  6, 5, 4
    Solid Harmonics ordering:            gaussian

*** tstart() called on moses-razer
*** at Sun Jan  7 00:11:43 2024

   => Loading Basis Set <=

    Name: AUG-CC-PVTZ
    Role: ORBITAL
    Keyword: BASIS
    atoms 1                            entry BR         line  4564 file /home/kchung25/anaconda3/envs/p415env/share/psi4/basis/aug-cc-pvtz.gbs 
    atoms 2, 5, 8, 11, 14              entry O          line   331 file /home/kchung25/anaconda3/envs/p415env/share/psi4/basis/aug-cc-pvtz.gbs 
    atoms 3-4, 6-7, 9-10, 12-13, 15-16 entry H          line    40 file /home/kchung25/anaconda3/envs/p415env/share/psi4/basis/aug-cc-pvtz.gbs 


         ---------------------------------------------------------
                                   SCF
               by Justin Turney, Rob Parrish, Andy Simmonett
                          and Daniel G. A. Smith
                              RHF Reference
                        6 Threads,  57220 MiB Core
         ---------------------------------------------------------

  ==> Geometry <==

    Molecular point group: c1
    Full point group: C1

    Geometry (in Bohr), charge = 0, multiplicity = 1:

       Center              X                  Y                   Z               Mass       
    ------------   -----------------  -----------------  -----------------  -----------------
      Gh(BR)          0.000000000000     0.000000000000     0.000000000000    78.918337600000
         O            4.730456923552     2.473840470837    -3.669116811629    15.994914619570
         H            3.200355128400     2.601032267163    -2.805474177772     1.007825032230
         H            4.340891772515     1.560413002205    -5.181853913414     1.007825032230
         O           -5.671468724438     0.324345033269     2.195221140625    15.994914619570
         H           -3.960079832891     0.419793210140     1.533399367242     1.007825032230
         H           -6.258170104882     2.063575259822     2.623884725198     1.007825032230
         O            1.312424242761    -3.117828898775    -5.686204808764    15.994914619570
         H            2.548089700032    -1.921084240784    -6.125575581563     1.007825032230
         H            0.924240481522    -2.575800643936    -4.040459333638     1.007825032230
         O           -2.543737660765     5.578936394978    -0.438885113185    15.994914619570
         H           -1.886857521199     3.872937002342    -0.710244115623     1.007825032230
         H           -3.940351092142     5.359915247312     0.651624811211     1.007825032230
         O            2.140343493942     2.901751944412     5.375136991252    15.994914619570
         H            1.419762576413     1.972065272196     3.897915402268     1.007825032230
         H            3.726553147486     3.894978767869     5.195042312044     1.007825032230

  Running in c1 symmetry.

  Rotational constants: A =      0.03558  B =      0.02355  C =      0.02045 [cm^-1]
  Rotational constants: A =   1066.80529  B =    705.88997  C =    613.20122 [MHz]
  Nuclear repulsion =  159.250744490561743

  Charge       = 0
  Multiplicity = 1
  Electrons    = 50
  Nalpha       = 25
  Nbeta        = 25

  ==> Algorithm <==

  SCF Algorithm Type is DF.
  DIIS enabled.
  MOM disabled.
  Fractional occupation disabled.
  Guess Type is SAD.
  Energy threshold   = 1.00e-08
  Density threshold  = 1.00e-08
  Integral threshold = 1.00e-12

  ==> Primary Basis <==

  Basis Set: AUG-CC-PVTZ
    Blend: AUG-CC-PVTZ
    Number of shells: 179
    Number of basis functions: 519
    Number of Cartesian functions: 594
    Spherical Harmonics?: true
    Max angular momentum: 3

   => Loading Basis Set <=

    Name: (AUG-CC-PVTZ AUX)
    Role: JKFIT
    Keyword: DF_BASIS_SCF
    atoms 1                            entry BR         line  1492 file /home/kchung25/anaconda3/envs/p415env/share/psi4/basis/aug-cc-pvtz-jkfit.gbs 
    atoms 2, 5, 8, 11, 14              entry O          line   286 file /home/kchung25/anaconda3/envs/p415env/share/psi4/basis/aug-cc-pvtz-jkfit.gbs 
    atoms 3-4, 6-7, 9-10, 12-13, 15-16 entry H          line    70 file /home/kchung25/anaconda3/envs/p415env/share/psi4/basis/aug-cc-pvtz-jkfit.gbs 

  ==> Integral Setup <==

  DFHelper Memory: AOs need 2.187 GiB; user supplied 41.910 GiB. 
  Using in-core AOs.

  ==> MemDFJK: Density-Fitted J/K Matrices <==

    J tasked:                   Yes
    K tasked:                   Yes
    wK tasked:                   No
    OpenMP threads:               6
    Memory [MiB]:             42915
    Algorithm:                 Core
    Schwarz Cutoff:           1E-12
    Mask sparsity (%):      14.4178
    Fitting Condition:        1E-10

   => Auxiliary Basis Set <=

  Basis Set: (AUG-CC-PVTZ AUX)
    Blend: AUG-CC-PVTZ-JKFIT
    Number of shells: 348
    Number of basis functions: 1228
    Number of Cartesian functions: 1534
    Spherical Harmonics?: true
    Max angular momentum: 4

  Minimum eigenvalue in the overlap matrix is 1.6461073385E-04.
  Reciprocal condition number of the overlap matrix is 1.3393613279E-05.
    Using symmetric orthogonalization.

  ==> Pre-Iterations <==

  SCF Guess: Superposition of Atomic Densities via on-the-fly atomic UHF (no occupation information).

   -------------------------
    Irrep   Nso     Nmo    
   -------------------------
     A        519     519 
   -------------------------
    Total     519     519
   -------------------------

  ==> Iterations <==

                           Total Energy        Delta E     RMS |[F,P]|

   @DF-RHF iter SAD:  -377.43983380374607   -3.77440e+02   0.00000e+00 
   @DF-RHF iter   1:  -379.84750217076743   -2.40767e+00   2.01619e-03 ADIIS/DIIS
   @DF-RHF iter   2:  -380.10966258122374   -2.62160e-01   1.38338e-03 ADIIS/DIIS
   @DF-RHF iter   3:  -380.27022904412274   -1.60566e-01   9.71852e-05 DIIS
   @DF-RHF iter   4:  -380.27238954340606   -2.16050e-03   2.56599e-05 DIIS
   @DF-RHF iter   5:  -380.27253114135749   -1.41598e-04   8.80593e-06 DIIS
   @DF-RHF iter   6:  -380.27254690459841   -1.57632e-05   3.51377e-06 DIIS
   @DF-RHF iter   7:  -380.27254941276129   -2.50816e-06   7.02098e-07 DIIS
   @DF-RHF iter   8:  -380.27254962671077   -2.13949e-07   1.43407e-07 DIIS
   @DF-RHF iter   9:  -380.27254963430596   -7.59519e-09   4.67479e-08 DIIS
   @DF-RHF iter  10:  -380.27254963470835   -4.02395e-10   1.68693e-08 DIIS
   @DF-RHF iter  11:  -380.27254963477918   -7.08269e-11   4.42244e-09 DIIS
  Energy and wave function converged.


  ==> Post-Iterations <==

    Orbital Energies [Eh]
    ---------------------

    Doubly Occupied:                                                      

       1A    -20.596820     2A    -20.596575     3A    -20.593664  
       4A    -20.587835     5A    -20.578016     6A     -1.390009  
       7A     -1.387167     8A     -1.380815     9A     -1.363510  
      10A     -1.336128    11A     -0.756027    12A     -0.746713  
      13A     -0.739521    14A     -0.736281    15A     -0.734210  
      16A     -0.623575    17A     -0.617264    18A     -0.608742  
      19A     -0.591660    20A     -0.559541    21A     -0.539432  
      22A     -0.538819    23A     -0.534077    24A     -0.531892  
      25A     -0.513652  

    Virtual:                                                              

      26A      0.004025    27A      0.028384    28A      0.035871  
      29A      0.037184    30A      0.051392    31A      0.058629  
      32A      0.063062    33A      0.068527    34A      0.074469  
      35A      0.083329    36A      0.090167    37A      0.101393  
      38A      0.111729    39A      0.114561    40A      0.126477  
      41A      0.132682    42A      0.144890    43A      0.151469  
      44A      0.153342    45A      0.164861    46A      0.173239  
      47A      0.174381    48A      0.179261    49A      0.187928  
      50A      0.192207    51A      0.198293    52A      0.206253  
      53A      0.208651    54A      0.210937    55A      0.220676  
      56A      0.223111    57A      0.226198    58A      0.230669  
      59A      0.236746    60A      0.240197    61A      0.244507  
      62A      0.257609    63A      0.265482    64A      0.266980  
      65A      0.272843    66A      0.276920    67A      0.282547  
      68A      0.295136    69A      0.296568    70A      0.301290  
      71A      0.308052    72A      0.313615    73A      0.326034  
      74A      0.335379    75A      0.350579    76A      0.353369  
      77A      0.360016    78A      0.367335    79A      0.372663  
      80A      0.377562    81A      0.381794    82A      0.400438  
      83A      0.405638    84A      0.414348    85A      0.421718  
      86A      0.440674    87A      0.448565    88A      0.451818  
      89A      0.463919    90A      0.471680    91A      0.473032  
      92A      0.492254    93A      0.497209    94A      0.506867  
      95A      0.515654    96A      0.518804    97A      0.531323  
      98A      0.537768    99A      0.546132   100A      0.555105  
     101A      0.562976   102A      0.582575   103A      0.587812  
     104A      0.597042   105A      0.612970   106A      0.613913  
     107A      0.624959   108A      0.633688   109A      0.650082  
     110A      0.652068   111A      0.661894   112A      0.675924  
     113A      0.679445   114A      0.691693   115A      0.699382  
     116A      0.702390   117A      0.709678   118A      0.716707  
     119A      0.720700   120A      0.726119   121A      0.732925  
     122A      0.737075   123A      0.742034   124A      0.753161  
     125A      0.759968   126A      0.767379   127A      0.770960  
     128A      0.783240   129A      0.785546   130A      0.794316  
     131A      0.800128   132A      0.805497   133A      0.824263  
     134A      0.829744   135A      0.844388   136A      0.849049  
     137A      0.860588   138A      0.865188   139A      0.871952  
     140A      0.876689   141A      0.887425   142A      0.898714  
     143A      0.901247   144A      0.902568   145A      0.918727  
     146A      0.923416   147A      0.930857   148A      0.940867  
     149A      0.948814   150A      0.951658   151A      0.959332  
     152A      0.966078   153A      0.973496   154A      0.980205  
     155A      0.981587   156A      0.987352   157A      1.006429  
     158A      1.007597   159A      1.018255   160A      1.025904  
     161A      1.032797   162A      1.033671   163A      1.041647  
     164A      1.049605   165A      1.054375   166A      1.063351  
     167A      1.071322   168A      1.075767   169A      1.077413  
     170A      1.091664   171A      1.096117   172A      1.107262  
     173A      1.113059   174A      1.121570   175A      1.127151  
     176A      1.137750   177A      1.149670   178A      1.157327  
     179A      1.164987   180A      1.182186   181A      1.185504  
     182A      1.193995   183A      1.198753   184A      1.216931  
     185A      1.225377   186A      1.226566   187A      1.232087  
     188A      1.241378   189A      1.246960   190A      1.260963  
     191A      1.275938   192A      1.279972   193A      1.294834  
     194A      1.299572   195A      1.307191   196A      1.309186  
     197A      1.324398   198A      1.336573   199A      1.339375  
     200A      1.345999   201A      1.358757   202A      1.372093  
     203A      1.377338   204A      1.398780   205A      1.417569  
     206A      1.420125   207A      1.429218   208A      1.438913  
     209A      1.451379   210A      1.461847   211A      1.485005  
     212A      1.515689   213A      1.520574   214A      1.527875  
     215A      1.535215   216A      1.544894   217A      1.552899  
     218A      1.559672   219A      1.566818   220A      1.579505  
     221A      1.588960   222A      1.605986   223A      1.617528  
     224A      1.631422   225A      1.633770   226A      1.647413  
     227A      1.648358   228A      1.662297   229A      1.667833  
     230A      1.700258   231A      1.712247   232A      1.722403  
     233A      1.743243   234A      1.751691   235A      1.763733  
     236A      1.784501   237A      1.793908   238A      1.812860  
     239A      1.832642   240A      1.843516   241A      1.864073  
     242A      1.881451   243A      1.907094   244A      1.923820  
     245A      1.933979   246A      1.945895   247A      1.975763  
     248A      1.993966   249A      2.007479   250A      2.069014  
     251A      2.114753   252A      2.160017   253A      2.175369  
     254A      2.230359   255A      2.267470   256A      2.282956  
     257A      2.294903   258A      2.316777   259A      2.326869  
     260A      2.329865   261A      2.338404   262A      2.345368  
     263A      2.368986   264A      2.372870   265A      2.384981  
     266A      2.397781   267A      2.407399   268A      2.421312  
     269A      2.434758   270A      2.437605   271A      2.449610  
     272A      2.466390   273A      2.470622   274A      2.474162  
     275A      2.482264   276A      2.491531   277A      2.500277  
     278A      2.516585   279A      2.521749   280A      2.546232  
     281A      2.559363   282A      2.579261   283A      2.583016  
     284A      2.592238   285A      2.603935   286A      2.607452  
     287A      2.613126   288A      2.626338   289A      2.641192  
     290A      2.654994   291A      2.678163   292A      2.684732  
     293A      2.691481   294A      2.701530   295A      2.707202  
     296A      2.732328   297A      2.751489   298A      2.762954  
     299A      2.774217   300A      2.783180   301A      2.796097  
     302A      2.803877   303A      2.816649   304A      2.831542  
     305A      2.874735   306A      2.879925   307A      2.900218  
     308A      2.926767   309A      2.935622   310A      2.946401  
     311A      2.958545   312A      2.975599   313A      2.988701  
     314A      3.012888   315A      3.014442   316A      3.047548  
     317A      3.066079   318A      3.081108   319A      3.091231  
     320A      3.176502   321A      3.218520   322A      3.274141  
     323A      3.324420   324A      3.364147   325A      3.384640  
     326A      3.424178   327A      3.459964   328A      3.479163  
     329A      3.511846   330A      3.545829   331A      3.598704  
     332A      3.617920   333A      3.636182   334A      3.693111  
     335A      3.704646   336A      3.717671   337A      3.751499  
     338A      3.808670   339A      3.811239   340A      3.881451  
     341A      3.912514   342A      3.979938   343A      3.994708  
     344A      4.012213   345A      4.033295   346A      4.052050  
     347A      4.077070   348A      4.088408   349A      4.113432  
     350A      4.146654   351A      4.185799   352A      4.196443  
     353A      4.197978   354A      4.219134   355A      4.222436  
     356A      4.230268   357A      4.238249   358A      4.247904  
     359A      4.267178   360A      4.271552   361A      4.280753  
     362A      4.286633   363A      4.299390   364A      4.301793  
     365A      4.313816   366A      4.315067   367A      4.342352  
     368A      4.353083   369A      4.374399   370A      4.383110  
     371A      4.390409   372A      4.399702   373A      4.404365  
     374A      4.412655   375A      4.422126   376A      4.425672  
     377A      4.433646   378A      4.440773   379A      4.456646  
     380A      4.462906   381A      4.475668   382A      4.480088  
     383A      4.482339   384A      4.528414   385A      4.551080  
     386A      4.571351   387A      4.587732   388A      4.637211  
     389A      4.649871   390A      4.684165   391A      4.690631  
     392A      4.717477   393A      4.773207   394A      4.785795  
     395A      4.828923   396A      4.898373   397A      4.916140  
     398A      4.970138   399A      4.976126   400A      5.061095  
     401A      5.081967   402A      5.094097   403A      5.112030  
     404A      5.127464   405A      5.150754   406A      5.193615  
     407A      5.196484   408A      5.209388   409A      5.213063  
     410A      5.223552   411A      5.284154   412A      5.304703  
     413A      5.332141   414A      5.369264   415A      5.372816  
     416A      5.388777   417A      5.391444   418A      5.411653  
     419A      5.427647   420A      5.442529   421A      5.452814  
     422A      5.469485   423A      5.523490   424A      5.570495  
     425A      5.596816   426A      5.705541   427A      5.741009  
     428A      5.761499   429A      5.776897   430A      5.788879  
     431A      5.936157   432A      6.153052   433A      6.235751  
     434A      6.257129   435A      6.300098   436A      6.526993  
     437A      6.538034   438A      6.555939   439A      6.586741  
     440A      6.639297   441A      6.700556   442A      6.747804  
     443A      6.757419   444A      6.764753   445A      6.794880  
     446A      6.813893   447A      6.873057   448A      6.955402  
     449A      6.968566   450A      7.053468   451A      7.131052  
     452A      7.140390   453A      7.147253   454A      7.155072  
     455A      7.161709   456A      7.175023   457A      7.222126  
     458A      7.242012   459A      7.253266   460A      7.286222  
     461A      7.298125   462A      7.304390   463A      7.319410  
     464A      7.320649   465A      7.332404   466A      7.339671  
     467A      7.352632   468A      7.371929   469A      7.382238  
     470A      7.394879   471A      7.400744   472A      7.411315  
     473A      7.412737   474A      7.446269   475A      7.450549  
     476A      7.459730   477A      7.476639   478A      7.486287  
     479A      7.518769   480A      7.529490   481A      7.667280  
     482A      7.715938   483A      7.727705   484A      7.734898  
     485A      7.767122   486A      7.784286   487A      7.868044  
     488A      7.948255   489A      7.967179   490A      7.978280  
     491A      7.994377   492A      8.015663   493A      8.040958  
     494A      8.051317   495A      8.106145   496A      8.534388  
     497A      8.648558   498A      8.818384   499A      8.892877  
     500A      8.979138   501A     11.109069   502A     13.826430  
     503A     13.844999   504A     14.002922   505A     15.681054  
     506A     16.130973   507A     16.689076   508A     16.952216  
     509A     17.575907   510A     26.269927   511A     26.303852  
     512A     26.473204   513A     26.524095   514A     26.602860  
     515A     46.529043   516A    139.053217   517A    139.104731  
     518A    139.391663   519A    711.987370  

    Final Occupation by Irrep:
              A 
    DOCC [    25 ]
    NA   [    25 ]
    NB   [    25 ]

  @DF-RHF Final Energy:  -380.27254963477918

   => Energetics <=

    Nuclear Repulsion Energy =            159.2507444905617433
    One-Electron Energy =                -840.6826910836540492
    Two-Electron Energy =                 301.1593969583131525
    Total Energy =                       -380.2725496347791818

Computation Completed


Properties will be evaluated at   0.000000,   0.000000,   0.000000 [a0]

Properties computed using the SCF density matrix


 Multipole Moments:

 ------------------------------------------------------------------------------------
     Multipole            Electronic (a.u.)      Nuclear  (a.u.)        Total (a.u.)
 ------------------------------------------------------------------------------------

 L = 1.  Multiply by 2.5417464519 to convert [e a0] to [Debye]
 Dipole X            :          0.1905251           -0.1414195            0.0491055
 Dipole Y            :        -82.1631139           82.5361847            0.3730708
 Dipole Z            :         22.6004267          -22.7525293           -0.1521026
 Magnitude           :                                                    0.4058674

 ------------------------------------------------------------------------------------

*** tstop() called on moses-razer at Sun Jan  7 00:11:55 2024
Module time:
	user time   =      56.46 seconds =       0.94 minutes
	system time =       2.36 seconds =       0.04 minutes
	total time  =         12 seconds =       0.20 minutes
Total time:
	user time   =      56.46 seconds =       0.94 minutes
	system time =       2.36 seconds =       0.04 minutes
	total time  =         12 seconds =       0.20 minutes

*** tstart() called on moses-razer
*** at Sun Jan  7 00:11:55 2024


  //>>>>>>>>>>>>>>>>>>>>>>>>>>>>>>>>>>>//
  //               DFMP2               //
  //<<<<<<<<<<<<<<<<<<<<<<<<<<<<<<<<<<<//

   => Loading Basis Set <=

    Name: (AUG-CC-PVTZ AUX)
    Role: RIFIT
    Keyword: DF_BASIS_MP2
    atoms 1                            entry BR         line  1248 file /home/kchung25/anaconda3/envs/p415env/share/psi4/basis/aug-cc-pvtz-ri.gbs 
    atoms 2, 5, 8, 11, 14              entry O          line   264 file /home/kchung25/anaconda3/envs/p415env/share/psi4/basis/aug-cc-pvtz-ri.gbs 
    atoms 3-4, 6-7, 9-10, 12-13, 15-16 entry H          line    30 file /home/kchung25/anaconda3/envs/p415env/share/psi4/basis/aug-cc-pvtz-ri.gbs 

	 --------------------------------------------------------
	                          DF-MP2                         
	      2nd-Order Density-Fitted Moller-Plesset Theory     
	              RMP2 Wavefunction,   6 Threads             
	                                                         
	        Rob Parrish, Justin Turney, Andy Simmonett,      
	           Ed Hohenstein, and C. David Sherrill          
	 --------------------------------------------------------

   => Auxiliary Basis Set <=

  Basis Set: (AUG-CC-PVTZ AUX)
    Blend: AUG-CC-PVTZ-RI
    Number of shells: 323
    Number of basis functions: 1181
    Number of Cartesian functions: 1491
    Spherical Harmonics?: true
    Max angular momentum: 5

	 --------------------------------------------------------
	                 NBF =   519, NAUX =  1181
	 --------------------------------------------------------
	   CLASS    FOCC     OCC    AOCC    AVIR     VIR    FVIR
	   PAIRS       0      25      25     494     494       0
	 --------------------------------------------------------

	-----------------------------------------------------------
	 ==================> DF-MP2 Energies <==================== 
	-----------------------------------------------------------
	 Reference Energy          =    -380.2725496347791818 [Eh]
	 Singles Energy            =      -0.0000000000000000 [Eh]
	 Same-Spin Energy          =      -0.3441925748460796 [Eh]
	 Opposite-Spin Energy      =      -1.0834515125889639 [Eh]
	 Correlation Energy        =      -1.4276440874350436 [Eh]
	 Total Energy              =    -381.7001937222142374 [Eh]
	-----------------------------------------------------------
	 ================> DF-SCS-MP2 Energies <================== 
	-----------------------------------------------------------
	 SCS Same-Spin Scale       =       0.3333333333333333 [-]
	 SCS Opposite-Spin Scale   =       1.2000000000000000 [-]
	 SCS Same-Spin Energy      =      -0.1147308582820265 [Eh]
	 SCS Opposite-Spin Energy  =      -1.3001418151067565 [Eh]
	 SCS Correlation Energy    =      -1.4148726733887831 [Eh]
	 SCS Total Energy          =    -381.6874223081679816 [Eh]
	-----------------------------------------------------------


*** tstop() called on moses-razer at Sun Jan  7 00:12:02 2024
Module time:
	user time   =      23.04 seconds =       0.38 minutes
	system time =       1.32 seconds =       0.02 minutes
	total time  =          7 seconds =       0.12 minutes
Total time:
	user time   =      79.50 seconds =       1.32 minutes
	system time =       3.68 seconds =       0.06 minutes
	total time  =         19 seconds =       0.32 minutes

    Psi4 stopped on: Sunday, 07 January 2024 12:12AM
    Psi4 wall time for execution: 0:00:18.63


    -----------------------------------------------------------------------
          Psi4: An Open-Source Ab Initio Electronic Structure Package
                               Psi4 1.9 release

                         Git: Rev {} zzzzzzz 


    D. G. A. Smith, L. A. Burns, A. C. Simmonett, R. M. Parrish,
    M. C. Schieber, R. Galvelis, P. Kraus, H. Kruse, R. Di Remigio,
    A. Alenaizan, A. M. James, S. Lehtola, J. P. Misiewicz, M. Scheurer,
    R. A. Shaw, J. B. Schriber, Y. Xie, Z. L. Glick, D. A. Sirianni,
    J. S. O'Brien, J. M. Waldrop, A. Kumar, E. G. Hohenstein,
    B. P. Pritchard, B. R. Brooks, H. F. Schaefer III, A. Yu. Sokolov,
    K. Patkowski, A. E. DePrince III, U. Bozkaya, R. A. King,
    F. A. Evangelista, J. M. Turney, T. D. Crawford, C. D. Sherrill,
    J. Chem. Phys. 152(18) 184108 (2020). https://doi.org/10.1063/5.0006002

                            Additional Code Authors
    E. T. Seidl, C. L. Janssen, E. F. Valeev, M. L. Leininger,
    J. F. Gonthier, R. M. Richard, H. R. McAlexander, M. Saitow, X. Wang,
    P. Verma, M. H. Lechner, A. Jiang, S. Behnle, A. G. Heide,
    M. F. Herbst, and D. L. Poole

             Previous Authors, Complete List of Code Contributors,
                       and Citations for Specific Modules
    https://github.com/psi4/psi4/blob/master/codemeta.json
    https://github.com/psi4/psi4/graphs/contributors
    http://psicode.org/psi4manual/master/introduction.html#citing-psifour

    -----------------------------------------------------------------------


    Psi4 started on: Sunday, 07 January 2024 12:11AM

    Process ID: 561674
    Host:       moses-razer
    PSIDATADIR: /home/kchung25/anaconda3/envs/psi4_19/share/psi4
    Memory:     55.9 GiB
    Threads:    6
    
  ==> Input QCSchema <==

--------------------------------------------------------------------------
{'driver': 'energy',
 'extras': {'psiapi': True, 'wfn_qcvars_only': True},
 'id': None,
 'keywords': {'SCF_TYPE': 'DF', 'function_kwargs': {}},
 'model': {'basis': 'aug-cc-pvtz', 'method': 'mp2'},
 'molecule': {'atom_labels': ['', '', '', '', '', '', '', '', '', '', '', '', '', '', '', ''],
              'atomic_numbers': [35, 8, 1, 1, 8, 1, 1, 8, 1, 1, 8, 1, 1, 8, 1, 1],
              'extras': {},
              'fix_com': True,
              'fix_orientation': True,
              'fix_symmetry': 'c1',
              'fragment_charges': [-1.0, 0.0],
              'fragment_multiplicities': [1, 1],
              'fragments': [[0], [1, 2, 3, 4, 5, 6, 7, 8, 9, 10, 11, 12, 13, 14, 15]],
              'geometry': [0.0, 0.0, 0.0, 4.730456923552309, 2.473840470836843, -3.66911681162855, 3.2003551283997314,
                           2.6010322671630326, -2.8054741777718135, 4.3408917725153024, 1.5604130022049196,
                           -5.181853913414295, -5.67146872443754, 0.3243450332690798, 2.195221140625466,
                           -3.9600798328914175, 0.41979321013982923, 1.5333993672415, -6.258170104882306,
                           2.063575259821572, 2.6238847251981947, 1.312424242761089, -3.1178288987748632,
                           -5.6862048087638595, 2.548089700032206, -1.9210842407836752, -6.125575581563432,
                           0.9242404815217928, -2.57580064393592, -4.0404593336377665, -2.543737660765277,
                           5.5789363949783715, -0.4388851131853297, -1.8868575211993832, 3.872937002342055,
                           -0.7102441156226974, -3.9403510921416376, 5.359915247311684, 0.6516248112109956,
                           2.140343493942171, 2.901751944411639, 5.375136991252246, 1.4197625764132191,
                           1.9720652721962766, 3.8979154022683566, 3.7265531474857156, 3.8949787678693952,
                           5.1950423120438645],
              'mass_numbers': [79, 16, 1, 1, 16, 1, 1, 16, 1, 1, 16, 1, 1, 16, 1, 1],
              'masses': [78.9183376, 15.99491461957, 1.00782503223, 1.00782503223, 15.99491461957, 1.00782503223,
                         1.00782503223, 15.99491461957, 1.00782503223, 1.00782503223, 15.99491461957, 1.00782503223,
                         1.00782503223, 15.99491461957, 1.00782503223, 1.00782503223],
              'molecular_charge': -1.0,
              'molecular_multiplicity': 1,
              'name': 'dimer',
              'provenance': {'creator': 'QCElemental',
                             'routine': 'qcelemental.molparse.from_string',
                             'version': '0.27.1'},
              'real': [True, False, False, False, False, False, False, False, False, False, False, False, False, False,
                       False, False],
              'schema_name': 'qcschema_molecule',
              'schema_version': 2,
              'symbols': ['Br', 'O', 'H', 'H', 'O', 'H', 'H', 'O', 'H', 'H', 'O', 'H', 'H', 'O', 'H', 'H'],
              'validated': True},
 'protocols': {'stdout': True},
 'provenance': {'creator': 'QCElemental', 'routine': 'qcelemental.models.results', 'version': '0.27.1'},
 'schema_name': 'qcschema_input',
 'schema_version': 1}
--------------------------------------------------------------------------

Scratch directory: /scratch/
   => Libint2 <=

    Primary   basis highest AM E, G, H:  5, 4, 3
    Auxiliary basis highest AM E, G, H:  6, 5, 4
    Onebody   basis highest AM E, G, H:  6, 5, 4
    Solid Harmonics ordering:            gaussian

*** tstart() called on moses-razer
*** at Sun Jan  7 00:12:02 2024

   => Loading Basis Set <=

    Name: AUG-CC-PVTZ
    Role: ORBITAL
    Keyword: BASIS
    atoms 1                            entry BR         line  4564 file /home/kchung25/anaconda3/envs/p415env/share/psi4/basis/aug-cc-pvtz.gbs 
    atoms 2, 5, 8, 11, 14              entry O          line   331 file /home/kchung25/anaconda3/envs/p415env/share/psi4/basis/aug-cc-pvtz.gbs 
    atoms 3-4, 6-7, 9-10, 12-13, 15-16 entry H          line    40 file /home/kchung25/anaconda3/envs/p415env/share/psi4/basis/aug-cc-pvtz.gbs 


         ---------------------------------------------------------
                                   SCF
               by Justin Turney, Rob Parrish, Andy Simmonett
                          and Daniel G. A. Smith
                              RHF Reference
                        6 Threads,  57220 MiB Core
         ---------------------------------------------------------

  ==> Geometry <==

    Molecular point group: c1
    Full point group: C1

    Geometry (in Bohr), charge = -1, multiplicity = 1:

       Center              X                  Y                   Z               Mass       
    ------------   -----------------  -----------------  -----------------  -----------------
         BR           0.000000000000     0.000000000000     0.000000000000    78.918337600000
      Gh(O)           4.730456923552     2.473840470837    -3.669116811629    15.994914619570
      Gh(H)           3.200355128400     2.601032267163    -2.805474177772     1.007825032230
      Gh(H)           4.340891772515     1.560413002205    -5.181853913414     1.007825032230
      Gh(O)          -5.671468724438     0.324345033269     2.195221140625    15.994914619570
      Gh(H)          -3.960079832891     0.419793210140     1.533399367242     1.007825032230
      Gh(H)          -6.258170104882     2.063575259822     2.623884725198     1.007825032230
      Gh(O)           1.312424242761    -3.117828898775    -5.686204808764    15.994914619570
      Gh(H)           2.548089700032    -1.921084240784    -6.125575581563     1.007825032230
      Gh(H)           0.924240481522    -2.575800643936    -4.040459333638     1.007825032230
      Gh(O)          -2.543737660765     5.578936394978    -0.438885113185    15.994914619570
      Gh(H)          -1.886857521199     3.872937002342    -0.710244115623     1.007825032230
      Gh(H)          -3.940351092142     5.359915247312     0.651624811211     1.007825032230
      Gh(O)           2.140343493942     2.901751944412     5.375136991252    15.994914619570
      Gh(H)           1.419762576413     1.972065272196     3.897915402268     1.007825032230
      Gh(H)           3.726553147486     3.894978767869     5.195042312044     1.007825032230

  Running in c1 symmetry.

  Rotational constants: A =      0.03558  B =      0.02355  C =      0.02045 [cm^-1]
  Rotational constants: A =   1066.80529  B =    705.88997  C =    613.20122 [MHz]
  Nuclear repulsion =    0.000000000000000

  Charge       = -1
  Multiplicity = 1
  Electrons    = 36
  Nalpha       = 18
  Nbeta        = 18

  ==> Algorithm <==

  SCF Algorithm Type is DF.
  DIIS enabled.
  MOM disabled.
  Fractional occupation disabled.
  Guess Type is SAD.
  Energy threshold   = 1.00e-08
  Density threshold  = 1.00e-08
  Integral threshold = 1.00e-12

  ==> Primary Basis <==

  Basis Set: AUG-CC-PVTZ
    Blend: AUG-CC-PVTZ
    Number of shells: 179
    Number of basis functions: 519
    Number of Cartesian functions: 594
    Spherical Harmonics?: true
    Max angular momentum: 3

   => Loading Basis Set <=

    Name: (AUG-CC-PVTZ AUX)
    Role: JKFIT
    Keyword: DF_BASIS_SCF
    atoms 1                            entry BR         line  1492 file /home/kchung25/anaconda3/envs/p415env/share/psi4/basis/aug-cc-pvtz-jkfit.gbs 
    atoms 2, 5, 8, 11, 14              entry O          line   286 file /home/kchung25/anaconda3/envs/p415env/share/psi4/basis/aug-cc-pvtz-jkfit.gbs 
    atoms 3-4, 6-7, 9-10, 12-13, 15-16 entry H          line    70 file /home/kchung25/anaconda3/envs/p415env/share/psi4/basis/aug-cc-pvtz-jkfit.gbs 

  ==> Integral Setup <==

  DFHelper Memory: AOs need 2.187 GiB; user supplied 41.910 GiB. 
  Using in-core AOs.

  ==> MemDFJK: Density-Fitted J/K Matrices <==

    J tasked:                   Yes
    K tasked:                   Yes
    wK tasked:                   No
    OpenMP threads:               6
    Memory [MiB]:             42915
    Algorithm:                 Core
    Schwarz Cutoff:           1E-12
    Mask sparsity (%):      14.4178
    Fitting Condition:        1E-10

   => Auxiliary Basis Set <=

  Basis Set: (AUG-CC-PVTZ AUX)
    Blend: AUG-CC-PVTZ-JKFIT
    Number of shells: 348
    Number of basis functions: 1228
    Number of Cartesian functions: 1534
    Spherical Harmonics?: true
    Max angular momentum: 4

  Minimum eigenvalue in the overlap matrix is 1.6461073385E-04.
  Reciprocal condition number of the overlap matrix is 1.3393613279E-05.
    Using symmetric orthogonalization.

  ==> Pre-Iterations <==

  SCF Guess: Superposition of Atomic Densities via on-the-fly atomic UHF (no occupation information).

   -------------------------
    Irrep   Nso     Nmo    
   -------------------------
     A        519     519 
   -------------------------
    Total     519     519
   -------------------------

  ==> Iterations <==

                           Total Energy        Delta E     RMS |[F,P]|

   @DF-RHF iter SAD: -2570.41423570375719   -2.57041e+03   0.00000e+00 
   @DF-RHF iter   1: -2572.25120713397382   -1.83697e+00   2.10384e-03 ADIIS/DIIS
   @DF-RHF iter   2: -2572.46163619218441   -2.10429e-01   1.18047e-03 ADIIS/DIIS
   @DF-RHF iter   3: -2572.53369472407348   -7.20585e-02   1.67077e-05 DIIS
   @DF-RHF iter   4: -2572.53373058565876   -3.58616e-05   2.51466e-06 DIIS
   @DF-RHF iter   5: -2572.53373247193258   -1.88627e-06   6.12857e-07 DIIS
   @DF-RHF iter   6: -2572.53373260222907   -1.30296e-07   1.29068e-07 DIIS
   @DF-RHF iter   7: -2572.53373262030345   -1.80744e-08   9.71866e-09 DIIS
   @DF-RHF iter   8: -2572.53373262037439   -7.09406e-11   1.93120e-09 DIIS
  Energy and wave function converged.


  ==> Post-Iterations <==

    Orbital Energies [Eh]
    ---------------------

    Doubly Occupied:                                                      

       1A   -489.722311     2A    -64.861864     3A    -58.216402  
       4A    -58.216402     5A    -58.216399     6A     -9.533313  
       7A     -7.140643     8A     -7.140639     9A     -7.140624  
      10A     -2.882358    11A     -2.882354    12A     -2.882337  
      13A     -2.882329    14A     -2.882320    15A     -0.685989  
      16A     -0.139334    17A     -0.139333    18A     -0.139329  

    Virtual:                                                              

      19A      0.121274    20A      0.127145    21A      0.129539  
      22A      0.140101    23A      0.141249    24A      0.158825  
      25A      0.164178    26A      0.171851    27A      0.174354  
      28A      0.184108    29A      0.227469    30A      0.237345  
      31A      0.240628    32A      0.247561    33A      0.251827  
      34A      0.254758    35A      0.259047    36A      0.261672  
      37A      0.270450    38A      0.272561    39A      0.280779  
      40A      0.292450    41A      0.298947    42A      0.304478  
      43A      0.305728    44A      0.318878    45A      0.321224  
      46A      0.323246    47A      0.326805    48A      0.337059  
      49A      0.340997    50A      0.344400    51A      0.358737  
      52A      0.387594    53A      0.395663    54A      0.405931  
      55A      0.416158    56A      0.419345    57A      0.422738  
      58A      0.441014    59A      0.443461    60A      0.455135  
      61A      0.463022    62A      0.464145    63A      0.478281  
      64A      0.484881    65A      0.488885    66A      0.496795  
      67A      0.499397    68A      0.503157    69A      0.508342  
      70A      0.514481    71A      0.523458    72A      0.532422  
      73A      0.535100    74A      0.539897    75A      0.543052  
      76A      0.551790    77A      0.565458    78A      0.568376  
      79A      0.578394    80A      0.579448    81A      0.597722  
      82A      0.609215    83A      0.614605    84A      0.618771  
      85A      0.632737    86A      0.642249    87A      0.652708  
      88A      0.658448    89A      0.665988    90A      0.683139  
      91A      0.684324    92A      0.693883    93A      0.703731  
      94A      0.716535    95A      0.744967    96A      0.761143  
      97A      0.794859    98A      0.821874    99A      0.837683  
     100A      0.846257   101A      0.851175   102A      0.867552  
     103A      0.874205   104A      0.879273   105A      0.888164  
     106A      0.895586   107A      0.908267   108A      0.913818  
     109A      0.917837   110A      0.922374   111A      0.927278  
     112A      0.936422   113A      0.939342   114A      0.955546  
     115A      0.960125   116A      0.962706   117A      0.971842  
     118A      0.973353   119A      0.976229   120A      0.983215  
     121A      0.986479   122A      0.995340   123A      1.003189  
     124A      1.009599   125A      1.017245   126A      1.020486  
     127A      1.026336   128A      1.029261   129A      1.032561  
     130A      1.035890   131A      1.044532   132A      1.046715  
     133A      1.056150   134A      1.060010   135A      1.062163  
     136A      1.069044   137A      1.074380   138A      1.082379  
     139A      1.087522   140A      1.091568   141A      1.098936  
     142A      1.100214   143A      1.106456   144A      1.107487  
     145A      1.121310   146A      1.130162   147A      1.133789  
     148A      1.139784   149A      1.145395   150A      1.162740  
     151A      1.164529   152A      1.169967   153A      1.173933  
     154A      1.183445   155A      1.186328   156A      1.199058  
     157A      1.205870   158A      1.220440   159A      1.223633  
     160A      1.227015   161A      1.242010   162A      1.249686  
     163A      1.253621   164A      1.258571   165A      1.274390  
     166A      1.291177   167A      1.298222   168A      1.301372  
     169A      1.312347   170A      1.324720   171A      1.328391  
     172A      1.348030   173A      1.356777   174A      1.366606  
     175A      1.374043   176A      1.380765   177A      1.403398  
     178A      1.413372   179A      1.417363   180A      1.432972  
     181A      1.437506   182A      1.463388   183A      1.476115  
     184A      1.483819   185A      1.499410   186A      1.518015  
     187A      1.524154   188A      1.541699   189A      1.552471  
     190A      1.568314   191A      1.575915   192A      1.581153  
     193A      1.589773   194A      1.598319   195A      1.623594  
     196A      1.644566   197A      1.664187   198A      1.669143  
     199A      1.679622   200A      1.689978   201A      1.700523  
     202A      1.721214   203A      1.735413   204A      1.748227  
     205A      1.760169   206A      1.764063   207A      1.776880  
     208A      1.787687   209A      1.805248   210A      1.831032  
     211A      1.846507   212A      1.854634   213A      1.860364  
     214A      1.873391   215A      1.883913   216A      1.891538  
     217A      1.893907   218A      1.904882   219A      1.908857  
     220A      1.928579   221A      1.938514   222A      1.939276  
     223A      1.949267   224A      1.969176   225A      1.974226  
     226A      1.975645   227A      2.000838   228A      2.008002  
     229A      2.028423   230A      2.034427   231A      2.043321  
     232A      2.071106   233A      2.078844   234A      2.090557  
     235A      2.099535   236A      2.108411   237A      2.117410  
     238A      2.137967   239A      2.147332   240A      2.158360  
     241A      2.168682   242A      2.188447   243A      2.207713  
     244A      2.250278   245A      2.304932   246A      2.308546  
     247A      2.370087   248A      2.394653   249A      2.577828  
     250A      2.597177   251A      2.604699   252A      2.622408  
     253A      2.639842   254A      2.652964   255A      2.664613  
     256A      2.675603   257A      2.677550   258A      2.682570  
     259A      2.686053   260A      2.694461   261A      2.704061  
     262A      2.709031   263A      2.716515   264A      2.731364  
     265A      2.734894   266A      2.741200   267A      2.749974  
     268A      2.756717   269A      2.762455   270A      2.766678  
     271A      2.776209   272A      2.783061   273A      2.789015  
     274A      2.795500   275A      2.806418   276A      2.812137  
     277A      2.828220   278A      2.834967   279A      2.844045  
     280A      2.862566   281A      2.863251   282A      2.874354  
     283A      2.888039   284A      2.890921   285A      2.898333  
     286A      2.906817   287A      2.933218   288A      2.939719  
     289A      2.965480   290A      2.984383   291A      2.997794  
     292A      3.006747   293A      3.010523   294A      3.035392  
     295A      3.048139   296A      3.071644   297A      3.077453  
     298A      3.125236   299A      3.127465   300A      3.151043  
     301A      3.171390   302A      3.199196   303A      3.214045  
     304A      3.242018   305A      3.276277   306A      3.291657  
     307A      3.309688   308A      3.319946   309A      3.339750  
     310A      3.365660   311A      3.381194   312A      3.385394  
     313A      3.402882   314A      3.435093   315A      3.441001  
     316A      3.451317   317A      3.466376   318A      3.476538  
     319A      3.505493   320A      3.524510   321A      3.549050  
     322A      3.567284   323A      3.596938   324A      3.605770  
     325A      3.619332   326A      3.631220   327A      3.659185  
     328A      3.662299   329A      3.667374   330A      3.685022  
     331A      3.689356   332A      3.731969   333A      3.756281  
     334A      3.792521   335A      3.801534   336A      3.816320  
     337A      3.898057   338A      3.912957   339A      3.974250  
     340A      3.984335   341A      3.998316   342A      4.017453  
     343A      4.058506   344A      4.502763   345A      4.562445  
     346A      4.592944   347A      4.607166   348A      4.618227  
     349A      4.624017   350A      4.630656   351A      4.648550  
     352A      4.671901   353A      4.678751   354A      4.711872  
     355A      4.716987   356A      4.756052   357A      4.759545  
     358A      4.766821   359A      4.781087   360A      4.792615  
     361A      4.802977   362A      4.807592   363A      4.820477  
     364A      4.829186   365A      4.863243   366A      4.871829  
     367A      4.910673   368A      4.937779   369A      4.990329  
     370A      4.992017   371A      5.023855   372A      5.037402  
     373A      5.047889   374A      5.052192   375A      5.057971  
     376A      5.070601   377A      5.080429   378A      5.101873  
     379A      5.118173   380A      5.130243   381A      5.143964  
     382A      5.154845   383A      5.182390   384A      5.193311  
     385A      5.208380   386A      5.222548   387A      5.245872  
     388A      5.310853   389A      5.397428   390A      5.409637  
     391A      5.424419   392A      5.509953   393A      5.534075  
     394A      5.597884   395A      5.625224   396A      5.661743  
     397A      5.683955   398A      5.738064   399A      5.754894  
     400A      5.782067   401A      5.783751   402A      5.813069  
     403A      5.825462   404A      5.835544   405A      5.862146  
     406A      5.869510   407A      5.887342   408A      5.916002  
     409A      5.937228   410A      5.954799   411A      6.019632  
     412A      6.070533   413A      6.080210   414A      6.153706  
     415A      6.258352   416A      6.286092   417A      6.343358  
     418A      6.353783   419A      6.369056   420A      6.373863  
     421A      6.544613   422A      6.631198   423A      6.683193  
     424A      6.729502   425A      6.870190   426A      6.881345  
     427A      6.920854   428A      6.973422   429A      7.028152  
     430A      7.143768   431A      7.236478   432A      7.324017  
     433A      7.373222   434A      7.409769   435A      7.781976  
     436A      7.821114   437A      7.881391   438A      7.888889  
     439A      7.915341   440A      7.937629   441A      7.979976  
     442A      8.048528   443A      8.066854   444A      8.138542  
     445A      8.221653   446A      8.240618   447A      8.268656  
     448A      8.274789   449A      8.288075   450A      8.299473  
     451A      8.399396   452A      8.430531   453A      8.454209  
     454A      8.461289   455A      8.472959   456A      8.481491  
     457A      8.507090   458A      8.515843   459A      8.517322  
     460A      8.745967   461A      8.875436   462A      9.028760  
     463A      9.055372   464A      9.066009   465A      9.120477  
     466A      9.138014   467A      9.186464   468A      9.249968  
     469A      9.261711   470A      9.852204   471A      9.857110  
     472A      9.873491   473A      9.898618   474A      9.936449  
     475A      9.963889   476A     10.024522   477A     10.042103  
     478A     10.063012   479A     10.074555   480A     10.236440  
     481A     10.238861   482A     10.260484   483A     10.266859  
     484A     10.318102   485A     10.325056   486A     10.449927  
     487A     10.475560   488A     10.528001   489A     10.550395  
     490A     11.000085   491A     11.198052   492A     11.397712  
     493A     11.485074   494A     11.594720   495A     11.818477  
     496A     11.872397   497A     11.955903   498A     11.975457  
     499A     12.032146   500A     12.080002   501A     12.189075  
     502A     12.387379   503A     12.507518   504A     12.574125  
     505A     13.428549   506A     13.640637   507A     13.857030  
     508A     13.890788   509A     14.055325   510A     14.098788  
     511A     14.130272   512A     14.149884   513A     14.188293  
     514A     14.200329   515A     64.869572   516A     65.756879  
     517A     66.828693   518A     67.197676   519A     68.549418  

    Final Occupation by Irrep:
              A 
    DOCC [    18 ]
    NA   [    18 ]
    NB   [    18 ]

  @DF-RHF Final Energy: -2572.53373262037439

   => Energetics <=

    Nuclear Repulsion Energy =              0.0000000000000000
    One-Electron Energy =               -3593.6589082885438984
    Two-Electron Energy =                1021.1251756681692768
    Total Energy =                      -2572.5337326203743942

Computation Completed


Properties will be evaluated at   0.000000,   0.000000,   0.000000 [a0]

Properties computed using the SCF density matrix


 Multipole Moments:

 ------------------------------------------------------------------------------------
     Multipole            Electronic (a.u.)      Nuclear  (a.u.)        Total (a.u.)
 ------------------------------------------------------------------------------------

 L = 1.  Multiply by 2.5417464519 to convert [e a0] to [Debye]
 Dipole X            :         -0.0000521            0.0000000           -0.0000521
 Dipole Y            :          0.0001033            0.0000000            0.0001033
 Dipole Z            :         -0.0000747            0.0000000           -0.0000747
 Magnitude           :                                                    0.0001377

 ------------------------------------------------------------------------------------

*** tstop() called on moses-razer at Sun Jan  7 00:12:13 2024
Module time:
	user time   =      47.89 seconds =       0.80 minutes
	system time =       2.12 seconds =       0.04 minutes
	total time  =         11 seconds =       0.18 minutes
Total time:
	user time   =     127.74 seconds =       2.13 minutes
	system time =       5.82 seconds =       0.10 minutes
	total time  =         30 seconds =       0.50 minutes

*** tstart() called on moses-razer
*** at Sun Jan  7 00:12:13 2024


  //>>>>>>>>>>>>>>>>>>>>>>>>>>>>>>>>>>>//
  //               DFMP2               //
  //<<<<<<<<<<<<<<<<<<<<<<<<<<<<<<<<<<<//

   => Loading Basis Set <=

    Name: (AUG-CC-PVTZ AUX)
    Role: RIFIT
    Keyword: DF_BASIS_MP2
    atoms 1                            entry BR         line  1248 file /home/kchung25/anaconda3/envs/p415env/share/psi4/basis/aug-cc-pvtz-ri.gbs 
    atoms 2, 5, 8, 11, 14              entry O          line   264 file /home/kchung25/anaconda3/envs/p415env/share/psi4/basis/aug-cc-pvtz-ri.gbs 
    atoms 3-4, 6-7, 9-10, 12-13, 15-16 entry H          line    30 file /home/kchung25/anaconda3/envs/p415env/share/psi4/basis/aug-cc-pvtz-ri.gbs 

	 --------------------------------------------------------
	                          DF-MP2                         
	      2nd-Order Density-Fitted Moller-Plesset Theory     
	              RMP2 Wavefunction,   6 Threads             
	                                                         
	        Rob Parrish, Justin Turney, Andy Simmonett,      
	           Ed Hohenstein, and C. David Sherrill          
	 --------------------------------------------------------

   => Auxiliary Basis Set <=

  Basis Set: (AUG-CC-PVTZ AUX)
    Blend: AUG-CC-PVTZ-RI
    Number of shells: 323
    Number of basis functions: 1181
    Number of Cartesian functions: 1491
    Spherical Harmonics?: true
    Max angular momentum: 5

	 --------------------------------------------------------
	                 NBF =   519, NAUX =  1181
	 --------------------------------------------------------
	   CLASS    FOCC     OCC    AOCC    AVIR     VIR    FVIR
	   PAIRS       0      18      18     501     501       0
	 --------------------------------------------------------

	-----------------------------------------------------------
	 ==================> DF-MP2 Energies <==================== 
	-----------------------------------------------------------
	 Reference Energy          =   -2572.5337326203743942 [Eh]
	 Singles Energy            =      -0.0000000000000000 [Eh]
	 Same-Spin Energy          =      -0.0915855335352167 [Eh]
	 Opposite-Spin Energy      =      -0.2133100313596402 [Eh]
	 Correlation Energy        =      -0.3048955648948569 [Eh]
	 Total Energy              =   -2572.8386281852690445 [Eh]
	-----------------------------------------------------------
	 ================> DF-SCS-MP2 Energies <================== 
	-----------------------------------------------------------
	 SCS Same-Spin Scale       =       0.3333333333333333 [-]
	 SCS Opposite-Spin Scale   =       1.2000000000000000 [-]
	 SCS Same-Spin Energy      =      -0.0305285111784056 [Eh]
	 SCS Opposite-Spin Energy  =      -0.2559720376315682 [Eh]
	 SCS Correlation Energy    =      -0.2865005488099738 [Eh]
	 SCS Total Energy          =   -2572.8202331691845757 [Eh]
	-----------------------------------------------------------


*** tstop() called on moses-razer at Sun Jan  7 00:12:18 2024
Module time:
	user time   =      19.01 seconds =       0.32 minutes
	system time =       1.20 seconds =       0.02 minutes
	total time  =          5 seconds =       0.08 minutes
Total time:
	user time   =     146.76 seconds =       2.45 minutes
	system time =       7.02 seconds =       0.12 minutes
	total time  =         35 seconds =       0.58 minutes

    Psi4 stopped on: Sunday, 07 January 2024 12:12AM
    Psi4 wall time for execution: 0:00:16.90


    -----------------------------------------------------------------------
          Psi4: An Open-Source Ab Initio Electronic Structure Package
                               Psi4 1.9 release

                         Git: Rev {} zzzzzzz 


    D. G. A. Smith, L. A. Burns, A. C. Simmonett, R. M. Parrish,
    M. C. Schieber, R. Galvelis, P. Kraus, H. Kruse, R. Di Remigio,
    A. Alenaizan, A. M. James, S. Lehtola, J. P. Misiewicz, M. Scheurer,
    R. A. Shaw, J. B. Schriber, Y. Xie, Z. L. Glick, D. A. Sirianni,
    J. S. O'Brien, J. M. Waldrop, A. Kumar, E. G. Hohenstein,
    B. P. Pritchard, B. R. Brooks, H. F. Schaefer III, A. Yu. Sokolov,
    K. Patkowski, A. E. DePrince III, U. Bozkaya, R. A. King,
    F. A. Evangelista, J. M. Turney, T. D. Crawford, C. D. Sherrill,
    J. Chem. Phys. 152(18) 184108 (2020). https://doi.org/10.1063/5.0006002

                            Additional Code Authors
    E. T. Seidl, C. L. Janssen, E. F. Valeev, M. L. Leininger,
    J. F. Gonthier, R. M. Richard, H. R. McAlexander, M. Saitow, X. Wang,
    P. Verma, M. H. Lechner, A. Jiang, S. Behnle, A. G. Heide,
    M. F. Herbst, and D. L. Poole

             Previous Authors, Complete List of Code Contributors,
                       and Citations for Specific Modules
    https://github.com/psi4/psi4/blob/master/codemeta.json
    https://github.com/psi4/psi4/graphs/contributors
    http://psicode.org/psi4manual/master/introduction.html#citing-psifour

    -----------------------------------------------------------------------


    Psi4 started on: Sunday, 07 January 2024 12:11AM

    Process ID: 561674
    Host:       moses-razer
    PSIDATADIR: /home/kchung25/anaconda3/envs/psi4_19/share/psi4
    Memory:     55.9 GiB
    Threads:    6
    
  ==> Input QCSchema <==

--------------------------------------------------------------------------
{'driver': 'energy',
 'extras': {'psiapi': True, 'wfn_qcvars_only': True},
 'id': None,
 'keywords': {'SCF_TYPE': 'DF', 'function_kwargs': {}},
 'model': {'basis': 'aug-cc-pvtz', 'method': 'mp2'},
 'molecule': {'atom_labels': ['', '', '', '', '', '', '', '', '', '', '', '', '', '', '', ''],
              'atomic_numbers': [35, 8, 1, 1, 8, 1, 1, 8, 1, 1, 8, 1, 1, 8, 1, 1],
              'extras': {},
              'fix_com': True,
              'fix_orientation': True,
              'fix_symmetry': 'c1',
              'fragment_charges': [-1.0, 0.0],
              'fragment_multiplicities': [1, 1],
              'fragments': [[0], [1, 2, 3, 4, 5, 6, 7, 8, 9, 10, 11, 12, 13, 14, 15]],
              'geometry': [0.0, 0.0, 0.0, 4.730456923552309, 2.473840470836843, -3.66911681162855, 3.2003551283997314,
                           2.6010322671630326, -2.8054741777718135, 4.3408917725153024, 1.5604130022049196,
                           -5.181853913414295, -5.67146872443754, 0.3243450332690798, 2.195221140625466,
                           -3.9600798328914175, 0.41979321013982923, 1.5333993672415, -6.258170104882306,
                           2.063575259821572, 2.6238847251981947, 1.312424242761089, -3.1178288987748632,
                           -5.6862048087638595, 2.548089700032206, -1.9210842407836752, -6.125575581563432,
                           0.9242404815217928, -2.57580064393592, -4.0404593336377665, -2.543737660765277,
                           5.5789363949783715, -0.4388851131853297, -1.8868575211993832, 3.872937002342055,
                           -0.7102441156226974, -3.9403510921416376, 5.359915247311684, 0.6516248112109956,
                           2.140343493942171, 2.901751944411639, 5.375136991252246, 1.4197625764132191,
                           1.9720652721962766, 3.8979154022683566, 3.7265531474857156, 3.8949787678693952,
                           5.1950423120438645],
              'mass_numbers': [79, 16, 1, 1, 16, 1, 1, 16, 1, 1, 16, 1, 1, 16, 1, 1],
              'masses': [78.9183376, 15.99491461957, 1.00782503223, 1.00782503223, 15.99491461957, 1.00782503223,
                         1.00782503223, 15.99491461957, 1.00782503223, 1.00782503223, 15.99491461957, 1.00782503223,
                         1.00782503223, 15.99491461957, 1.00782503223, 1.00782503223],
              'molecular_charge': -1.0,
              'molecular_multiplicity': 1,
              'name': 'dimer',
              'provenance': {'creator': 'QCElemental',
                             'routine': 'qcelemental.molparse.from_string',
                             'version': '0.27.1'},
              'real': [True, True, True, True, True, True, True, True, True, True, True, True, True, True, True, True],
              'schema_name': 'qcschema_molecule',
              'schema_version': 2,
              'symbols': ['Br', 'O', 'H', 'H', 'O', 'H', 'H', 'O', 'H', 'H', 'O', 'H', 'H', 'O', 'H', 'H'],
              'validated': True},
 'protocols': {'stdout': True},
 'provenance': {'creator': 'QCElemental', 'routine': 'qcelemental.models.results', 'version': '0.27.1'},
 'schema_name': 'qcschema_input',
 'schema_version': 1}
--------------------------------------------------------------------------

Scratch directory: /scratch/
   => Libint2 <=

    Primary   basis highest AM E, G, H:  5, 4, 3
    Auxiliary basis highest AM E, G, H:  6, 5, 4
    Onebody   basis highest AM E, G, H:  6, 5, 4
    Solid Harmonics ordering:            gaussian

*** tstart() called on moses-razer
*** at Sun Jan  7 00:12:19 2024

   => Loading Basis Set <=

    Name: AUG-CC-PVTZ
    Role: ORBITAL
    Keyword: BASIS
    atoms 1                            entry BR         line  4564 file /home/kchung25/anaconda3/envs/p415env/share/psi4/basis/aug-cc-pvtz.gbs 
    atoms 2, 5, 8, 11, 14              entry O          line   331 file /home/kchung25/anaconda3/envs/p415env/share/psi4/basis/aug-cc-pvtz.gbs 
    atoms 3-4, 6-7, 9-10, 12-13, 15-16 entry H          line    40 file /home/kchung25/anaconda3/envs/p415env/share/psi4/basis/aug-cc-pvtz.gbs 


         ---------------------------------------------------------
                                   SCF
               by Justin Turney, Rob Parrish, Andy Simmonett
                          and Daniel G. A. Smith
                              RHF Reference
                        6 Threads,  57220 MiB Core
         ---------------------------------------------------------

  ==> Geometry <==

    Molecular point group: c1
    Full point group: C1

    Geometry (in Bohr), charge = -1, multiplicity = 1:

       Center              X                  Y                   Z               Mass       
    ------------   -----------------  -----------------  -----------------  -----------------
         BR           0.000000000000     0.000000000000     0.000000000000    78.918337600000
         O            4.730456923552     2.473840470837    -3.669116811629    15.994914619570
         H            3.200355128400     2.601032267163    -2.805474177772     1.007825032230
         H            4.340891772515     1.560413002205    -5.181853913414     1.007825032230
         O           -5.671468724438     0.324345033269     2.195221140625    15.994914619570
         H           -3.960079832891     0.419793210140     1.533399367242     1.007825032230
         H           -6.258170104882     2.063575259822     2.623884725198     1.007825032230
         O            1.312424242761    -3.117828898775    -5.686204808764    15.994914619570
         H            2.548089700032    -1.921084240784    -6.125575581563     1.007825032230
         H            0.924240481522    -2.575800643936    -4.040459333638     1.007825032230
         O           -2.543737660765     5.578936394978    -0.438885113185    15.994914619570
         H           -1.886857521199     3.872937002342    -0.710244115623     1.007825032230
         H           -3.940351092142     5.359915247312     0.651624811211     1.007825032230
         O            2.140343493942     2.901751944412     5.375136991252    15.994914619570
         H            1.419762576413     1.972065272196     3.897915402268     1.007825032230
         H            3.726553147486     3.894978767869     5.195042312044     1.007825032230

  Running in c1 symmetry.

  Rotational constants: A =      0.03558  B =      0.02355  C =      0.02045 [cm^-1]
  Rotational constants: A =   1066.80529  B =    705.88997  C =    613.20122 [MHz]
  Nuclear repulsion =  442.566289770137246

  Charge       = -1
  Multiplicity = 1
  Electrons    = 86
  Nalpha       = 43
  Nbeta        = 43

  ==> Algorithm <==

  SCF Algorithm Type is DF.
  DIIS enabled.
  MOM disabled.
  Fractional occupation disabled.
  Guess Type is SAD.
  Energy threshold   = 1.00e-08
  Density threshold  = 1.00e-08
  Integral threshold = 1.00e-12

  ==> Primary Basis <==

  Basis Set: AUG-CC-PVTZ
    Blend: AUG-CC-PVTZ
    Number of shells: 179
    Number of basis functions: 519
    Number of Cartesian functions: 594
    Spherical Harmonics?: true
    Max angular momentum: 3

   => Loading Basis Set <=

    Name: (AUG-CC-PVTZ AUX)
    Role: JKFIT
    Keyword: DF_BASIS_SCF
    atoms 1                            entry BR         line  1492 file /home/kchung25/anaconda3/envs/p415env/share/psi4/basis/aug-cc-pvtz-jkfit.gbs 
    atoms 2, 5, 8, 11, 14              entry O          line   286 file /home/kchung25/anaconda3/envs/p415env/share/psi4/basis/aug-cc-pvtz-jkfit.gbs 
    atoms 3-4, 6-7, 9-10, 12-13, 15-16 entry H          line    70 file /home/kchung25/anaconda3/envs/p415env/share/psi4/basis/aug-cc-pvtz-jkfit.gbs 

  ==> Integral Setup <==

  DFHelper Memory: AOs need 2.187 GiB; user supplied 41.910 GiB. 
  Using in-core AOs.

  ==> MemDFJK: Density-Fitted J/K Matrices <==

    J tasked:                   Yes
    K tasked:                   Yes
    wK tasked:                   No
    OpenMP threads:               6
    Memory [MiB]:             42915
    Algorithm:                 Core
    Schwarz Cutoff:           1E-12
    Mask sparsity (%):      14.4178
    Fitting Condition:        1E-10

   => Auxiliary Basis Set <=

  Basis Set: (AUG-CC-PVTZ AUX)
    Blend: AUG-CC-PVTZ-JKFIT
    Number of shells: 348
    Number of basis functions: 1228
    Number of Cartesian functions: 1534
    Spherical Harmonics?: true
    Max angular momentum: 4

  Minimum eigenvalue in the overlap matrix is 1.6461073385E-04.
  Reciprocal condition number of the overlap matrix is 1.3393613279E-05.
    Using symmetric orthogonalization.

  ==> Pre-Iterations <==

  SCF Guess: Superposition of Atomic Densities via on-the-fly atomic UHF (no occupation information).

   -------------------------
    Irrep   Nso     Nmo    
   -------------------------
     A        519     519 
   -------------------------
    Total     519     519
   -------------------------

  ==> Iterations <==

                           Total Energy        Delta E     RMS |[F,P]|

   @DF-RHF iter SAD: -2948.18368627057589   -2.94818e+03   0.00000e+00 
   @DF-RHF iter   1: -2952.25982290072989   -4.07614e+00   2.80953e-03 ADIIS/DIIS
   @DF-RHF iter   2: -2952.67545967983961   -4.15637e-01   1.66407e-03 ADIIS/DIIS
   @DF-RHF iter   3: -2952.86552987652158   -1.90070e-01   1.37488e-04 ADIIS/DIIS
   @DF-RHF iter   4: -2952.86801056656350   -2.48069e-03   6.43169e-05 DIIS
   @DF-RHF iter   5: -2952.86849681088552   -4.86244e-04   9.31467e-06 DIIS
   @DF-RHF iter   6: -2952.86852447505134   -2.76642e-05   2.80928e-06 DIIS
   @DF-RHF iter   7: -2952.86852670115650   -2.22611e-06   1.22916e-06 DIIS
   @DF-RHF iter   8: -2952.86852702651004   -3.25354e-07   3.43031e-07 DIIS
   @DF-RHF iter   9: -2952.86852706618129   -3.96712e-08   6.30903e-08 DIIS
   @DF-RHF iter  10: -2952.86852706770605   -1.52477e-09   1.56678e-08 DIIS
   @DF-RHF iter  11: -2952.86852706778836   -8.23093e-11   6.78543e-09 DIIS
  Energy and wave function converged.


  ==> Post-Iterations <==

    Orbital Energies [Eh]
    ---------------------

    Doubly Occupied:                                                      

       1A   -489.804618     2A    -64.945273     3A    -58.299760  
       4A    -58.299749     5A    -58.299723     6A    -20.440409  
       7A    -20.437000     8A    -20.425829     9A    -20.421997  
      10A    -20.420197    11A     -9.617771    12A     -7.225431  
      13A     -7.225282    14A     -7.225148    15A     -2.967010  
      16A     -2.966997    17A     -2.966821    18A     -2.966682  
      19A     -2.966648    20A     -1.240324    21A     -1.236729  
      22A     -1.211339    23A     -1.197328    24A     -1.181748  
      25A     -0.788220    26A     -0.605516    27A     -0.591851  
      28A     -0.580803    29A     -0.577890    30A     -0.572095  
      31A     -0.478662    32A     -0.462891    33A     -0.454145  
      34A     -0.430286    35A     -0.409659    36A     -0.390159  
      37A     -0.386879    38A     -0.371064    39A     -0.366042  
      40A     -0.359565    41A     -0.235758    42A     -0.231757  
      43A     -0.230990  

    Virtual:                                                              

      44A      0.118639    45A      0.122187    46A      0.126621  
      47A      0.144962    48A      0.145246    49A      0.157054  
      50A      0.165988    51A      0.175141    52A      0.175659  
      53A      0.187583    54A      0.228722    55A      0.237321  
      56A      0.242001    57A      0.246595    58A      0.255732  
      59A      0.257219    60A      0.275417    61A      0.278629  
      62A      0.284431    63A      0.290625    64A      0.296284  
      65A      0.305714    66A      0.308692    67A      0.311557  
      68A      0.315932    69A      0.320230    70A      0.323665  
      71A      0.329147    72A      0.332479    73A      0.334547  
      74A      0.344623    75A      0.352294    76A      0.362934  
      77A      0.367909    78A      0.370474    79A      0.383667  
      80A      0.387500    81A      0.393464    82A      0.401453  
      83A      0.420667    84A      0.424603    85A      0.427694  
      86A      0.436199    87A      0.441270    88A      0.453539  
      89A      0.464166    90A      0.472196    91A      0.477739  
      92A      0.481947    93A      0.484022    94A      0.492741  
      95A      0.503773    96A      0.513339    97A      0.517057  
      98A      0.522266    99A      0.536046   100A      0.550131  
     101A      0.553182   102A      0.566850   103A      0.571571  
     104A      0.580696   105A      0.585382   106A      0.593106  
     107A      0.603310   108A      0.618243   109A      0.621936  
     110A      0.631212   111A      0.638189   112A      0.649341  
     113A      0.654227   114A      0.666515   115A      0.680963  
     116A      0.691810   117A      0.712156   118A      0.718554  
     119A      0.723327   120A      0.735311   121A      0.741744  
     122A      0.755275   123A      0.772067   124A      0.773951  
     125A      0.783685   126A      0.808163   127A      0.817473  
     128A      0.822486   129A      0.835988   130A      0.837167  
     131A      0.839961   132A      0.843673   133A      0.857311  
     134A      0.859377   135A      0.860772   136A      0.867389  
     137A      0.876686   138A      0.884078   139A      0.885945  
     140A      0.895120   141A      0.897417   142A      0.904062  
     143A      0.910446   144A      0.923001   145A      0.927241  
     146A      0.935146   147A      0.937730   148A      0.946297  
     149A      0.957154   150A      0.966968   151A      0.971921  
     152A      0.984338   153A      0.986588   154A      0.997937  
     155A      1.005294   156A      1.012680   157A      1.016968  
     158A      1.035881   159A      1.037660   160A      1.046283  
     161A      1.055993   162A      1.060183   163A      1.068601  
     164A      1.075969   165A      1.084952   166A      1.091490  
     167A      1.093973   168A      1.100294   169A      1.105487  
     170A      1.114704   171A      1.116790   172A      1.122413  
     173A      1.132337   174A      1.137695   175A      1.141865  
     176A      1.143018   177A      1.152663   178A      1.160928  
     179A      1.166848   180A      1.180954   181A      1.186593  
     182A      1.190971   183A      1.197174   184A      1.211056  
     185A      1.216075   186A      1.219930   187A      1.226498  
     188A      1.231969   189A      1.253306   190A      1.259778  
     191A      1.274309   192A      1.280981   193A      1.286998  
     194A      1.288805   195A      1.304898   196A      1.311310  
     197A      1.331253   198A      1.338868   199A      1.345382  
     200A      1.352218   201A      1.363305   202A      1.373095  
     203A      1.375644   204A      1.375998   205A      1.395142  
     206A      1.402386   207A      1.408566   208A      1.422265  
     209A      1.432360   210A      1.436932   211A      1.445136  
     212A      1.450283   213A      1.456312   214A      1.469297  
     215A      1.482559   216A      1.502148   217A      1.519728  
     218A      1.525743   219A      1.533471   220A      1.547046  
     221A      1.556807   222A      1.568771   223A      1.579563  
     224A      1.587074   225A      1.592070   226A      1.617691  
     227A      1.636946   228A      1.651787   229A      1.665646  
     230A      1.673706   231A      1.684330   232A      1.693713  
     233A      1.694633   234A      1.704453   235A      1.708079  
     236A      1.727532   237A      1.740303   238A      1.747468  
     239A      1.755126   240A      1.778185   241A      1.781869  
     242A      1.786688   243A      1.799184   244A      1.820046  
     245A      1.826934   246A      1.855282   247A      1.858014  
     248A      1.875689   249A      1.892528   250A      1.916958  
     251A      1.926429   252A      1.944196   253A      1.959980  
     254A      1.980782   255A      1.991770   256A      2.018408  
     257A      2.046891   258A      2.060358   259A      2.063586  
     260A      2.070780   261A      2.096782   262A      2.110854  
     263A      2.123501   264A      2.202135   265A      2.221425  
     266A      2.289721   267A      2.306089   268A      2.341286  
     269A      2.406420   270A      2.415925   271A      2.425123  
     272A      2.429227   273A      2.446998   274A      2.459942  
     275A      2.463326   276A      2.471194   277A      2.496331  
     278A      2.506617   279A      2.508702   280A      2.525153  
     281A      2.531185   282A      2.535072   283A      2.543930  
     284A      2.550682   285A      2.561183   286A      2.566430  
     287A      2.581175   288A      2.592508   289A      2.613299  
     290A      2.614044   291A      2.619719   292A      2.626252  
     293A      2.637591   294A      2.649116   295A      2.657389  
     296A      2.672732   297A      2.683727   298A      2.690982  
     299A      2.699041   300A      2.718035   301A      2.724450  
     302A      2.727813   303A      2.737115   304A      2.742409  
     305A      2.753641   306A      2.770741   307A      2.777595  
     308A      2.801050   309A      2.814703   310A      2.818119  
     311A      2.835051   312A      2.845556   313A      2.851290  
     314A      2.856606   315A      2.867354   316A      2.877021  
     317A      2.899750   318A      2.908616   319A      2.913376  
     320A      2.914978   321A      2.932469   322A      2.946624  
     323A      2.955239   324A      2.975843   325A      2.984390  
     326A      3.004059   327A      3.006743   328A      3.018339  
     329A      3.028827   330A      3.035475   331A      3.052290  
     332A      3.089819   333A      3.099811   334A      3.108159  
     335A      3.134667   336A      3.141927   337A      3.151020  
     338A      3.165591   339A      3.173525   340A      3.189816  
     341A      3.214546   342A      3.235902   343A      3.250908  
     344A      3.276099   345A      3.287154   346A      3.302688  
     347A      3.343013   348A      3.373051   349A      3.795997  
     350A      3.851271   351A      3.872658   352A      3.955924  
     353A      4.000763   354A      4.029289   355A      4.053629  
     356A      4.118043   357A      4.139610   358A      4.168644  
     359A      4.182762   360A      4.212060   361A      4.234674  
     362A      4.247277   363A      4.272260   364A      4.309290  
     365A      4.342185   366A      4.359243   367A      4.366102  
     368A      4.379677   369A      4.389396   370A      4.394531  
     371A      4.396719   372A      4.420593   373A      4.432646  
     374A      4.440508   375A      4.446254   376A      4.449757  
     377A      4.456141   378A      4.468283   379A      4.476000  
     380A      4.489195   381A      4.508248   382A      4.528871  
     383A      4.535256   384A      4.541731   385A      4.546118  
     386A      4.558370   387A      4.562129   388A      4.575135  
     389A      4.579206   390A      4.592933   391A      4.607904  
     392A      4.621469   393A      4.625095   394A      4.632703  
     395A      4.643984   396A      4.653278   397A      4.662575  
     398A      4.717859   399A      4.725902   400A      4.735406  
     401A      4.778859   402A      4.812615   403A      4.840018  
     404A      4.843040   405A      4.876267   406A      4.926158  
     407A      4.932659   408A      4.990966   409A      5.036352  
     410A      5.061556   411A      5.125827   412A      5.130267  
     413A      5.210706   414A      5.242130   415A      5.248496  
     416A      5.275328   417A      5.283888   418A      5.319868  
     419A      5.344452   420A      5.347771   421A      5.361521  
     422A      5.367473   423A      5.392045   424A      5.447070  
     425A      5.451965   426A      5.484601   427A      5.519886  
     428A      5.526731   429A      5.538979   430A      5.556343  
     431A      5.578382   432A      5.585948   433A      5.603613  
     434A      5.606873   435A      5.621869   436A      5.691289  
     437A      5.719665   438A      5.743630   439A      5.796070  
     440A      5.855041   441A      5.899061   442A      5.933893  
     443A      5.945676   444A      6.051058   445A      6.095319  
     446A      6.350261   447A      6.387603   448A      6.427651  
     449A      6.449087   450A      6.675659   451A      6.686924  
     452A      6.726972   453A      6.751026   454A      6.792005  
     455A      6.853698   456A      6.901694   457A      6.912127  
     458A      6.923806   459A      6.955201   460A      6.968813  
     461A      7.040686   462A      7.110683   463A      7.132406  
     464A      7.203442   465A      7.291613   466A      7.297805  
     467A      7.303517   468A      7.309811   469A      7.317165  
     470A      7.324228   471A      7.385452   472A      7.396519  
     473A      7.408452   474A      7.448291   475A      7.455538  
     476A      7.468082   477A      7.468863   478A      7.483933  
     479A      7.492329   480A      7.498126   481A      7.502256  
     482A      7.520521   483A      7.547226   484A      7.553090  
     485A      7.556473   486A      7.563660   487A      7.569703  
     488A      7.597693   489A      7.615871   490A      7.625354  
     491A      7.635058   492A      7.653304   493A      7.676310  
     494A      7.684381   495A      7.821228   496A      7.884764  
     497A      7.888094   498A      7.890997   499A      7.930189  
     500A      7.941795   501A      8.034181   502A      8.097460  
     503A      8.127826   504A      8.137663   505A      8.161763  
     506A      8.183250   507A      8.197245   508A      8.203873  
     509A      8.255652   510A      8.691018   511A      8.818037  
     512A      8.991934   513A      9.046034   514A      9.129764  
     515A     15.808169   516A     16.248045   517A     16.847593  
     518A     17.102246   519A     17.721038  

    Final Occupation by Irrep:
              A 
    DOCC [    43 ]
    NA   [    43 ]
    NB   [    43 ]

  @DF-RHF Final Energy: -2952.86852706778836

   => Energetics <=

    Nuclear Repulsion Energy =            442.5662897701372458
    One-Electron Energy =               -5005.8415350246868911
    Two-Electron Energy =                1610.4067181867617364
    Total Energy =                      -2952.8685270677883636

Computation Completed


Properties will be evaluated at   0.000000,   0.000000,   0.000000 [a0]

Properties computed using the SCF density matrix


 Multipole Moments:

 ------------------------------------------------------------------------------------
     Multipole            Electronic (a.u.)      Nuclear  (a.u.)        Total (a.u.)
 ------------------------------------------------------------------------------------

 L = 1.  Multiply by 2.5417464519 to convert [e a0] to [Debye]
 Dipole X            :          0.4103174           -0.1414195            0.2688979
 Dipole Y            :        -82.8189881           82.5361847           -0.2828034
 Dipole Z            :         22.6163827          -22.7525293           -0.1361466
 Magnitude           :                                                    0.4133034

 ------------------------------------------------------------------------------------

*** tstop() called on moses-razer at Sun Jan  7 00:12:34 2024
Module time:
	user time   =      69.63 seconds =       1.16 minutes
	system time =       3.29 seconds =       0.05 minutes
	total time  =         15 seconds =       0.25 minutes
Total time:
	user time   =     216.75 seconds =       3.61 minutes
	system time =      10.32 seconds =       0.17 minutes
	total time  =         51 seconds =       0.85 minutes

*** tstart() called on moses-razer
*** at Sun Jan  7 00:12:34 2024


  //>>>>>>>>>>>>>>>>>>>>>>>>>>>>>>>>>>>//
  //               DFMP2               //
  //<<<<<<<<<<<<<<<<<<<<<<<<<<<<<<<<<<<//

   => Loading Basis Set <=

    Name: (AUG-CC-PVTZ AUX)
    Role: RIFIT
    Keyword: DF_BASIS_MP2
    atoms 1                            entry BR         line  1248 file /home/kchung25/anaconda3/envs/p415env/share/psi4/basis/aug-cc-pvtz-ri.gbs 
    atoms 2, 5, 8, 11, 14              entry O          line   264 file /home/kchung25/anaconda3/envs/p415env/share/psi4/basis/aug-cc-pvtz-ri.gbs 
    atoms 3-4, 6-7, 9-10, 12-13, 15-16 entry H          line    30 file /home/kchung25/anaconda3/envs/p415env/share/psi4/basis/aug-cc-pvtz-ri.gbs 

	 --------------------------------------------------------
	                          DF-MP2                         
	      2nd-Order Density-Fitted Moller-Plesset Theory     
	              RMP2 Wavefunction,   6 Threads             
	                                                         
	        Rob Parrish, Justin Turney, Andy Simmonett,      
	           Ed Hohenstein, and C. David Sherrill          
	 --------------------------------------------------------

   => Auxiliary Basis Set <=

  Basis Set: (AUG-CC-PVTZ AUX)
    Blend: AUG-CC-PVTZ-RI
    Number of shells: 323
    Number of basis functions: 1181
    Number of Cartesian functions: 1491
    Spherical Harmonics?: true
    Max angular momentum: 5

	 --------------------------------------------------------
	                 NBF =   519, NAUX =  1181
	 --------------------------------------------------------
	   CLASS    FOCC     OCC    AOCC    AVIR     VIR    FVIR
	   PAIRS       0      43      43     476     476       0
	 --------------------------------------------------------

	-----------------------------------------------------------
	 ==================> DF-MP2 Energies <==================== 
	-----------------------------------------------------------
	 Reference Energy          =   -2952.8685270677883636 [Eh]
	 Singles Energy            =      -0.0000000000000000 [Eh]
	 Same-Spin Energy          =      -0.4462337806328389 [Eh]
	 Opposite-Spin Energy      =      -1.3044925236481444 [Eh]
	 Correlation Energy        =      -1.7507263042809833 [Eh]
	 Total Energy              =   -2954.6192533720691245 [Eh]
	-----------------------------------------------------------
	 ================> DF-SCS-MP2 Energies <================== 
	-----------------------------------------------------------
	 SCS Same-Spin Scale       =       0.3333333333333333 [-]
	 SCS Opposite-Spin Scale   =       1.2000000000000000 [-]
	 SCS Same-Spin Energy      =      -0.1487445935442796 [Eh]
	 SCS Opposite-Spin Energy  =      -1.5653910283777732 [Eh]
	 SCS Correlation Energy    =      -1.7141356219220529 [Eh]
	 SCS Total Energy          =   -2954.5826626897105598 [Eh]
	-----------------------------------------------------------


*** tstop() called on moses-razer at Sun Jan  7 00:12:42 2024
Module time:
	user time   =      34.89 seconds =       0.58 minutes
	system time =       1.60 seconds =       0.03 minutes
	total time  =          8 seconds =       0.13 minutes
Total time:
	user time   =     251.64 seconds =       4.19 minutes
	system time =      11.92 seconds =       0.20 minutes
	total time  =         59 seconds =       0.98 minutes

    Psi4 stopped on: Sunday, 07 January 2024 12:12AM
    Psi4 wall time for execution: 0:00:23.54


  //>>>>>>>>>>>>>>>>>>>>>>>>>>>>>>>>>>>//
  //          ManyBody Results         //
  //<<<<<<<<<<<<<<<<<<<<<<<<<<<<<<<<<<<//


   ==> N-Body: Counterpoise Corrected (CP) energies <==

        n-Body     Total Energy            Interaction Energy                          N-body Contribution to Interaction Energy
                   [Eh]                    [Eh]                  [kcal/mol]            [Eh]                  [kcal/mol]
             1  N/A                         0.000000000000        0.000000000000        0.000000000000        0.000000000000
  FULL/RTN   2  N/A                        -0.080431464586      -50.471506017312       -0.080431464586      -50.471506017312


    Psi4 stopped on: Sunday, 07 January 2024 12:12AM
    Psi4 wall time for execution: 0:01:00.71

*** Psi4 exiting successfully. Buy a developer a beer!
