
    -----------------------------------------------------------------------
          Psi4: An Open-Source Ab Initio Electronic Structure Package
                               Psi4 1.8.2 release

                         Git: Rev {} zzzzzzz 


    D. G. A. Smith, L. A. Burns, A. C. Simmonett, R. M. Parrish,
    M. C. Schieber, R. Galvelis, P. Kraus, H. Kruse, R. Di Remigio,
    A. Alenaizan, A. M. James, S. Lehtola, J. P. Misiewicz, M. Scheurer,
    R. A. Shaw, J. B. Schriber, Y. Xie, Z. L. Glick, D. A. Sirianni,
    J. S. O'Brien, J. M. Waldrop, A. Kumar, E. G. Hohenstein,
    B. P. Pritchard, B. R. Brooks, H. F. Schaefer III, A. Yu. Sokolov,
    K. Patkowski, A. E. DePrince III, U. Bozkaya, R. A. King,
    F. A. Evangelista, J. M. Turney, T. D. Crawford, C. D. Sherrill,
    J. Chem. Phys. 152(18) 184108 (2020). https://doi.org/10.1063/5.0006002

                            Additional Code Authors
    E. T. Seidl, C. L. Janssen, E. F. Valeev, M. L. Leininger,
    J. F. Gonthier, R. M. Richard, H. R. McAlexander, M. Saitow, X. Wang,
    P. Verma, M. H. Lechner, A. Jiang, S. Behnle, A. G. Heide,
    M. F. Herbst, and D. L. Poole

             Previous Authors, Complete List of Code Contributors,
                       and Citations for Specific Modules
    https://github.com/psi4/psi4/blob/master/codemeta.json
    https://github.com/psi4/psi4/graphs/contributors
    http://psicode.org/psi4manual/master/introduction.html#citing-psifour

    -----------------------------------------------------------------------


    Psi4 started on: Tuesday, 23 January 2024 01:04AM

    Process ID: 122962
    Host:       ddmfs1
    PSIDATADIR: /ddmfs1b/softs/psi4conda/share/psi4
    Memory:     500.0 MiB
    Threads:    20
    
  ==> Input File <==

--------------------------------------------------------------------------
MEMORY 60 GB

molecule dimer {
0 1
Gh(Br)     0.000000     0.000000     0.000000
Gh(O)     -1.940430    -2.565513     0.899073
Gh(H)     -2.030209    -2.518827     1.877284
Gh(H)     -1.295089    -1.914109     0.676999
O          0.553447     2.582178     2.321146
H          0.620745     1.665940     2.488208
H          1.397611     2.901012     2.170963
Gh(O)     -1.302614    -1.622954    -2.889180
Gh(H)     -1.645295    -0.838258    -3.392872
Gh(H)     -0.914137    -1.279381    -2.076378
Gh(O)      2.785557    -0.938036    -1.642619
Gh(H)      3.238266    -1.550119    -1.047537
Gh(H)      2.005838    -0.710489    -1.193734
Gh(O)      0.626728     2.977561    -1.391010
Gh(H)     -0.065650     2.917648    -2.116526
Gh(H)      1.310986     2.330535    -1.671214

units ang
no_reorient
no_com
symmetry c1
}

set {
basis        aug-cc-pVTZ
scf_type     df
}

energy("mp2")
--------------------------------------------------------------------------

  Memory set to  55.879 GiB by Python driver.

Scratch directory: /ddmfs1a/scratch/
   => Libint2 <=

    Primary   basis highest AM E, G, H:  5, 4, 3
    Auxiliary basis highest AM E, G, H:  6, 5, 4
    Onebody   basis highest AM E, G, H:  6, 5, 4
    Solid Harmonics ordering:            gaussian

*** tstart() called on ddmfs1
*** at Tue Jan 23 01:04:39 2024

   => Loading Basis Set <=

    Name: AUG-CC-PVTZ
    Role: ORBITAL
    Keyword: BASIS
    atoms 1                            entry BR         line  4208 file /ddmfs1b/softs/psi4conda/share/psi4/basis/aug-cc-pvtz.gbs 
    atoms 2, 5, 8, 11, 14              entry O          line   331 file /ddmfs1b/softs/psi4conda/share/psi4/basis/aug-cc-pvtz.gbs 
    atoms 3-4, 6-7, 9-10, 12-13, 15-16 entry H          line    40 file /ddmfs1b/softs/psi4conda/share/psi4/basis/aug-cc-pvtz.gbs 


         ---------------------------------------------------------
                                   SCF
               by Justin Turney, Rob Parrish, Andy Simmonett
                          and Daniel G. A. Smith
                              RHF Reference
                       20 Threads,  57220 MiB Core
         ---------------------------------------------------------

  ==> Geometry <==

    Molecular point group: c1
    Full point group: C1

    Geometry (in Angstrom), charge = 0, multiplicity = 1:

       Center              X                  Y                   Z               Mass       
    ------------   -----------------  -----------------  -----------------  -----------------
      Gh(BR)          0.000000000000     0.000000000000     0.000000000000    78.918337600000
      Gh(O)          -1.940430000000    -2.565513000000     0.899073000000    15.994914619570
      Gh(H)          -2.030209000000    -2.518827000000     1.877284000000     1.007825032230
      Gh(H)          -1.295089000000    -1.914109000000     0.676999000000     1.007825032230
         O            0.553447000000     2.582178000000     2.321146000000    15.994914619570
         H            0.620745000000     1.665940000000     2.488208000000     1.007825032230
         H            1.397611000000     2.901012000000     2.170963000000     1.007825032230
      Gh(O)          -1.302614000000    -1.622954000000    -2.889180000000    15.994914619570
      Gh(H)          -1.645295000000    -0.838258000000    -3.392872000000     1.007825032230
      Gh(H)          -0.914137000000    -1.279381000000    -2.076378000000     1.007825032230
      Gh(O)           2.785557000000    -0.938036000000    -1.642619000000    15.994914619570
      Gh(H)           3.238266000000    -1.550119000000    -1.047537000000     1.007825032230
      Gh(H)           2.005838000000    -0.710489000000    -1.193734000000     1.007825032230
      Gh(O)           0.626728000000     2.977561000000    -1.391010000000    15.994914619570
      Gh(H)          -0.065650000000     2.917648000000    -2.116526000000     1.007825032230
      Gh(H)           1.310986000000     2.330535000000    -1.671214000000     1.007825032230

  Running in c1 symmetry.

  Rotational constants: A =      0.03348  B =      0.02417  C =      0.01879 [cm^-1]
  Rotational constants: A =   1003.63032  B =    724.57419  C =    563.45547 [MHz]
  Nuclear repulsion =    9.515867133385946

  Charge       = 0
  Multiplicity = 1
  Electrons    = 10
  Nalpha       = 5
  Nbeta        = 5

  ==> Algorithm <==

  SCF Algorithm Type is DF.
  DIIS enabled.
  MOM disabled.
  Fractional occupation disabled.
  Guess Type is SAD.
  Energy threshold   = 1.00e-08
  Density threshold  = 1.00e-08
  Integral threshold = 1.00e-12

  ==> Primary Basis <==

  Basis Set: AUG-CC-PVTZ
    Blend: AUG-CC-PVTZ
    Number of shells: 179
    Number of basis functions: 519
    Number of Cartesian functions: 594
    Spherical Harmonics?: true
    Max angular momentum: 3

   => Loading Basis Set <=

    Name: (AUG-CC-PVTZ AUX)
    Role: JKFIT
    Keyword: DF_BASIS_SCF
    atoms 1                            entry BR         line  1492 file /ddmfs1b/softs/psi4conda/share/psi4/basis/aug-cc-pvtz-jkfit.gbs 
    atoms 2, 5, 8, 11, 14              entry O          line   286 file /ddmfs1b/softs/psi4conda/share/psi4/basis/aug-cc-pvtz-jkfit.gbs 
    atoms 3-4, 6-7, 9-10, 12-13, 15-16 entry H          line    70 file /ddmfs1b/softs/psi4conda/share/psi4/basis/aug-cc-pvtz-jkfit.gbs 

  ==> Integral Setup <==

  DFHelper Memory: AOs need 2.148 GiB; user supplied 41.910 GiB. 
  Using in-core AOs.

  ==> MemDFJK: Density-Fitted J/K Matrices <==

    J tasked:                   Yes
    K tasked:                   Yes
    wK tasked:                   No
    OpenMP threads:              20
    Memory [MiB]:             42915
    Algorithm:                 Core
    Schwarz Cutoff:           1E-12
    Mask sparsity (%):      17.1049
    Fitting Condition:        1E-10

   => Auxiliary Basis Set <=

  Basis Set: (AUG-CC-PVTZ AUX)
    Blend: AUG-CC-PVTZ-JKFIT
    Number of shells: 348
    Number of basis functions: 1228
    Number of Cartesian functions: 1534
    Spherical Harmonics?: true
    Max angular momentum: 4

  Minimum eigenvalue in the overlap matrix is 1.6181340645E-04.
  Reciprocal condition number of the overlap matrix is 1.5219009143E-05.
    Using symmetric orthogonalization.

  ==> Pre-Iterations <==

  SCF Guess: Superposition of Atomic Densities via on-the-fly atomic UHF (no occupation information).

   -------------------------
    Irrep   Nso     Nmo    
   -------------------------
     A        519     519 
   -------------------------
    Total     519     519
   -------------------------

  ==> Iterations <==

                           Total Energy        Delta E     RMS |[F,P]|

   @DF-RHF iter SAD:   -75.51118850163587   -7.55112e+01   0.00000e+00 
   @DF-RHF iter   1:   -75.97733053691762   -4.66142e-01   9.11669e-04 ADIIS/DIIS
   @DF-RHF iter   2:   -76.03104968704515   -5.37192e-02   5.95864e-04 ADIIS/DIIS
   @DF-RHF iter   3:   -76.05997572886798   -2.89260e-02   4.02816e-05 DIIS
   @DF-RHF iter   4:   -76.06032516056777   -3.49432e-04   8.88134e-06 DIIS
   @DF-RHF iter   5:   -76.06034303894884   -1.78784e-05   1.91901e-06 DIIS
   @DF-RHF iter   6:   -76.06034439209766   -1.35315e-06   4.17774e-07 DIIS
   @DF-RHF iter   7:   -76.06034446490290   -7.28052e-08   8.18666e-08 DIIS
   @DF-RHF iter   8:   -76.06034446746293   -2.56003e-09   1.33005e-08 DIIS
   @DF-RHF iter   9:   -76.06034446751475   -5.18270e-11   3.06561e-09 DIIS
  Energy and wave function converged.


  ==> Post-Iterations <==

    Orbital Energies [Eh]
    ---------------------

    Doubly Occupied:                                                      

       1A    -20.559781     2A     -1.369001     3A     -0.742987  
       4A     -0.584787     5A     -0.512354  

    Virtual:                                                              

       6A      0.016108     7A      0.032541     8A      0.034465  
       9A      0.037972    10A      0.052357    11A      0.055899  
      12A      0.061588    13A      0.061853    14A      0.077652  
      15A      0.082033    16A      0.091742    17A      0.108261  
      18A      0.114431    19A      0.117207    20A      0.128379  
      21A      0.134800    22A      0.143558    23A      0.147654  
      24A      0.153373    25A      0.158437    26A      0.160903  
      27A      0.165045    28A      0.169419    29A      0.171393  
      30A      0.183313    31A      0.188924    32A      0.197768  
      33A      0.202583    34A      0.205682    35A      0.216303  
      36A      0.217860    37A      0.225196    38A      0.227440  
      39A      0.247494    40A      0.250331    41A      0.256174  
      42A      0.272295    43A      0.276807    44A      0.283707  
      45A      0.290681    46A      0.292536    47A      0.300461  
      48A      0.310979    49A      0.313320    50A      0.319016  
      51A      0.323682    52A      0.329278    53A      0.337355  
      54A      0.343065    55A      0.345041    56A      0.346244  
      57A      0.353881    58A      0.361551    59A      0.363318  
      60A      0.371655    61A      0.376690    62A      0.383367  
      63A      0.390621    64A      0.393557    65A      0.399780  
      66A      0.415293    67A      0.418872    68A      0.429042  
      69A      0.436501    70A      0.441524    71A      0.449664  
      72A      0.456370    73A      0.459236    74A      0.467860  
      75A      0.469797    76A      0.478484    77A      0.481872  
      78A      0.509883    79A      0.518902    80A      0.527849  
      81A      0.536786    82A      0.547678    83A      0.555055  
      84A      0.566010    85A      0.604049    86A      0.618499  
      87A      0.622638    88A      0.638326    89A      0.646490  
      90A      0.680402    91A      0.687624    92A      0.699505  
      93A      0.703745    94A      0.707385    95A      0.721373  
      96A      0.733817    97A      0.744229    98A      0.746437  
      99A      0.754514   100A      0.759944   101A      0.769633  
     102A      0.776459   103A      0.782880   104A      0.792226  
     105A      0.798429   106A      0.802918   107A      0.809958  
     108A      0.811721   109A      0.821271   110A      0.822803  
     111A      0.827057   112A      0.843869   113A      0.847930  
     114A      0.849290   115A      0.851776   116A      0.853616  
     117A      0.856612   118A      0.870830   119A      0.871597  
     120A      0.876753   121A      0.884345   122A      0.891359  
     123A      0.900570   124A      0.905131   125A      0.911722  
     126A      0.917242   127A      0.924604   128A      0.930139  
     129A      0.934897   130A      0.946382   131A      0.948826  
     132A      0.951469   133A      0.952859   134A      0.960874  
     135A      0.981092   136A      0.988088   137A      0.991255  
     138A      1.001601   139A      1.002558   140A      1.007291  
     141A      1.017229   142A      1.018797   143A      1.024945  
     144A      1.033465   145A      1.035349   146A      1.043571  
     147A      1.052008   148A      1.052538   149A      1.055359  
     150A      1.060792   151A      1.065931   152A      1.070246  
     153A      1.078306   154A      1.089815   155A      1.093862  
     156A      1.097044   157A      1.102690   158A      1.106752  
     159A      1.114579   160A      1.125870   161A      1.130722  
     162A      1.138328   163A      1.153391   164A      1.169087  
     165A      1.170992   166A      1.178605   167A      1.189902  
     168A      1.196362   169A      1.199064   170A      1.205913  
     171A      1.226869   172A      1.230522   173A      1.237085  
     174A      1.254705   175A      1.255974   176A      1.256831  
     177A      1.276804   178A      1.279752   179A      1.283957  
     180A      1.306181   181A      1.312278   182A      1.334683  
     183A      1.341782   184A      1.345656   185A      1.364900  
     186A      1.383555   187A      1.399251   188A      1.406173  
     189A      1.422574   190A      1.431597   191A      1.437306  
     192A      1.444349   193A      1.455301   194A      1.480402  
     195A      1.502333   196A      1.516908   197A      1.525654  
     198A      1.545844   199A      1.566770   200A      1.589664  
     201A      1.599501   202A      1.602994   203A      1.609647  
     204A      1.624187   205A      1.660163   206A      1.670381  
     207A      1.704528   208A      1.711560   209A      1.729788  
     210A      1.737252   211A      1.741785   212A      1.754069  
     213A      1.774181   214A      1.780328   215A      1.795771  
     216A      1.810548   217A      1.811944   218A      1.826740  
     219A      1.835840   220A      1.853512   221A      1.861150  
     222A      1.868951   223A      1.871132   224A      1.884031  
     225A      1.895488   226A      1.913879   227A      1.921989  
     228A      1.935363   229A      1.947856   230A      1.956149  
     231A      1.976374   232A      1.985365   233A      2.020922  
     234A      2.054351   235A      2.081732   236A      2.094791  
     237A      2.174559   238A      2.184755   239A      2.229941  
     240A      2.312261   241A      2.351475   242A      2.389607  
     243A      2.432100   244A      2.449007   245A      2.457664  
     246A      2.465667   247A      2.474946   248A      2.478771  
     249A      2.486859   250A      2.489439   251A      2.493525  
     252A      2.514787   253A      2.520047   254A      2.527040  
     255A      2.542260   256A      2.551269   257A      2.561954  
     258A      2.563076   259A      2.581165   260A      2.586948  
     261A      2.602654   262A      2.611087   263A      2.616104  
     264A      2.616606   265A      2.630359   266A      2.649207  
     267A      2.651945   268A      2.659836   269A      2.666459  
     270A      2.672756   271A      2.682009   272A      2.695963  
     273A      2.707967   274A      2.735724   275A      2.744527  
     276A      2.764686   277A      2.780580   278A      2.787537  
     279A      2.819347   280A      2.833004   281A      2.838097  
     282A      2.868850   283A      2.894614   284A      2.938823  
     285A      2.952918   286A      2.963268   287A      2.974950  
     288A      3.054854   289A      3.132031   290A      3.142448  
     291A      3.164023   292A      3.169433   293A      3.175539  
     294A      3.179602   295A      3.183754   296A      3.195094  
     297A      3.209855   298A      3.215751   299A      3.237944  
     300A      3.257184   301A      3.276365   302A      3.296401  
     303A      3.305733   304A      3.324658   305A      3.331760  
     306A      3.351143   307A      3.376233   308A      3.387788  
     309A      3.401450   310A      3.418086   311A      3.438295  
     312A      3.457347   313A      3.473622   314A      3.489145  
     315A      3.508160   316A      3.531409   317A      3.541589  
     318A      3.566209   319A      3.586565   320A      3.606510  
     321A      3.623865   322A      3.638938   323A      3.653743  
     324A      3.685839   325A      3.727936   326A      3.767561  
     327A      3.784294   328A      3.807029   329A      3.859531  
     330A      3.874644   331A      3.881601   332A      3.923543  
     333A      4.013403   334A      4.092653   335A      4.233197  
     336A      4.292398   337A      4.326431   338A      4.351743  
     339A      4.366166   340A      4.381827   341A      4.382995  
     342A      4.420634   343A      4.427100   344A      4.432302  
     345A      4.453834   346A      4.456069   347A      4.463562  
     348A      4.467938   349A      4.477412   350A      4.530062  
     351A      4.539484   352A      4.554411   353A      4.567092  
     354A      4.579936   355A      4.589604   356A      4.607705  
     357A      4.622868   358A      4.630615   359A      4.648380  
     360A      4.653641   361A      4.683100   362A      4.691184  
     363A      4.709348   364A      4.744104   365A      4.772308  
     366A      4.797142   367A      4.806413   368A      4.883988  
     369A      4.889184   370A      4.899391   371A      4.920194  
     372A      4.923008   373A      4.927274   374A      4.932543  
     375A      4.943528   376A      4.950954   377A      4.958433  
     378A      5.011561   379A      5.028002   380A      5.067575  
     381A      5.201465   382A      5.209417   383A      5.230351  
     384A      5.257409   385A      5.276117   386A      5.279797  
     387A      5.382336   388A      5.426972   389A      5.462056  
     390A      5.497780   391A      5.506354   392A      5.529694  
     393A      5.535339   394A      5.559397   395A      5.584995  
     396A      5.605873   397A      5.624437   398A      5.635692  
     399A      5.652661   400A      5.707049   401A      5.769731  
     402A      5.783939   403A      5.798682   404A      5.804505  
     405A      5.876771   406A      5.935316   407A      6.115470  
     408A      6.146275   409A      6.155862   410A      6.164681  
     411A      6.244964   412A      6.290887   413A      6.352258  
     414A      6.452143   415A      6.494000   416A      6.510585  
     417A      6.575762   418A      6.637436   419A      6.686360  
     420A      6.732428   421A      6.762100   422A      6.934327  
     423A      6.971406   424A      7.059067   425A      7.128326  
     426A      7.174467   427A      7.214548   428A      7.358321  
     429A      7.365123   430A      7.376650   431A      7.476079  
     432A      7.488038   433A      7.677303   434A      7.684683  
     435A      7.704489   436A      7.715096   437A      7.729124  
     438A      7.800524   439A      7.813909   440A      7.842227  
     441A      7.858318   442A      8.020115   443A      8.031948  
     444A      8.044913   445A      8.047467   446A      8.071433  
     447A      8.073749   448A      8.102550   449A      8.193609  
     450A      8.198608   451A      8.227771   452A      8.241720  
     453A      8.260943   454A      8.289236   455A      8.334320  
     456A      8.554040   457A      8.693579   458A      8.701124  
     459A      8.787248   460A      8.866370   461A      8.926000  
     462A      8.978393   463A      9.036348   464A      9.168969  
     465A      9.693721   466A      9.698419   467A      9.727377  
     468A      9.733444   469A      9.846537   470A      9.849401  
     471A      9.868263   472A      9.892929   473A     10.019477  
     474A     10.056046   475A     10.063084   476A     10.090078  
     477A     10.221802   478A     10.272727   479A     10.289575  
     480A     10.300469   481A     10.724948   482A     11.023446  
     483A     11.078712   484A     11.170562   485A     11.288246  
     486A     11.625142   487A     11.683671   488A     11.729347  
     489A     11.774158   490A     11.781249   491A     12.012335  
     492A     12.213052   493A     12.378115   494A     13.363956  
     495A     13.473768   496A     13.587393   497A     13.669800  
     498A     13.719534   499A     13.828974   500A     13.870466  
     501A     13.896358   502A     13.997450   503A     14.068349  
     504A     14.157161   505A     17.152300   506A     26.317941  
     507A     26.326966   508A     26.359443   509A     26.529108  
     510A     26.620453   511A     46.296992   512A     63.267881  
     513A     65.414236   514A     66.466887   515A     67.762893  
     516A    138.776345   517A    139.003956   518A    139.262658  
     519A    711.089663  

    Final Occupation by Irrep:
              A 
    DOCC [     5 ]
    NA   [     5 ]
    NB   [     5 ]

  @DF-RHF Final Energy:   -76.06034446751475

   => Energetics <=

    Nuclear Repulsion Energy =              9.5158671333859459
    One-Electron Energy =                -123.6146031936926875
    Two-Electron Energy =                  38.0383915927919887
    Total Energy =                        -76.0603444675147671

Computation Completed


Properties will be evaluated at   0.000000,   0.000000,   0.000000 [a0]

Properties computed using the SCF density matrix


 Multipole Moments:

 ------------------------------------------------------------------------------------
     Multipole            Electronic (a.u.)      Nuclear  (a.u.)        Total (a.u.)
 ------------------------------------------------------------------------------------

 L = 1.  Multiply by 2.5417464519 to convert [e a0] to [Debye]
 Dipole X            :        -11.5536253           12.1810461            0.6274208
 Dipole Y            :        -48.0747733           47.6671623           -0.4076110
 Dipole Z            :        -43.8837149           43.8951991            0.0114841
 Magnitude           :                                                    0.7482884

 ------------------------------------------------------------------------------------

*** tstop() called on ddmfs1 at Tue Jan 23 01:04:47 2024
Module time:
	user time   =      99.81 seconds =       1.66 minutes
	system time =       6.63 seconds =       0.11 minutes
	total time  =          8 seconds =       0.13 minutes
Total time:
	user time   =      99.81 seconds =       1.66 minutes
	system time =       6.63 seconds =       0.11 minutes
	total time  =          8 seconds =       0.13 minutes

*** tstart() called on ddmfs1
*** at Tue Jan 23 01:04:47 2024


  //>>>>>>>>>>>>>>>>>>>>>>>>>>>>>>>>>>>//
  //               DFMP2               //
  //<<<<<<<<<<<<<<<<<<<<<<<<<<<<<<<<<<<//

   => Loading Basis Set <=

    Name: (AUG-CC-PVTZ AUX)
    Role: RIFIT
    Keyword: DF_BASIS_MP2
    atoms 1                            entry BR         line  1248 file /ddmfs1b/softs/psi4conda/share/psi4/basis/aug-cc-pvtz-ri.gbs 
    atoms 2, 5, 8, 11, 14              entry O          line   264 file /ddmfs1b/softs/psi4conda/share/psi4/basis/aug-cc-pvtz-ri.gbs 
    atoms 3-4, 6-7, 9-10, 12-13, 15-16 entry H          line    30 file /ddmfs1b/softs/psi4conda/share/psi4/basis/aug-cc-pvtz-ri.gbs 

	 --------------------------------------------------------
	                          DF-MP2                         
	      2nd-Order Density-Fitted Moller-Plesset Theory     
	              RMP2 Wavefunction,  20 Threads             
	                                                         
	        Rob Parrish, Justin Turney, Andy Simmonett,      
	           Ed Hohenstein, and C. David Sherrill          
	 --------------------------------------------------------

   => Auxiliary Basis Set <=

  Basis Set: (AUG-CC-PVTZ AUX)
    Blend: AUG-CC-PVTZ-RI
    Number of shells: 323
    Number of basis functions: 1181
    Number of Cartesian functions: 1491
    Spherical Harmonics?: true
    Max angular momentum: 5

	 --------------------------------------------------------
	                 NBF =   519, NAUX =  1181
	 --------------------------------------------------------
	   CLASS    FOCC     OCC    AOCC    AVIR     VIR    FVIR
	   PAIRS       0       5       5     514     514       0
	 --------------------------------------------------------

	-----------------------------------------------------------
	 ==================> DF-MP2 Energies <==================== 
	-----------------------------------------------------------
	 Reference Energy          =     -76.0603444675147529 [Eh]
	 Singles Energy            =      -0.0000000000000000 [Eh]
	 Same-Spin Energy          =      -0.0677424810112640 [Eh]
	 Opposite-Spin Energy      =      -0.2135198554017530 [Eh]
	 Correlation Energy        =      -0.2812623364130170 [Eh]
	 Total Energy              =     -76.3416068039277746 [Eh]
	-----------------------------------------------------------
	 ================> DF-SCS-MP2 Energies <================== 
	-----------------------------------------------------------
	 SCS Same-Spin Scale       =       0.3333333333333333 [-]
	 SCS Opposite-Spin Scale   =       1.2000000000000000 [-]
	 SCS Same-Spin Energy      =      -0.0225808270037547 [Eh]
	 SCS Opposite-Spin Energy  =      -0.2562238264821036 [Eh]
	 SCS Correlation Energy    =      -0.2788046534858583 [Eh]
	 SCS Total Energy          =     -76.3391491210006166 [Eh]
	-----------------------------------------------------------


*** tstop() called on ddmfs1 at Tue Jan 23 01:04:58 2024
Module time:
	user time   =      34.19 seconds =       0.57 minutes
	system time =       2.44 seconds =       0.04 minutes
	total time  =         11 seconds =       0.18 minutes
Total time:
	user time   =     134.02 seconds =       2.23 minutes
	system time =       9.07 seconds =       0.15 minutes
	total time  =         19 seconds =       0.32 minutes

    Psi4 stopped on: Tuesday, 23 January 2024 01:04AM
    Psi4 wall time for execution: 0:00:19.54

*** Psi4 exiting successfully. Buy a developer a beer!
