
    -----------------------------------------------------------------------
          Psi4: An Open-Source Ab Initio Electronic Structure Package
                               Psi4 1.8.2 release

                         Git: Rev {} zzzzzzz 


    D. G. A. Smith, L. A. Burns, A. C. Simmonett, R. M. Parrish,
    M. C. Schieber, R. Galvelis, P. Kraus, H. Kruse, R. Di Remigio,
    A. Alenaizan, A. M. James, S. Lehtola, J. P. Misiewicz, M. Scheurer,
    R. A. Shaw, J. B. Schriber, Y. Xie, Z. L. Glick, D. A. Sirianni,
    J. S. O'Brien, J. M. Waldrop, A. Kumar, E. G. Hohenstein,
    B. P. Pritchard, B. R. Brooks, H. F. Schaefer III, A. Yu. Sokolov,
    K. Patkowski, A. E. DePrince III, U. Bozkaya, R. A. King,
    F. A. Evangelista, J. M. Turney, T. D. Crawford, C. D. Sherrill,
    J. Chem. Phys. 152(18) 184108 (2020). https://doi.org/10.1063/5.0006002

                            Additional Code Authors
    E. T. Seidl, C. L. Janssen, E. F. Valeev, M. L. Leininger,
    J. F. Gonthier, R. M. Richard, H. R. McAlexander, M. Saitow, X. Wang,
    P. Verma, M. H. Lechner, A. Jiang, S. Behnle, A. G. Heide,
    M. F. Herbst, and D. L. Poole

             Previous Authors, Complete List of Code Contributors,
                       and Citations for Specific Modules
    https://github.com/psi4/psi4/blob/master/codemeta.json
    https://github.com/psi4/psi4/graphs/contributors
    http://psicode.org/psi4manual/master/introduction.html#citing-psifour

    -----------------------------------------------------------------------


    Psi4 started on: Monday, 22 January 2024 11:35PM

    Process ID: 117521
    Host:       ddmfs1
    PSIDATADIR: /ddmfs1b/softs/psi4conda/share/psi4
    Memory:     500.0 MiB
    Threads:    20
    
  ==> Input File <==

--------------------------------------------------------------------------
MEMORY 60 GB

molecule dimer {
0 1
Gh(Br)     0.000000     0.000000     0.000000
Gh(O)      1.943362     2.492757     1.142910
Gh(H)      2.853656     2.365277     0.915650
Gh(H)      1.414503     1.767381     0.739501
Gh(O)      2.828599    -1.316138    -0.243498
Gh(H)      1.991575    -1.027562     0.115147
Gh(H)      2.923425    -0.868601    -1.085454
Gh(O)     -1.187233    -3.096829    -0.068719
Gh(H)     -1.015863    -2.191810     0.131593
Gh(H)     -0.434378    -3.240086    -0.566381
Gh(O)     -1.630611     1.500183     2.569503
Gh(H)     -1.143522     1.019930     1.833037
Gh(H)     -1.089551     2.321043     2.728925
O          0.795952     1.602190    -3.133141
H          1.463263     0.954500    -2.826078
H         -0.107599     1.347855    -3.018310

units ang
no_reorient
no_com
symmetry c1
}

set {
basis        aug-cc-pVTZ
scf_type     df
}

energy("mp2")
--------------------------------------------------------------------------

  Memory set to  55.879 GiB by Python driver.

Scratch directory: /ddmfs1a/scratch/
   => Libint2 <=

    Primary   basis highest AM E, G, H:  5, 4, 3
    Auxiliary basis highest AM E, G, H:  6, 5, 4
    Onebody   basis highest AM E, G, H:  6, 5, 4
    Solid Harmonics ordering:            gaussian

*** tstart() called on ddmfs1
*** at Mon Jan 22 23:35:28 2024

   => Loading Basis Set <=

    Name: AUG-CC-PVTZ
    Role: ORBITAL
    Keyword: BASIS
    atoms 1                            entry BR         line  4208 file /ddmfs1b/softs/psi4conda/share/psi4/basis/aug-cc-pvtz.gbs 
    atoms 2, 5, 8, 11, 14              entry O          line   331 file /ddmfs1b/softs/psi4conda/share/psi4/basis/aug-cc-pvtz.gbs 
    atoms 3-4, 6-7, 9-10, 12-13, 15-16 entry H          line    40 file /ddmfs1b/softs/psi4conda/share/psi4/basis/aug-cc-pvtz.gbs 


         ---------------------------------------------------------
                                   SCF
               by Justin Turney, Rob Parrish, Andy Simmonett
                          and Daniel G. A. Smith
                              RHF Reference
                       20 Threads,  57220 MiB Core
         ---------------------------------------------------------

  ==> Geometry <==

    Molecular point group: c1
    Full point group: C1

    Geometry (in Angstrom), charge = 0, multiplicity = 1:

       Center              X                  Y                   Z               Mass       
    ------------   -----------------  -----------------  -----------------  -----------------
      Gh(BR)          0.000000000000     0.000000000000     0.000000000000    78.918337600000
      Gh(O)           1.943362000000     2.492757000000     1.142910000000    15.994914619570
      Gh(H)           2.853656000000     2.365277000000     0.915650000000     1.007825032230
      Gh(H)           1.414503000000     1.767381000000     0.739501000000     1.007825032230
      Gh(O)           2.828599000000    -1.316138000000    -0.243498000000    15.994914619570
      Gh(H)           1.991575000000    -1.027562000000     0.115147000000     1.007825032230
      Gh(H)           2.923425000000    -0.868601000000    -1.085454000000     1.007825032230
      Gh(O)          -1.187233000000    -3.096829000000    -0.068719000000    15.994914619570
      Gh(H)          -1.015863000000    -2.191810000000     0.131593000000     1.007825032230
      Gh(H)          -0.434378000000    -3.240086000000    -0.566381000000     1.007825032230
      Gh(O)          -1.630611000000     1.500183000000     2.569503000000    15.994914619570
      Gh(H)          -1.143522000000     1.019930000000     1.833037000000     1.007825032230
      Gh(H)          -1.089551000000     2.321043000000     2.728925000000     1.007825032230
         O            0.795952000000     1.602190000000    -3.133141000000    15.994914619570
         H            1.463263000000     0.954500000000    -2.826078000000     1.007825032230
         H           -0.107599000000     1.347855000000    -3.018310000000     1.007825032230

  Running in c1 symmetry.

  Rotational constants: A =      0.02922  B =      0.02765  C =      0.02069 [cm^-1]
  Rotational constants: A =    876.07245  B =    828.88453  C =    620.16645 [MHz]
  Nuclear repulsion =    9.123927313595683

  Charge       = 0
  Multiplicity = 1
  Electrons    = 10
  Nalpha       = 5
  Nbeta        = 5

  ==> Algorithm <==

  SCF Algorithm Type is DF.
  DIIS enabled.
  MOM disabled.
  Fractional occupation disabled.
  Guess Type is SAD.
  Energy threshold   = 1.00e-08
  Density threshold  = 1.00e-08
  Integral threshold = 1.00e-12

  ==> Primary Basis <==

  Basis Set: AUG-CC-PVTZ
    Blend: AUG-CC-PVTZ
    Number of shells: 179
    Number of basis functions: 519
    Number of Cartesian functions: 594
    Spherical Harmonics?: true
    Max angular momentum: 3

   => Loading Basis Set <=

    Name: (AUG-CC-PVTZ AUX)
    Role: JKFIT
    Keyword: DF_BASIS_SCF
    atoms 1                            entry BR         line  1492 file /ddmfs1b/softs/psi4conda/share/psi4/basis/aug-cc-pvtz-jkfit.gbs 
    atoms 2, 5, 8, 11, 14              entry O          line   286 file /ddmfs1b/softs/psi4conda/share/psi4/basis/aug-cc-pvtz-jkfit.gbs 
    atoms 3-4, 6-7, 9-10, 12-13, 15-16 entry H          line    70 file /ddmfs1b/softs/psi4conda/share/psi4/basis/aug-cc-pvtz-jkfit.gbs 

  ==> Integral Setup <==

  DFHelper Memory: AOs need 2.207 GiB; user supplied 41.910 GiB. 
  Using in-core AOs.

  ==> MemDFJK: Density-Fitted J/K Matrices <==

    J tasked:                   Yes
    K tasked:                   Yes
    wK tasked:                   No
    OpenMP threads:              20
    Memory [MiB]:             42915
    Algorithm:                 Core
    Schwarz Cutoff:           1E-12
    Mask sparsity (%):      14.7326
    Fitting Condition:        1E-10

   => Auxiliary Basis Set <=

  Basis Set: (AUG-CC-PVTZ AUX)
    Blend: AUG-CC-PVTZ-JKFIT
    Number of shells: 348
    Number of basis functions: 1228
    Number of Cartesian functions: 1534
    Spherical Harmonics?: true
    Max angular momentum: 4

  Minimum eigenvalue in the overlap matrix is 1.5702057749E-04.
  Reciprocal condition number of the overlap matrix is 1.3382356699E-05.
    Using symmetric orthogonalization.

  ==> Pre-Iterations <==

  SCF Guess: Superposition of Atomic Densities via on-the-fly atomic UHF (no occupation information).

   -------------------------
    Irrep   Nso     Nmo    
   -------------------------
     A        519     519 
   -------------------------
    Total     519     519
   -------------------------

  ==> Iterations <==

                           Total Energy        Delta E     RMS |[F,P]|

   @DF-RHF iter SAD:   -75.46158211462384   -7.54616e+01   0.00000e+00 
   @DF-RHF iter   1:   -75.97359679548218   -5.12015e-01   9.03439e-04 DIIS/ADIIS
   @DF-RHF iter   2:   -76.02558482682582   -5.19880e-02   6.12663e-04 DIIS/ADIIS
   @DF-RHF iter   3:   -76.05669841696633   -3.11136e-02   4.14432e-05 DIIS
   @DF-RHF iter   4:   -76.05710273175271   -4.04315e-04   1.01744e-05 DIIS
   @DF-RHF iter   5:   -76.05712908131711   -2.63496e-05   2.34740e-06 DIIS
   @DF-RHF iter   6:   -76.05713138141689   -2.30010e-06   5.43574e-07 DIIS
   @DF-RHF iter   7:   -76.05713151816072   -1.36744e-07   1.06521e-07 DIIS
   @DF-RHF iter   8:   -76.05713152277987   -4.61915e-09   1.70787e-08 DIIS
   @DF-RHF iter   9:   -76.05713152287420   -9.43317e-11   4.24708e-09 DIIS
  Energy and wave function converged.


  ==> Post-Iterations <==

    Orbital Energies [Eh]
    ---------------------

    Doubly Occupied:                                                      

       1A    -20.562658     2A     -1.343496     3A     -0.734969  
       4A     -0.562235     5A     -0.506429  

    Virtual:                                                              

       6A      0.015194     7A      0.031707     8A      0.033927  
       9A      0.041512    10A      0.053292    11A      0.054111  
      12A      0.059085    13A      0.068130    14A      0.075188  
      15A      0.079592    16A      0.092572    17A      0.105085  
      18A      0.113029    19A      0.118955    20A      0.120876  
      21A      0.136414    22A      0.145693    23A      0.147115  
      24A      0.152186    25A      0.156246    26A      0.162842  
      27A      0.166873    28A      0.170449    29A      0.177725  
      30A      0.186316    31A      0.190717    32A      0.193598  
      33A      0.201256    34A      0.203053    35A      0.206544  
      36A      0.210709    37A      0.217915    38A      0.230096  
      39A      0.233659    40A      0.248937    41A      0.258530  
      42A      0.275706    43A      0.278859    44A      0.284221  
      45A      0.288129    46A      0.292750    47A      0.305880  
      48A      0.307366    49A      0.312106    50A      0.323409  
      51A      0.327100    52A      0.335836    53A      0.339509  
      54A      0.340496    55A      0.349781    56A      0.352107  
      57A      0.362126    58A      0.365686    59A      0.369716  
      60A      0.384304    61A      0.391219    62A      0.397433  
      63A      0.400798    64A      0.403783    65A      0.412536  
      66A      0.424594    67A      0.425639    68A      0.430659  
      69A      0.437500    70A      0.448885    71A      0.459088  
      72A      0.461718    73A      0.467596    74A      0.469340  
      75A      0.482361    76A      0.500654    77A      0.508367  
      78A      0.531934    79A      0.537651    80A      0.547073  
      81A      0.557445    82A      0.571962    83A      0.583314  
      84A      0.587817    85A      0.607560    86A      0.614532  
      87A      0.616361    88A      0.630707    89A      0.673592  
      90A      0.693955    91A      0.702983    92A      0.711035  
      93A      0.720834    94A      0.734026    95A      0.735540  
      96A      0.743203    97A      0.746834    98A      0.752479  
      99A      0.761504   100A      0.772863   101A      0.782004  
     102A      0.782861   103A      0.794453   104A      0.795543  
     105A      0.801578   106A      0.804766   107A      0.812526  
     108A      0.819412   109A      0.825891   110A      0.833035  
     111A      0.838744   112A      0.846473   113A      0.848997  
     114A      0.852780   115A      0.858735   116A      0.862748  
     117A      0.867584   118A      0.872731   119A      0.878526  
     120A      0.885532   121A      0.896098   122A      0.903708  
     123A      0.912010   124A      0.914810   125A      0.924732  
     126A      0.934026   127A      0.939192   128A      0.940572  
     129A      0.945398   130A      0.953853   131A      0.958173  
     132A      0.965712   133A      0.973824   134A      0.977928  
     135A      0.989936   136A      0.998393   137A      1.001725  
     138A      1.008725   139A      1.013534   140A      1.015552  
     141A      1.020852   142A      1.024723   143A      1.029973  
     144A      1.034995   145A      1.043795   146A      1.048529  
     147A      1.056254   148A      1.061940   149A      1.072905  
     150A      1.076806   151A      1.080218   152A      1.091514  
     153A      1.093264   154A      1.111733   155A      1.116395  
     156A      1.122846   157A      1.135513   158A      1.148272  
     159A      1.153651   160A      1.160604   161A      1.167306  
     162A      1.172334   163A      1.187046   164A      1.191295  
     165A      1.202138   166A      1.210509   167A      1.217522  
     168A      1.223348   169A      1.234150   170A      1.245585  
     171A      1.250602   172A      1.266402   173A      1.273631  
     174A      1.278881   175A      1.302520   176A      1.305360  
     177A      1.314874   178A      1.325101   179A      1.333572  
     180A      1.338027   181A      1.349845   182A      1.370985  
     183A      1.383863   184A      1.397134   185A      1.426851  
     186A      1.440631   187A      1.443651   188A      1.469682  
     189A      1.474786   190A      1.485202   191A      1.506451  
     192A      1.523014   193A      1.529271   194A      1.533120  
     195A      1.541313   196A      1.560087   197A      1.589923  
     198A      1.602779   199A      1.620995   200A      1.637667  
     201A      1.646567   202A      1.673240   203A      1.680108  
     204A      1.696028   205A      1.701546   206A      1.721577  
     207A      1.725883   208A      1.738675   209A      1.749963  
     210A      1.759960   211A      1.764550   212A      1.777450  
     213A      1.777993   214A      1.788401   215A      1.797451  
     216A      1.807329   217A      1.816174   218A      1.828096  
     219A      1.833148   220A      1.849875   221A      1.862328  
     222A      1.876028   223A      1.879388   224A      1.909611  
     225A      1.920807   226A      1.930804   227A      1.957805  
     228A      1.967112   229A      1.973696   230A      1.980343  
     231A      2.029987   232A      2.047007   233A      2.082579  
     234A      2.106429   235A      2.114571   236A      2.154144  
     237A      2.211717   238A      2.215326   239A      2.251022  
     240A      2.319758   241A      2.392801   242A      2.413099  
     243A      2.452237   244A      2.458470   245A      2.461601  
     246A      2.469077   247A      2.477378   248A      2.481520  
     249A      2.486954   250A      2.498282   251A      2.507747  
     252A      2.514813   253A      2.539258   254A      2.544492  
     255A      2.548753   256A      2.554406   257A      2.570255  
     258A      2.577474   259A      2.585286   260A      2.606095  
     261A      2.625386   262A      2.634145   263A      2.653793  
     264A      2.661471   265A      2.662327   266A      2.668538  
     267A      2.679234   268A      2.685315   269A      2.689970  
     270A      2.712873   271A      2.721466   272A      2.740756  
     273A      2.748616   274A      2.760816   275A      2.782779  
     276A      2.815644   277A      2.818795   278A      2.819639  
     279A      2.845747   280A      2.872607   281A      2.887679  
     282A      2.941316   283A      2.959666   284A      2.965870  
     285A      2.971780   286A      3.013081   287A      3.056785  
     288A      3.140035   289A      3.164728   290A      3.177860  
     291A      3.185615   292A      3.204009   293A      3.215533  
     294A      3.216877   295A      3.233951   296A      3.249770  
     297A      3.251607   298A      3.273439   299A      3.280809  
     300A      3.316133   301A      3.333233   302A      3.344991  
     303A      3.371164   304A      3.392469   305A      3.400926  
     306A      3.407775   307A      3.422599   308A      3.430285  
     309A      3.438316   310A      3.470249   311A      3.472964  
     312A      3.502205   313A      3.523509   314A      3.525969  
     315A      3.551994   316A      3.561520   317A      3.572877  
     318A      3.607634   319A      3.619098   320A      3.634227  
     321A      3.655712   322A      3.679469   323A      3.700882  
     324A      3.709029   325A      3.737078   326A      3.771034  
     327A      3.786713   328A      3.813558   329A      3.826611  
     330A      3.883247   331A      3.910255   332A      3.993125  
     333A      4.073008   334A      4.101951   335A      4.210290  
     336A      4.222422   337A      4.286414   338A      4.342129  
     339A      4.383387   340A      4.405758   341A      4.411609  
     342A      4.417931   343A      4.433951   344A      4.444530  
     345A      4.452597   346A      4.458261   347A      4.493319  
     348A      4.497420   349A      4.504002   350A      4.509746  
     351A      4.518641   352A      4.539177   353A      4.551283  
     354A      4.556567   355A      4.577793   356A      4.618275  
     357A      4.644401   358A      4.656669   359A      4.672124  
     360A      4.710125   361A      4.711785   362A      4.730583  
     363A      4.774420   364A      4.791832   365A      4.805478  
     366A      4.826223   367A      4.840890   368A      4.864311  
     369A      4.875349   370A      4.885683   371A      4.892606  
     372A      4.910254   373A      4.917050   374A      4.927686  
     375A      4.956543   376A      4.964133   377A      4.984115  
     378A      5.017606   379A      5.048690   380A      5.110522  
     381A      5.148798   382A      5.208116   383A      5.219552  
     384A      5.234938   385A      5.269686   386A      5.299059  
     387A      5.327491   388A      5.409322   389A      5.429450  
     390A      5.482432   391A      5.505382   392A      5.511104  
     393A      5.529387   394A      5.560212   395A      5.571225  
     396A      5.629534   397A      5.686701   398A      5.699830  
     399A      5.713698   400A      5.783074   401A      5.793041  
     402A      5.806977   403A      5.830561   404A      5.846566  
     405A      5.865601   406A      6.022001   407A      6.060161  
     408A      6.141494   409A      6.163493   410A      6.171991  
     411A      6.186550   412A      6.308719   413A      6.369610  
     414A      6.419831   415A      6.475570   416A      6.541407  
     417A      6.593982   418A      6.715811   419A      6.748473  
     420A      6.767267   421A      6.811001   422A      6.859530  
     423A      6.930453   424A      7.115007   425A      7.147272  
     426A      7.211402   427A      7.258081   428A      7.264490  
     429A      7.282095   430A      7.343486   431A      7.412746  
     432A      7.528293   433A      7.661686   434A      7.674862  
     435A      7.717334   436A      7.721541   437A      7.753069  
     438A      7.814169   439A      7.816900   440A      7.822973  
     441A      7.871075   442A      7.994808   443A      8.031504  
     444A      8.047873   445A      8.064651   446A      8.073260  
     447A      8.116353   448A      8.156964   449A      8.198479  
     450A      8.227829   451A      8.276807   452A      8.281993  
     453A      8.305508   454A      8.362728   455A      8.383488  
     456A      8.621474   457A      8.725262   458A      8.781687  
     459A      8.802205   460A      8.844372   461A      8.956773  
     462A      8.990186   463A      8.995211   464A      9.101707  
     465A      9.673759   466A      9.732642   467A      9.741679  
     468A      9.782699   469A      9.845352   470A      9.861326  
     471A      9.885132   472A      9.900198   473A     10.040350  
     474A     10.048810   475A     10.064316   476A     10.090200  
     477A     10.275671   478A     10.307198   479A     10.343124  
     480A     10.370657   481A     10.986911   482A     11.055643  
     483A     11.154490   484A     11.248063   485A     11.520933  
     486A     11.612129   487A     11.717420   488A     11.735865  
     489A     11.754531   490A     11.794489   491A     12.173700  
     492A     12.232600   493A     12.568738   494A     13.393015  
     495A     13.596169   496A     13.647948   497A     13.760897  
     498A     13.807648   499A     13.921798   500A     13.958068  
     501A     13.987956   502A     14.044648   503A     14.156139  
     504A     14.171276   505A     16.231496   506A     26.372065  
     507A     26.410089   508A     26.458546   509A     26.480114  
     510A     26.820133   511A     46.504316   512A     64.212260  
     513A     66.231449   514A     67.024789   515A     68.255581  
     516A    138.966572   517A    139.335599   518A    139.469825  
     519A    711.795715  

    Final Occupation by Irrep:
              A 
    DOCC [     5 ]
    NA   [     5 ]
    NB   [     5 ]

  @DF-RHF Final Energy:   -76.05713152287420

   => Energetics <=

    Nuclear Repulsion Energy =              9.1239273135956829
    One-Electron Energy =                -122.9425407039698825
    Two-Electron Energy =                  37.7614818674999952
    Total Energy =                        -76.0571315228742009

Computation Completed


Properties will be evaluated at   0.000000,   0.000000,   0.000000 [a0]

Properties computed using the SCF density matrix


 Multipole Moments:

 ------------------------------------------------------------------------------------
     Multipole            Electronic (a.u.)      Nuclear  (a.u.)        Total (a.u.)
 ------------------------------------------------------------------------------------

 L = 1.  Multiply by 2.5417464519 to convert [e a0] to [Debye]
 Dipole X            :        -14.7608434           14.5948840           -0.1659595
 Dipole Y            :        -29.1921482           28.5724228           -0.6197254
 Dipole Z            :         58.7001905          -58.4105199            0.2896706
 Magnitude           :                                                    0.7039255

 ------------------------------------------------------------------------------------

*** tstop() called on ddmfs1 at Mon Jan 22 23:35:36 2024
Module time:
	user time   =     100.93 seconds =       1.68 minutes
	system time =       6.69 seconds =       0.11 minutes
	total time  =          8 seconds =       0.13 minutes
Total time:
	user time   =     100.93 seconds =       1.68 minutes
	system time =       6.69 seconds =       0.11 minutes
	total time  =          8 seconds =       0.13 minutes

*** tstart() called on ddmfs1
*** at Mon Jan 22 23:35:36 2024


  //>>>>>>>>>>>>>>>>>>>>>>>>>>>>>>>>>>>//
  //               DFMP2               //
  //<<<<<<<<<<<<<<<<<<<<<<<<<<<<<<<<<<<//

   => Loading Basis Set <=

    Name: (AUG-CC-PVTZ AUX)
    Role: RIFIT
    Keyword: DF_BASIS_MP2
    atoms 1                            entry BR         line  1248 file /ddmfs1b/softs/psi4conda/share/psi4/basis/aug-cc-pvtz-ri.gbs 
    atoms 2, 5, 8, 11, 14              entry O          line   264 file /ddmfs1b/softs/psi4conda/share/psi4/basis/aug-cc-pvtz-ri.gbs 
    atoms 3-4, 6-7, 9-10, 12-13, 15-16 entry H          line    30 file /ddmfs1b/softs/psi4conda/share/psi4/basis/aug-cc-pvtz-ri.gbs 

	 --------------------------------------------------------
	                          DF-MP2                         
	      2nd-Order Density-Fitted Moller-Plesset Theory     
	              RMP2 Wavefunction,  20 Threads             
	                                                         
	        Rob Parrish, Justin Turney, Andy Simmonett,      
	           Ed Hohenstein, and C. David Sherrill          
	 --------------------------------------------------------

   => Auxiliary Basis Set <=

  Basis Set: (AUG-CC-PVTZ AUX)
    Blend: AUG-CC-PVTZ-RI
    Number of shells: 323
    Number of basis functions: 1181
    Number of Cartesian functions: 1491
    Spherical Harmonics?: true
    Max angular momentum: 5

	 --------------------------------------------------------
	                 NBF =   519, NAUX =  1181
	 --------------------------------------------------------
	   CLASS    FOCC     OCC    AOCC    AVIR     VIR    FVIR
	   PAIRS       0       5       5     514     514       0
	 --------------------------------------------------------

	-----------------------------------------------------------
	 ==================> DF-MP2 Energies <==================== 
	-----------------------------------------------------------
	 Reference Energy          =     -76.0571315228742009 [Eh]
	 Singles Energy            =      -0.0000000000000000 [Eh]
	 Same-Spin Energy          =      -0.0683832217339976 [Eh]
	 Opposite-Spin Energy      =      -0.2153520936325063 [Eh]
	 Correlation Energy        =      -0.2837353153665039 [Eh]
	 Total Energy              =     -76.3408668382407001 [Eh]
	-----------------------------------------------------------
	 ================> DF-SCS-MP2 Energies <================== 
	-----------------------------------------------------------
	 SCS Same-Spin Scale       =       0.3333333333333333 [-]
	 SCS Opposite-Spin Scale   =       1.2000000000000000 [-]
	 SCS Same-Spin Energy      =      -0.0227944072446659 [Eh]
	 SCS Opposite-Spin Energy  =      -0.2584225123590076 [Eh]
	 SCS Correlation Energy    =      -0.2812169196036735 [Eh]
	 SCS Total Energy          =     -76.3383484424778800 [Eh]
	-----------------------------------------------------------


*** tstop() called on ddmfs1 at Mon Jan 22 23:35:47 2024
Module time:
	user time   =      34.14 seconds =       0.57 minutes
	system time =       2.38 seconds =       0.04 minutes
	total time  =         11 seconds =       0.18 minutes
Total time:
	user time   =     135.09 seconds =       2.25 minutes
	system time =       9.07 seconds =       0.15 minutes
	total time  =         19 seconds =       0.32 minutes

    Psi4 stopped on: Monday, 22 January 2024 11:35PM
    Psi4 wall time for execution: 0:00:19.73

*** Psi4 exiting successfully. Buy a developer a beer!
