
    -----------------------------------------------------------------------
          Psi4: An Open-Source Ab Initio Electronic Structure Package
                               Psi4 1.8.2 release

                         Git: Rev {} zzzzzzz 


    D. G. A. Smith, L. A. Burns, A. C. Simmonett, R. M. Parrish,
    M. C. Schieber, R. Galvelis, P. Kraus, H. Kruse, R. Di Remigio,
    A. Alenaizan, A. M. James, S. Lehtola, J. P. Misiewicz, M. Scheurer,
    R. A. Shaw, J. B. Schriber, Y. Xie, Z. L. Glick, D. A. Sirianni,
    J. S. O'Brien, J. M. Waldrop, A. Kumar, E. G. Hohenstein,
    B. P. Pritchard, B. R. Brooks, H. F. Schaefer III, A. Yu. Sokolov,
    K. Patkowski, A. E. DePrince III, U. Bozkaya, R. A. King,
    F. A. Evangelista, J. M. Turney, T. D. Crawford, C. D. Sherrill,
    J. Chem. Phys. 152(18) 184108 (2020). https://doi.org/10.1063/5.0006002

                            Additional Code Authors
    E. T. Seidl, C. L. Janssen, E. F. Valeev, M. L. Leininger,
    J. F. Gonthier, R. M. Richard, H. R. McAlexander, M. Saitow, X. Wang,
    P. Verma, M. H. Lechner, A. Jiang, S. Behnle, A. G. Heide,
    M. F. Herbst, and D. L. Poole

             Previous Authors, Complete List of Code Contributors,
                       and Citations for Specific Modules
    https://github.com/psi4/psi4/blob/master/codemeta.json
    https://github.com/psi4/psi4/graphs/contributors
    http://psicode.org/psi4manual/master/introduction.html#citing-psifour

    -----------------------------------------------------------------------


    Psi4 started on: Tuesday, 23 January 2024 01:40AM

    Process ID: 125017
    Host:       ddmfs1
    PSIDATADIR: /ddmfs1b/softs/psi4conda/share/psi4
    Memory:     500.0 MiB
    Threads:    20
    
  ==> Input File <==

--------------------------------------------------------------------------
MEMORY 60 GB

molecule dimer {
0 1
Gh(Br)     0.000000     0.000000     0.000000
Gh(O)      0.779723     2.101047     2.199835
Gh(H)      0.426021     1.474308     1.520328
Gh(H)      0.408280     2.960514     1.936831
Gh(O)      1.680523    -2.227455     1.670762
Gh(H)      1.216158    -1.563865     1.147402
Gh(H)      2.593395    -1.916082     1.738707
Gh(O)     -2.177205    -0.865000     2.509215
Gh(H)     -2.496326     0.047270     2.768170
Gh(H)     -1.471994    -0.874637     1.842706
O          3.480100    -0.005299    -0.932052
H          2.930060    -0.789766    -1.221807
H          3.669445     0.562215    -1.658308

units ang
no_reorient
no_com
symmetry c1
}

set {
basis        aug-cc-pVTZ
scf_type     df
}

energy("mp2")
--------------------------------------------------------------------------

  Memory set to  55.879 GiB by Python driver.

Scratch directory: /ddmfs1a/scratch/
   => Libint2 <=

    Primary   basis highest AM E, G, H:  5, 4, 3
    Auxiliary basis highest AM E, G, H:  6, 5, 4
    Onebody   basis highest AM E, G, H:  6, 5, 4
    Solid Harmonics ordering:            gaussian

*** tstart() called on ddmfs1
*** at Tue Jan 23 01:40:59 2024

   => Loading Basis Set <=

    Name: AUG-CC-PVTZ
    Role: ORBITAL
    Keyword: BASIS
    atoms 1                     entry BR         line  4208 file /ddmfs1b/softs/psi4conda/share/psi4/basis/aug-cc-pvtz.gbs 
    atoms 2, 5, 8, 11           entry O          line   331 file /ddmfs1b/softs/psi4conda/share/psi4/basis/aug-cc-pvtz.gbs 
    atoms 3-4, 6-7, 9-10, 12-13 entry H          line    40 file /ddmfs1b/softs/psi4conda/share/psi4/basis/aug-cc-pvtz.gbs 


         ---------------------------------------------------------
                                   SCF
               by Justin Turney, Rob Parrish, Andy Simmonett
                          and Daniel G. A. Smith
                              RHF Reference
                       20 Threads,  57220 MiB Core
         ---------------------------------------------------------

  ==> Geometry <==

    Molecular point group: c1
    Full point group: C1

    Geometry (in Angstrom), charge = 0, multiplicity = 1:

       Center              X                  Y                   Z               Mass       
    ------------   -----------------  -----------------  -----------------  -----------------
      Gh(BR)          0.000000000000     0.000000000000     0.000000000000    78.918337600000
      Gh(O)           0.779723000000     2.101047000000     2.199835000000    15.994914619570
      Gh(H)           0.426021000000     1.474308000000     1.520328000000     1.007825032230
      Gh(H)           0.408280000000     2.960514000000     1.936831000000     1.007825032230
      Gh(O)           1.680523000000    -2.227455000000     1.670762000000    15.994914619570
      Gh(H)           1.216158000000    -1.563865000000     1.147402000000     1.007825032230
      Gh(H)           2.593395000000    -1.916082000000     1.738707000000     1.007825032230
      Gh(O)          -2.177205000000    -0.865000000000     2.509215000000    15.994914619570
      Gh(H)          -2.496326000000     0.047270000000     2.768170000000     1.007825032230
      Gh(H)          -1.471994000000    -0.874637000000     1.842706000000     1.007825032230
         O            3.480100000000    -0.005299000000    -0.932052000000    15.994914619570
         H            2.930060000000    -0.789766000000    -1.221807000000     1.007825032230
         H            3.669445000000     0.562215000000    -1.658308000000     1.007825032230

  Running in c1 symmetry.

  Rotational constants: A =      0.04212  B =      0.02911  C =      0.02654 [cm^-1]
  Rotational constants: A =   1262.80838  B =    872.82719  C =    795.78640 [MHz]
  Nuclear repulsion =    9.058958356265835

  Charge       = 0
  Multiplicity = 1
  Electrons    = 10
  Nalpha       = 5
  Nbeta        = 5

  ==> Algorithm <==

  SCF Algorithm Type is DF.
  DIIS enabled.
  MOM disabled.
  Fractional occupation disabled.
  Guess Type is SAD.
  Energy threshold   = 1.00e-08
  Density threshold  = 1.00e-08
  Integral threshold = 1.00e-12

  ==> Primary Basis <==

  Basis Set: AUG-CC-PVTZ
    Blend: AUG-CC-PVTZ
    Number of shells: 147
    Number of basis functions: 427
    Number of Cartesian functions: 489
    Spherical Harmonics?: true
    Max angular momentum: 3

   => Loading Basis Set <=

    Name: (AUG-CC-PVTZ AUX)
    Role: JKFIT
    Keyword: DF_BASIS_SCF
    atoms 1                     entry BR         line  1492 file /ddmfs1b/softs/psi4conda/share/psi4/basis/aug-cc-pvtz-jkfit.gbs 
    atoms 2, 5, 8, 11           entry O          line   286 file /ddmfs1b/softs/psi4conda/share/psi4/basis/aug-cc-pvtz-jkfit.gbs 
    atoms 3-4, 6-7, 9-10, 12-13 entry H          line    70 file /ddmfs1b/softs/psi4conda/share/psi4/basis/aug-cc-pvtz-jkfit.gbs 

  ==> Integral Setup <==

  DFHelper Memory: AOs need 1.313 GiB; user supplied 41.910 GiB. 
  Using in-core AOs.

  ==> MemDFJK: Density-Fitted J/K Matrices <==

    J tasked:                   Yes
    K tasked:                   Yes
    wK tasked:                   No
    OpenMP threads:              20
    Memory [MiB]:             42915
    Algorithm:                 Core
    Schwarz Cutoff:           1E-12
    Mask sparsity (%):      11.4672
    Fitting Condition:        1E-10

   => Auxiliary Basis Set <=

  Basis Set: (AUG-CC-PVTZ AUX)
    Blend: AUG-CC-PVTZ-JKFIT
    Number of shells: 290
    Number of basis functions: 1032
    Number of Cartesian functions: 1293
    Spherical Harmonics?: true
    Max angular momentum: 4

  Minimum eigenvalue in the overlap matrix is 1.8111444491E-04.
  Reciprocal condition number of the overlap matrix is 1.6658560905E-05.
    Using symmetric orthogonalization.

  ==> Pre-Iterations <==

  SCF Guess: Superposition of Atomic Densities via on-the-fly atomic UHF (no occupation information).

   -------------------------
    Irrep   Nso     Nmo    
   -------------------------
     A        427     427 
   -------------------------
    Total     427     427
   -------------------------

  ==> Iterations <==

                           Total Energy        Delta E     RMS |[F,P]|

   @DF-RHF iter SAD:   -75.45511552014743   -7.54551e+01   0.00000e+00 
   @DF-RHF iter   1:   -75.97223679817813   -5.17121e-01   1.09738e-03 ADIIS/DIIS
   @DF-RHF iter   2:   -76.02434526386978   -5.21085e-02   7.54072e-04 ADIIS/DIIS
   @DF-RHF iter   3:   -76.05642574676006   -3.20805e-02   5.14246e-05 DIIS
   @DF-RHF iter   4:   -76.05684511831502   -4.19372e-04   1.27660e-05 DIIS
   @DF-RHF iter   5:   -76.05687334737863   -2.82291e-05   2.96981e-06 DIIS
   @DF-RHF iter   6:   -76.05687580730186   -2.45992e-06   6.78812e-07 DIIS
   @DF-RHF iter   7:   -76.05687594880754   -1.41506e-07   1.28394e-07 DIIS
   @DF-RHF iter   8:   -76.05687595322701   -4.41946e-09   2.15245e-08 DIIS
   @DF-RHF iter   9:   -76.05687595332775   -1.00741e-10   5.62432e-09 DIIS
  Energy and wave function converged.


  ==> Post-Iterations <==

    Orbital Energies [Eh]
    ---------------------

    Doubly Occupied:                                                      

       1A    -20.566287     2A     -1.342991     3A     -0.722472  
       4A     -0.569398     5A     -0.507261  

    Virtual:                                                              

       6A      0.020287     7A      0.033877     8A      0.038812  
       9A      0.047690    10A      0.053702    11A      0.059475  
      12A      0.068126    13A      0.079367    14A      0.085101  
      15A      0.103809    16A      0.107879    17A      0.116014  
      18A      0.126351    19A      0.142675    20A      0.149395  
      21A      0.157856    22A      0.162278    23A      0.163023  
      24A      0.167925    25A      0.175958    26A      0.180845  
      27A      0.187798    28A      0.192289    29A      0.200953  
      30A      0.205175    31A      0.215588    32A      0.222066  
      33A      0.231747    34A      0.247738    35A      0.269530  
      36A      0.272922    37A      0.280544    38A      0.285570  
      39A      0.295234    40A      0.299321    41A      0.308502  
      42A      0.318759    43A      0.326822    44A      0.334092  
      45A      0.340261    46A      0.341388    47A      0.347997  
      48A      0.355931    49A      0.369588    50A      0.373027  
      51A      0.387919    52A      0.389405    53A      0.394760  
      54A      0.401681    55A      0.407503    56A      0.410923  
      57A      0.419537    58A      0.435967    59A      0.445809  
      60A      0.452266    61A      0.457707    62A      0.462912  
      63A      0.472448    64A      0.482554    65A      0.496822  
      66A      0.501935    67A      0.511253    68A      0.525998  
      69A      0.537030    70A      0.562179    71A      0.587706  
      72A      0.591896    73A      0.609255    74A      0.614520  
      75A      0.636773    76A      0.684385    77A      0.701556  
      78A      0.715052    79A      0.726716    80A      0.731490  
      81A      0.739422    82A      0.751700    83A      0.762465  
      84A      0.771950    85A      0.774526    86A      0.783672  
      87A      0.785618    88A      0.799808    89A      0.806083  
      90A      0.815702    91A      0.819489    92A      0.830653  
      93A      0.836942    94A      0.837206    95A      0.839123  
      96A      0.857819    97A      0.868006    98A      0.878142  
      99A      0.883529   100A      0.885954   101A      0.890391  
     102A      0.899248   103A      0.910155   104A      0.914971  
     105A      0.923113   106A      0.936069   107A      0.939331  
     108A      0.945551   109A      0.951815   110A      0.956967  
     111A      0.972889   112A      0.976420   113A      0.986007  
     114A      0.988737   115A      1.007105   116A      1.011268  
     117A      1.014532   118A      1.021622   119A      1.026049  
     120A      1.029453   121A      1.037421   122A      1.044277  
     123A      1.055298   124A      1.063368   125A      1.067203  
     126A      1.078414   127A      1.079687   128A      1.091853  
     129A      1.096833   130A      1.108702   131A      1.132398  
     132A      1.137036   133A      1.148922   134A      1.151626  
     135A      1.166492   136A      1.180661   137A      1.196364  
     138A      1.200936   139A      1.208431   140A      1.215471  
     141A      1.233709   142A      1.240212   143A      1.245833  
     144A      1.259022   145A      1.269380   146A      1.285749  
     147A      1.295027   148A      1.310539   149A      1.315475  
     150A      1.344793   151A      1.351772   152A      1.356701  
     153A      1.370765   154A      1.385175   155A      1.414318  
     156A      1.423724   157A      1.430475   158A      1.442396  
     159A      1.458999   160A      1.464987   161A      1.502497  
     162A      1.514182   163A      1.553565   164A      1.563890  
     165A      1.592743   166A      1.632487   167A      1.641501  
     168A      1.643779   169A      1.649903   170A      1.673922  
     171A      1.689110   172A      1.699704   173A      1.731690  
     174A      1.750092   175A      1.755671   176A      1.776815  
     177A      1.782940   178A      1.791708   179A      1.793802  
     180A      1.803052   181A      1.833154   182A      1.848585  
     183A      1.868352   184A      1.878342   185A      1.890945  
     186A      1.902408   187A      1.911790   188A      1.917343  
     189A      1.933078   190A      1.956573   191A      1.960048  
     192A      1.996550   193A      2.007915   194A      2.018297  
     195A      2.031311   196A      2.149042   197A      2.196514  
     198A      2.221144   199A      2.314956   200A      2.357769  
     201A      2.398708   202A      2.442881   203A      2.447991  
     204A      2.462565   205A      2.476051   206A      2.482603  
     207A      2.486467   208A      2.501266   209A      2.520541  
     210A      2.524562   211A      2.541372   212A      2.563704  
     213A      2.566972   214A      2.596613   215A      2.604765  
     216A      2.635319   217A      2.638181   218A      2.645528  
     219A      2.652035   220A      2.664305   221A      2.680448  
     222A      2.697600   223A      2.714690   224A      2.719440  
     225A      2.727660   226A      2.757732   227A      2.771487  
     228A      2.779111   229A      2.805112   230A      2.808759  
     231A      2.826470   232A      2.865823   233A      2.906617  
     234A      2.940124   235A      2.965919   236A      2.980452  
     237A      3.002872   238A      3.101119   239A      3.157766  
     240A      3.165585   241A      3.187927   242A      3.199499  
     243A      3.201702   244A      3.213728   245A      3.216636  
     246A      3.227603   247A      3.234842   248A      3.257407  
     249A      3.296019   250A      3.331480   251A      3.351116  
     252A      3.358629   253A      3.373548   254A      3.380321  
     255A      3.398829   256A      3.418634   257A      3.448533  
     258A      3.462429   259A      3.479822   260A      3.506663  
     261A      3.515389   262A      3.544697   263A      3.571303  
     264A      3.590038   265A      3.613824   266A      3.662283  
     267A      3.684641   268A      3.694206   269A      3.723871  
     270A      3.773458   271A      3.785529   272A      3.829652  
     273A      3.837448   274A      3.852879   275A      3.936382  
     276A      3.969051   277A      4.048317   278A      4.168510  
     279A      4.239058   280A      4.258024   281A      4.345386  
     282A      4.369701   283A      4.401766   284A      4.416403  
     285A      4.426359   286A      4.447797   287A      4.451200  
     288A      4.475683   289A      4.479515   290A      4.488528  
     291A      4.501925   292A      4.514718   293A      4.552132  
     294A      4.572127   295A      4.593024   296A      4.615303  
     297A      4.637215   298A      4.662740   299A      4.698223  
     300A      4.703020   301A      4.724892   302A      4.773534  
     303A      4.782025   304A      4.840264   305A      4.877911  
     306A      4.896226   307A      4.897838   308A      4.908363  
     309A      4.958370   310A      4.973435   311A      4.986371  
     312A      5.025402   313A      5.076667   314A      5.080254  
     315A      5.089509   316A      5.143733   317A      5.165214  
     318A      5.266710   319A      5.302705   320A      5.327061  
     321A      5.347944   322A      5.451954   323A      5.469939  
     324A      5.491599   325A      5.496874   326A      5.530392  
     327A      5.569098   328A      5.609697   329A      5.618613  
     330A      5.656139   331A      5.662682   332A      5.683366  
     333A      5.807405   334A      5.870063   335A      5.879723  
     336A      6.127695   337A      6.141380   338A      6.153898  
     339A      6.176271   340A      6.215180   341A      6.399573  
     342A      6.460752   343A      6.599781   344A      6.617764  
     345A      6.710427   346A      6.741470   347A      6.780304  
     348A      6.838578   349A      7.023257   350A      7.038533  
     351A      7.107950   352A      7.145043   353A      7.256001  
     354A      7.315582   355A      7.333917   356A      7.398797  
     357A      7.428867   358A      7.584667   359A      7.672337  
     360A      7.712833   361A      7.724898   362A      7.761655  
     363A      7.829116   364A      7.843395   365A      7.853578  
     366A      7.986496   367A      8.032651   368A      8.095818  
     369A      8.105121   370A      8.162415   371A      8.196934  
     372A      8.217740   373A      8.265341   374A      8.294191  
     375A      8.317872   376A      8.648507   377A      8.711610  
     378A      8.742998   379A      8.794741   380A      8.885805  
     381A      8.891388   382A      9.011267   383A      9.666216  
     384A      9.736810   385A      9.742564   386A      9.826971  
     387A      9.876558   388A      9.883182   389A     10.066367  
     390A     10.083334   391A     10.087546   392A     10.225781  
     393A     10.312743   394A     10.322496   395A     10.880634  
     396A     10.954046   397A     11.140394   398A     11.205329  
     399A     11.661536   400A     11.712493   401A     11.752555  
     402A     11.984138   403A     12.001686   404A     12.156354  
     405A     13.381704   406A     13.517192   407A     13.588870  
     408A     13.819252   409A     13.861525   410A     13.912696  
     411A     13.981581   412A     14.064070   413A     14.201544  
     414A     15.698582   415A     26.323997   416A     26.326747  
     417A     26.383569   418A     26.535151   419A     26.581886  
     420A     46.442654   421A     65.013887   422A     65.305450  
     423A     66.575404   424A    138.968472   425A    139.085681  
     426A    139.380378   427A    711.466076  

    Final Occupation by Irrep:
              A 
    DOCC [     5 ]
    NA   [     5 ]
    NB   [     5 ]

  @DF-RHF Final Energy:   -76.05687595332775

   => Energetics <=

    Nuclear Repulsion Energy =              9.0589583562658351
    One-Electron Energy =                -122.8148471685871925
    Two-Electron Energy =                  37.6990128589936120
    Total Energy =                        -76.0568759533277472

Computation Completed


Properties will be evaluated at   0.000000,   0.000000,   0.000000 [a0]

Properties computed using the SCF density matrix


 Multipole Moments:

 ------------------------------------------------------------------------------------
     Multipole            Electronic (a.u.)      Nuclear  (a.u.)        Total (a.u.)
 ------------------------------------------------------------------------------------

 L = 1.  Multiply by 2.5417464519 to convert [e a0] to [Debye]
 Dipole X            :        -65.3217216           65.0827441           -0.2389774
 Dipole Y            :          0.3707176           -0.5101183           -0.1394008
 Dipole Z            :         18.8461334          -19.5332127           -0.6870793
 Magnitude           :                                                    0.7406894

 ------------------------------------------------------------------------------------

*** tstop() called on ddmfs1 at Tue Jan 23 01:41:05 2024
Module time:
	user time   =      70.68 seconds =       1.18 minutes
	system time =       5.49 seconds =       0.09 minutes
	total time  =          6 seconds =       0.10 minutes
Total time:
	user time   =      70.68 seconds =       1.18 minutes
	system time =       5.49 seconds =       0.09 minutes
	total time  =          6 seconds =       0.10 minutes

*** tstart() called on ddmfs1
*** at Tue Jan 23 01:41:05 2024


  //>>>>>>>>>>>>>>>>>>>>>>>>>>>>>>>>>>>//
  //               DFMP2               //
  //<<<<<<<<<<<<<<<<<<<<<<<<<<<<<<<<<<<//

   => Loading Basis Set <=

    Name: (AUG-CC-PVTZ AUX)
    Role: RIFIT
    Keyword: DF_BASIS_MP2
    atoms 1                     entry BR         line  1248 file /ddmfs1b/softs/psi4conda/share/psi4/basis/aug-cc-pvtz-ri.gbs 
    atoms 2, 5, 8, 11           entry O          line   264 file /ddmfs1b/softs/psi4conda/share/psi4/basis/aug-cc-pvtz-ri.gbs 
    atoms 3-4, 6-7, 9-10, 12-13 entry H          line    30 file /ddmfs1b/softs/psi4conda/share/psi4/basis/aug-cc-pvtz-ri.gbs 

	 --------------------------------------------------------
	                          DF-MP2                         
	      2nd-Order Density-Fitted Moller-Plesset Theory     
	              RMP2 Wavefunction,  20 Threads             
	                                                         
	        Rob Parrish, Justin Turney, Andy Simmonett,      
	           Ed Hohenstein, and C. David Sherrill          
	 --------------------------------------------------------

   => Auxiliary Basis Set <=

  Basis Set: (AUG-CC-PVTZ AUX)
    Blend: AUG-CC-PVTZ-RI
    Number of shells: 267
    Number of basis functions: 983
    Number of Cartesian functions: 1245
    Spherical Harmonics?: true
    Max angular momentum: 5

	 --------------------------------------------------------
	                 NBF =   427, NAUX =   983
	 --------------------------------------------------------
	   CLASS    FOCC     OCC    AOCC    AVIR     VIR    FVIR
	   PAIRS       0       5       5     422     422       0
	 --------------------------------------------------------

	-----------------------------------------------------------
	 ==================> DF-MP2 Energies <==================== 
	-----------------------------------------------------------
	 Reference Energy          =     -76.0568759533277472 [Eh]
	 Singles Energy            =      -0.0000000000000000 [Eh]
	 Same-Spin Energy          =      -0.0685061747589018 [Eh]
	 Opposite-Spin Energy      =      -0.2158008753556494 [Eh]
	 Correlation Energy        =      -0.2843070501145512 [Eh]
	 Total Energy              =     -76.3411830034422962 [Eh]
	-----------------------------------------------------------
	 ================> DF-SCS-MP2 Energies <================== 
	-----------------------------------------------------------
	 SCS Same-Spin Scale       =       0.3333333333333333 [-]
	 SCS Opposite-Spin Scale   =       1.2000000000000000 [-]
	 SCS Same-Spin Energy      =      -0.0228353915863006 [Eh]
	 SCS Opposite-Spin Energy  =      -0.2589610504267792 [Eh]
	 SCS Correlation Energy    =      -0.2817964420130799 [Eh]
	 SCS Total Energy          =     -76.3386723953408222 [Eh]
	-----------------------------------------------------------


*** tstop() called on ddmfs1 at Tue Jan 23 01:41:14 2024
Module time:
	user time   =      26.31 seconds =       0.44 minutes
	system time =       2.06 seconds =       0.03 minutes
	total time  =          9 seconds =       0.15 minutes
Total time:
	user time   =      97.01 seconds =       1.62 minutes
	system time =       7.55 seconds =       0.13 minutes
	total time  =         15 seconds =       0.25 minutes

    Psi4 stopped on: Tuesday, 23 January 2024 01:41AM
    Psi4 wall time for execution: 0:00:15.56

*** Psi4 exiting successfully. Buy a developer a beer!
