
    -----------------------------------------------------------------------
          Psi4: An Open-Source Ab Initio Electronic Structure Package
                               Psi4 1.8.2 release

                         Git: Rev {} zzzzzzz 


    D. G. A. Smith, L. A. Burns, A. C. Simmonett, R. M. Parrish,
    M. C. Schieber, R. Galvelis, P. Kraus, H. Kruse, R. Di Remigio,
    A. Alenaizan, A. M. James, S. Lehtola, J. P. Misiewicz, M. Scheurer,
    R. A. Shaw, J. B. Schriber, Y. Xie, Z. L. Glick, D. A. Sirianni,
    J. S. O'Brien, J. M. Waldrop, A. Kumar, E. G. Hohenstein,
    B. P. Pritchard, B. R. Brooks, H. F. Schaefer III, A. Yu. Sokolov,
    K. Patkowski, A. E. DePrince III, U. Bozkaya, R. A. King,
    F. A. Evangelista, J. M. Turney, T. D. Crawford, C. D. Sherrill,
    J. Chem. Phys. 152(18) 184108 (2020). https://doi.org/10.1063/5.0006002

                            Additional Code Authors
    E. T. Seidl, C. L. Janssen, E. F. Valeev, M. L. Leininger,
    J. F. Gonthier, R. M. Richard, H. R. McAlexander, M. Saitow, X. Wang,
    P. Verma, M. H. Lechner, A. Jiang, S. Behnle, A. G. Heide,
    M. F. Herbst, and D. L. Poole

             Previous Authors, Complete List of Code Contributors,
                       and Citations for Specific Modules
    https://github.com/psi4/psi4/blob/master/codemeta.json
    https://github.com/psi4/psi4/graphs/contributors
    http://psicode.org/psi4manual/master/introduction.html#citing-psifour

    -----------------------------------------------------------------------


    Psi4 started on: Tuesday, 23 January 2024 01:05AM

    Process ID: 123051
    Host:       ddmfs1
    PSIDATADIR: /ddmfs1b/softs/psi4conda/share/psi4
    Memory:     500.0 MiB
    Threads:    20
    
  ==> Input File <==

--------------------------------------------------------------------------
MEMORY 60 GB

molecule dimer {
-1 1
Br         0.000000     0.000000     0.000000
O         -1.940430    -2.565513     0.899073
H         -2.030209    -2.518827     1.877284
H         -1.295089    -1.914109     0.676999
O          0.553447     2.582178     2.321146
H          0.620745     1.665940     2.488208
H          1.397611     2.901012     2.170963
O         -1.302614    -1.622954    -2.889180
H         -1.645295    -0.838258    -3.392872
H         -0.914137    -1.279381    -2.076378
O          2.785557    -0.938036    -1.642619
H          3.238266    -1.550119    -1.047537
H          2.005838    -0.710489    -1.193734
O          0.626728     2.977561    -1.391010
H         -0.065650     2.917648    -2.116526
H          1.310986     2.330535    -1.671214

units ang
no_reorient
no_com
symmetry c1
}

set {
basis        aug-cc-pVTZ
scf_type     df
}

energy("mp2")
--------------------------------------------------------------------------

  Memory set to  55.879 GiB by Python driver.

Scratch directory: /ddmfs1a/scratch/
   => Libint2 <=

    Primary   basis highest AM E, G, H:  5, 4, 3
    Auxiliary basis highest AM E, G, H:  6, 5, 4
    Onebody   basis highest AM E, G, H:  6, 5, 4
    Solid Harmonics ordering:            gaussian

*** tstart() called on ddmfs1
*** at Tue Jan 23 01:06:00 2024

   => Loading Basis Set <=

    Name: AUG-CC-PVTZ
    Role: ORBITAL
    Keyword: BASIS
    atoms 1                            entry BR         line  4208 file /ddmfs1b/softs/psi4conda/share/psi4/basis/aug-cc-pvtz.gbs 
    atoms 2, 5, 8, 11, 14              entry O          line   331 file /ddmfs1b/softs/psi4conda/share/psi4/basis/aug-cc-pvtz.gbs 
    atoms 3-4, 6-7, 9-10, 12-13, 15-16 entry H          line    40 file /ddmfs1b/softs/psi4conda/share/psi4/basis/aug-cc-pvtz.gbs 


         ---------------------------------------------------------
                                   SCF
               by Justin Turney, Rob Parrish, Andy Simmonett
                          and Daniel G. A. Smith
                              RHF Reference
                       20 Threads,  57220 MiB Core
         ---------------------------------------------------------

  ==> Geometry <==

    Molecular point group: c1
    Full point group: C1

    Geometry (in Angstrom), charge = -1, multiplicity = 1:

       Center              X                  Y                   Z               Mass       
    ------------   -----------------  -----------------  -----------------  -----------------
         BR           0.000000000000     0.000000000000     0.000000000000    78.918337600000
         O           -1.940430000000    -2.565513000000     0.899073000000    15.994914619570
         H           -2.030209000000    -2.518827000000     1.877284000000     1.007825032230
         H           -1.295089000000    -1.914109000000     0.676999000000     1.007825032230
         O            0.553447000000     2.582178000000     2.321146000000    15.994914619570
         H            0.620745000000     1.665940000000     2.488208000000     1.007825032230
         H            1.397611000000     2.901012000000     2.170963000000     1.007825032230
         O           -1.302614000000    -1.622954000000    -2.889180000000    15.994914619570
         H           -1.645295000000    -0.838258000000    -3.392872000000     1.007825032230
         H           -0.914137000000    -1.279381000000    -2.076378000000     1.007825032230
         O            2.785557000000    -0.938036000000    -1.642619000000    15.994914619570
         H            3.238266000000    -1.550119000000    -1.047537000000     1.007825032230
         H            2.005838000000    -0.710489000000    -1.193734000000     1.007825032230
         O            0.626728000000     2.977561000000    -1.391010000000    15.994914619570
         H           -0.065650000000     2.917648000000    -2.116526000000     1.007825032230
         H            1.310986000000     2.330535000000    -1.671214000000     1.007825032230

  Running in c1 symmetry.

  Rotational constants: A =      0.03348  B =      0.02417  C =      0.01879 [cm^-1]
  Rotational constants: A =   1003.63032  B =    724.57419  C =    563.45547 [MHz]
  Nuclear repulsion =  427.204837336843980

  Charge       = -1
  Multiplicity = 1
  Electrons    = 86
  Nalpha       = 43
  Nbeta        = 43

  ==> Algorithm <==

  SCF Algorithm Type is DF.
  DIIS enabled.
  MOM disabled.
  Fractional occupation disabled.
  Guess Type is SAD.
  Energy threshold   = 1.00e-08
  Density threshold  = 1.00e-08
  Integral threshold = 1.00e-12

  ==> Primary Basis <==

  Basis Set: AUG-CC-PVTZ
    Blend: AUG-CC-PVTZ
    Number of shells: 179
    Number of basis functions: 519
    Number of Cartesian functions: 594
    Spherical Harmonics?: true
    Max angular momentum: 3

   => Loading Basis Set <=

    Name: (AUG-CC-PVTZ AUX)
    Role: JKFIT
    Keyword: DF_BASIS_SCF
    atoms 1                            entry BR         line  1492 file /ddmfs1b/softs/psi4conda/share/psi4/basis/aug-cc-pvtz-jkfit.gbs 
    atoms 2, 5, 8, 11, 14              entry O          line   286 file /ddmfs1b/softs/psi4conda/share/psi4/basis/aug-cc-pvtz-jkfit.gbs 
    atoms 3-4, 6-7, 9-10, 12-13, 15-16 entry H          line    70 file /ddmfs1b/softs/psi4conda/share/psi4/basis/aug-cc-pvtz-jkfit.gbs 

  ==> Integral Setup <==

  DFHelper Memory: AOs need 2.148 GiB; user supplied 41.910 GiB. 
  Using in-core AOs.

  ==> MemDFJK: Density-Fitted J/K Matrices <==

    J tasked:                   Yes
    K tasked:                   Yes
    wK tasked:                   No
    OpenMP threads:              20
    Memory [MiB]:             42915
    Algorithm:                 Core
    Schwarz Cutoff:           1E-12
    Mask sparsity (%):      17.1049
    Fitting Condition:        1E-10

   => Auxiliary Basis Set <=

  Basis Set: (AUG-CC-PVTZ AUX)
    Blend: AUG-CC-PVTZ-JKFIT
    Number of shells: 348
    Number of basis functions: 1228
    Number of Cartesian functions: 1534
    Spherical Harmonics?: true
    Max angular momentum: 4

  Minimum eigenvalue in the overlap matrix is 1.6181340645E-04.
  Reciprocal condition number of the overlap matrix is 1.5219009143E-05.
    Using symmetric orthogonalization.

  ==> Pre-Iterations <==

  SCF Guess: Superposition of Atomic Densities via on-the-fly atomic UHF (no occupation information).

   -------------------------
    Irrep   Nso     Nmo    
   -------------------------
     A        519     519 
   -------------------------
    Total     519     519
   -------------------------

  ==> Iterations <==

                           Total Energy        Delta E     RMS |[F,P]|

   @DF-RHF iter SAD: -2948.00493169412402   -2.94800e+03   0.00000e+00 
   @DF-RHF iter   1: -2952.21692394562388   -4.21199e+00   2.83811e-03 DIIS/ADIIS
   @DF-RHF iter   2: -2952.65542385007529   -4.38500e-01   1.70649e-03 DIIS/ADIIS
   @DF-RHF iter   3: -2952.85693143576873   -2.01508e-01   1.32505e-04 DIIS/ADIIS
   @DF-RHF iter   4: -2952.85933472908118   -2.40329e-03   6.45313e-05 DIIS
   @DF-RHF iter   5: -2952.85981799590536   -4.83267e-04   1.00151e-05 DIIS
   @DF-RHF iter   6: -2952.85984950730835   -3.15114e-05   2.89883e-06 DIIS
   @DF-RHF iter   7: -2952.85985194982595   -2.44252e-06   1.25769e-06 DIIS
   @DF-RHF iter   8: -2952.85985226664843   -3.16822e-07   3.45856e-07 DIIS
   @DF-RHF iter   9: -2952.85985230450524   -3.78568e-08   6.37710e-08 DIIS
   @DF-RHF iter  10: -2952.85985230584265   -1.33741e-09   2.09177e-08 DIIS
   @DF-RHF iter  11: -2952.85985230593587   -9.32232e-11   7.50426e-09 DIIS
  Energy and wave function converged.


  ==> Post-Iterations <==

    Orbital Energies [Eh]
    ---------------------

    Doubly Occupied:                                                      

       1A   -489.772414     2A    -64.912841     3A    -58.267353  
       4A    -58.267323     5A    -58.267281     6A    -20.437154  
       7A    -20.423094     8A    -20.418321     9A    -20.417117  
      10A    -20.410618    11A     -9.585209    12A     -7.192830  
      13A     -7.192729    14A     -7.192451    15A     -2.934551  
      16A     -2.934539    17A     -2.934172    18A     -2.934053  
      19A     -2.933960    20A     -1.232950    21A     -1.213597  
      22A     -1.200683    23A     -1.195795    24A     -1.191856  
      25A     -0.749941    26A     -0.607225    27A     -0.579263  
      28A     -0.563663    29A     -0.561664    30A     -0.560445  
      31A     -0.450238    32A     -0.446020    33A     -0.445055  
      34A     -0.431798    35A     -0.430976    36A     -0.378112  
      37A     -0.372127    38A     -0.367202    39A     -0.359310  
      40A     -0.356150    41A     -0.201137    42A     -0.199435  
      43A     -0.194449  

    Virtual:                                                              

      44A      0.115698    45A      0.120887    46A      0.124693  
      47A      0.128061    48A      0.140009    49A      0.148129  
      50A      0.155121    51A      0.181568    52A      0.189800  
      53A      0.195097    54A      0.231233    55A      0.241475  
      56A      0.247096    57A      0.253522    58A      0.255517  
      59A      0.265597    60A      0.270994    61A      0.271846  
      62A      0.274896    63A      0.285306    64A      0.288170  
      65A      0.297378    66A      0.299149    67A      0.304928  
      68A      0.312852    69A      0.318726    70A      0.328582  
      71A      0.332234    72A      0.335779    73A      0.337392  
      74A      0.347032    75A      0.357375    76A      0.364236  
      77A      0.367551    78A      0.378612    79A      0.380515  
      80A      0.387233    81A      0.400848    82A      0.403442  
      83A      0.416002    84A      0.422327    85A      0.423779  
      86A      0.428447    87A      0.442724    88A      0.445142  
      89A      0.450582    90A      0.468621    91A      0.474793  
      92A      0.478187    93A      0.481286    94A      0.495209  
      95A      0.503743    96A      0.506368    97A      0.513290  
      98A      0.515521    99A      0.524509   100A      0.528268  
     101A      0.534353   102A      0.540260   103A      0.544576  
     104A      0.560330   105A      0.572210   106A      0.574988  
     107A      0.578656   108A      0.581751   109A      0.593312  
     110A      0.597163   111A      0.609121   112A      0.615834  
     113A      0.625261   114A      0.642507   115A      0.652159  
     116A      0.661486   117A      0.668712   118A      0.686199  
     119A      0.709230   120A      0.730482   121A      0.737823  
     122A      0.741520   123A      0.753453   124A      0.761617  
     125A      0.773521   126A      0.793627   127A      0.801962  
     128A      0.817307   129A      0.829312   130A      0.830192  
     131A      0.844295   132A      0.851067   133A      0.858583  
     134A      0.863400   135A      0.868902   136A      0.873621  
     137A      0.877612   138A      0.885339   139A      0.887731  
     140A      0.889046   141A      0.893248   142A      0.903441  
     143A      0.911939   144A      0.914840   145A      0.925453  
     146A      0.927660   147A      0.938743   148A      0.948703  
     149A      0.959757   150A      0.964291   151A      0.971717  
     152A      0.978462   153A      0.987072   154A      0.997557  
     155A      1.004858   156A      1.007657   157A      1.015227  
     158A      1.018540   159A      1.022998   160A      1.042859  
     161A      1.045965   162A      1.051227   163A      1.059280  
     164A      1.068776   165A      1.070900   166A      1.074105  
     167A      1.081986   168A      1.083962   169A      1.089227  
     170A      1.096463   171A      1.098820   172A      1.101990  
     173A      1.108220   174A      1.111047   175A      1.117590  
     176A      1.120908   177A      1.131779   178A      1.138437  
     179A      1.142622   180A      1.149394   181A      1.157010  
     182A      1.162137   183A      1.165605   184A      1.169606  
     185A      1.171334   186A      1.178899   187A      1.181547  
     188A      1.189052   189A      1.195646   190A      1.204158  
     191A      1.210301   192A      1.218563   193A      1.224209  
     194A      1.231678   195A      1.249763   196A      1.253858  
     197A      1.261038   198A      1.264221   199A      1.268874  
     200A      1.275547   201A      1.294198   202A      1.308197  
     203A      1.309788   204A      1.313194   205A      1.324330  
     206A      1.332132   207A      1.341448   208A      1.347740  
     209A      1.357481   210A      1.364854   211A      1.379195  
     212A      1.384755   213A      1.387294   214A      1.398439  
     215A      1.413571   216A      1.425575   217A      1.433370  
     218A      1.435328   219A      1.449371   220A      1.466444  
     221A      1.474252   222A      1.476800   223A      1.499639  
     224A      1.510271   225A      1.518657   226A      1.532792  
     227A      1.549969   228A      1.567625   229A      1.592359  
     230A      1.598099   231A      1.624448   232A      1.650195  
     233A      1.658025   234A      1.667694   235A      1.674129  
     236A      1.685858   237A      1.699110   238A      1.700654  
     239A      1.712120   240A      1.726680   241A      1.731137  
     242A      1.746351   243A      1.752436   244A      1.779432  
     245A      1.790316   246A      1.799497   247A      1.810317  
     248A      1.830594   249A      1.837963   250A      1.858700  
     251A      1.872864   252A      1.904474   253A      1.925411  
     254A      1.961775   255A      1.969461   256A      2.007429  
     257A      2.027531   258A      2.044047   259A      2.072526  
     260A      2.086583   261A      2.095596   262A      2.105448  
     263A      2.120127   264A      2.132745   265A      2.148444  
     266A      2.176930   267A      2.179823   268A      2.210702  
     269A      2.275438   270A      2.309232   271A      2.416825  
     272A      2.422220   273A      2.430558   274A      2.434864  
     275A      2.445258   276A      2.450474   277A      2.460504  
     278A      2.466324   279A      2.475326   280A      2.499334  
     281A      2.512098   282A      2.518024   283A      2.531237  
     284A      2.532892   285A      2.537470   286A      2.550469  
     287A      2.556210   288A      2.566070   289A      2.574937  
     290A      2.581517   291A      2.586861   292A      2.592298  
     293A      2.596346   294A      2.605858   295A      2.609933  
     296A      2.621417   297A      2.625879   298A      2.636931  
     299A      2.641558   300A      2.650314   301A      2.659352  
     302A      2.674802   303A      2.679101   304A      2.688547  
     305A      2.696930   306A      2.705390   307A      2.711615  
     308A      2.720818   309A      2.735140   310A      2.742371  
     311A      2.746188   312A      2.771997   313A      2.778335  
     314A      2.801272   315A      2.840117   316A      2.852438  
     317A      2.863715   318A      2.877706   319A      2.887146  
     320A      2.893891   321A      2.902871   322A      2.906428  
     323A      2.919524   324A      2.926543   325A      2.927684  
     326A      2.943796   327A      2.955123   328A      2.957269  
     329A      2.964814   330A      2.969045   331A      2.981750  
     332A      2.993293   333A      2.999095   334A      3.002538  
     335A      3.017163   336A      3.065970   337A      3.073554  
     338A      3.093152   339A      3.113725   340A      3.120557  
     341A      3.123902   342A      3.152333   343A      3.164707  
     344A      3.172974   345A      3.202236   346A      3.247035  
     347A      3.253809   348A      3.323028   349A      3.812714  
     350A      3.828898   351A      3.871473   352A      3.887387  
     353A      3.921813   354A      3.932879   355A      4.011781  
     356A      4.048837   357A      4.119547   358A      4.145721  
     359A      4.165352   360A      4.196148   361A      4.202519  
     362A      4.218374   363A      4.229926   364A      4.310874  
     365A      4.329696   366A      4.349498   367A      4.357269  
     368A      4.369111   369A      4.374594   370A      4.379543  
     371A      4.387550   372A      4.389815   373A      4.406692  
     374A      4.428330   375A      4.440606   376A      4.451196  
     377A      4.454620   378A      4.456338   379A      4.463380  
     380A      4.481402   381A      4.499304   382A      4.507211  
     383A      4.521213   384A      4.547601   385A      4.551412  
     386A      4.552131   387A      4.554611   388A      4.561357  
     389A      4.567633   390A      4.575589   391A      4.587849  
     392A      4.593643   393A      4.609230   394A      4.613984  
     395A      4.631254   396A      4.637575   397A      4.644039  
     398A      4.651373   399A      4.664694   400A      4.672277  
     401A      4.723507   402A      4.757194   403A      4.766646  
     404A      4.866832   405A      4.880886   406A      4.920135  
     407A      4.925932   408A      4.940139   409A      4.959596  
     410A      5.047714   411A      5.060239   412A      5.077234  
     413A      5.132975   414A      5.209122   415A      5.219637  
     416A      5.264619   417A      5.267908   418A      5.294487  
     419A      5.311801   420A      5.333659   421A      5.347210  
     422A      5.351866   423A      5.365872   424A      5.392360  
     425A      5.412587   426A      5.416361   427A      5.464652  
     428A      5.473427   429A      5.487615   430A      5.517085  
     431A      5.522301   432A      5.585504   433A      5.600729  
     434A      5.627224   435A      5.640091   436A      5.675619  
     437A      5.691323   438A      5.738922   439A      5.770093  
     440A      5.770378   441A      5.870472   442A      5.920707  
     443A      5.928891   444A      5.940249   445A      6.322362  
     446A      6.334717   447A      6.389678   448A      6.397045  
     449A      6.410632   450A      6.694997   451A      6.698012  
     452A      6.715237   453A      6.718505   454A      6.719953  
     455A      6.866750   456A      6.892967   457A      6.897960  
     458A      6.920152   459A      6.936555   460A      7.024804  
     461A      7.037744   462A      7.102515   463A      7.106599  
     464A      7.116445   465A      7.255554   466A      7.277443  
     467A      7.288865   468A      7.304022   469A      7.308987  
     470A      7.372809   471A      7.397236   472A      7.403420  
     473A      7.415314   474A      7.427878   475A      7.437657  
     476A      7.470144   477A      7.472630   478A      7.485773  
     479A      7.487712   480A      7.492679   481A      7.502157  
     482A      7.507227   483A      7.511732   484A      7.515472  
     485A      7.531334   486A      7.533802   487A      7.541591  
     488A      7.553483   489A      7.570473   490A      7.604946  
     491A      7.614707   492A      7.618717   493A      7.623479  
     494A      7.644636   495A      7.663340   496A      7.838704  
     497A      7.848677   498A      7.905553   499A      7.956756  
     500A      7.982279   501A      8.018743   502A      8.066793  
     503A      8.092134   504A      8.110283   505A      8.116989  
     506A      8.160151   507A      8.164909   508A      8.206065  
     509A      8.226977   510A      8.783341   511A      8.866523  
     512A      8.962571   513A      9.048291   514A      9.114800  
     515A     15.155299   516A     16.192630   517A     16.764358  
     518A     17.286356   519A     17.421571  

    Final Occupation by Irrep:
              A 
    DOCC [    43 ]
    NA   [    43 ]
    NB   [    43 ]

  @DF-RHF Final Energy: -2952.85985230593587

   => Energetics <=

    Nuclear Repulsion Energy =            427.2048373368439798
    One-Electron Energy =               -4976.6951649842558254
    Two-Electron Energy =                1596.6304753414758579
    Total Energy =                      -2952.8598523059354193

Computation Completed


Properties will be evaluated at   0.000000,   0.000000,   0.000000 [a0]

Properties computed using the SCF density matrix


 Multipole Moments:

 ------------------------------------------------------------------------------------
     Multipole            Electronic (a.u.)      Nuclear  (a.u.)        Total (a.u.)
 ------------------------------------------------------------------------------------

 L = 1.  Multiply by 2.5417464519 to convert [e a0] to [Debye]
 Dipole X            :        -15.1927463           15.8823355            0.6895892
 Dipole Y            :         -7.8881182            8.4467734            0.5586552
 Dipole Z            :         49.9558468          -48.9543512            1.0014956
 Magnitude           :                                                    1.3381414

 ------------------------------------------------------------------------------------

*** tstop() called on ddmfs1 at Tue Jan 23 01:06:13 2024
Module time:
	user time   =     175.84 seconds =       2.93 minutes
	system time =      14.18 seconds =       0.24 minutes
	total time  =         13 seconds =       0.22 minutes
Total time:
	user time   =     175.84 seconds =       2.93 minutes
	system time =      14.18 seconds =       0.24 minutes
	total time  =         13 seconds =       0.22 minutes

*** tstart() called on ddmfs1
*** at Tue Jan 23 01:06:13 2024


  //>>>>>>>>>>>>>>>>>>>>>>>>>>>>>>>>>>>//
  //               DFMP2               //
  //<<<<<<<<<<<<<<<<<<<<<<<<<<<<<<<<<<<//

   => Loading Basis Set <=

    Name: (AUG-CC-PVTZ AUX)
    Role: RIFIT
    Keyword: DF_BASIS_MP2
    atoms 1                            entry BR         line  1248 file /ddmfs1b/softs/psi4conda/share/psi4/basis/aug-cc-pvtz-ri.gbs 
    atoms 2, 5, 8, 11, 14              entry O          line   264 file /ddmfs1b/softs/psi4conda/share/psi4/basis/aug-cc-pvtz-ri.gbs 
    atoms 3-4, 6-7, 9-10, 12-13, 15-16 entry H          line    30 file /ddmfs1b/softs/psi4conda/share/psi4/basis/aug-cc-pvtz-ri.gbs 

	 --------------------------------------------------------
	                          DF-MP2                         
	      2nd-Order Density-Fitted Moller-Plesset Theory     
	              RMP2 Wavefunction,  20 Threads             
	                                                         
	        Rob Parrish, Justin Turney, Andy Simmonett,      
	           Ed Hohenstein, and C. David Sherrill          
	 --------------------------------------------------------

   => Auxiliary Basis Set <=

  Basis Set: (AUG-CC-PVTZ AUX)
    Blend: AUG-CC-PVTZ-RI
    Number of shells: 323
    Number of basis functions: 1181
    Number of Cartesian functions: 1491
    Spherical Harmonics?: true
    Max angular momentum: 5

	 --------------------------------------------------------
	                 NBF =   519, NAUX =  1181
	 --------------------------------------------------------
	   CLASS    FOCC     OCC    AOCC    AVIR     VIR    FVIR
	   PAIRS       0      43      43     476     476       0
	 --------------------------------------------------------

	-----------------------------------------------------------
	 ==================> DF-MP2 Energies <==================== 
	-----------------------------------------------------------
	 Reference Energy          =   -2952.8598523059358740 [Eh]
	 Singles Energy            =      -0.0000000000000000 [Eh]
	 Same-Spin Energy          =      -0.4413758557805745 [Eh]
	 Opposite-Spin Energy      =      -1.2971193917365518 [Eh]
	 Correlation Energy        =      -1.7384952475171263 [Eh]
	 Total Energy              =   -2954.5983475534530953 [Eh]
	-----------------------------------------------------------
	 ================> DF-SCS-MP2 Energies <================== 
	-----------------------------------------------------------
	 SCS Same-Spin Scale       =       0.3333333333333333 [-]
	 SCS Opposite-Spin Scale   =       1.2000000000000000 [-]
	 SCS Same-Spin Energy      =      -0.1471252852601915 [Eh]
	 SCS Opposite-Spin Energy  =      -1.5565432700838622 [Eh]
	 SCS Correlation Energy    =      -1.7036685553440536 [Eh]
	 SCS Total Energy          =   -2954.5635208612798124 [Eh]
	-----------------------------------------------------------


*** tstop() called on ddmfs1 at Tue Jan 23 01:06:26 2024
Module time:
	user time   =      65.25 seconds =       1.09 minutes
	system time =       2.96 seconds =       0.05 minutes
	total time  =         13 seconds =       0.22 minutes
Total time:
	user time   =     241.11 seconds =       4.02 minutes
	system time =      17.14 seconds =       0.29 minutes
	total time  =         26 seconds =       0.43 minutes

    Psi4 stopped on: Tuesday, 23 January 2024 01:06AM
    Psi4 wall time for execution: 0:00:26.24

*** Psi4 exiting successfully. Buy a developer a beer!
