
    -----------------------------------------------------------------------
          Psi4: An Open-Source Ab Initio Electronic Structure Package
                               Psi4 1.8.2 release

                         Git: Rev {} zzzzzzz 


    D. G. A. Smith, L. A. Burns, A. C. Simmonett, R. M. Parrish,
    M. C. Schieber, R. Galvelis, P. Kraus, H. Kruse, R. Di Remigio,
    A. Alenaizan, A. M. James, S. Lehtola, J. P. Misiewicz, M. Scheurer,
    R. A. Shaw, J. B. Schriber, Y. Xie, Z. L. Glick, D. A. Sirianni,
    J. S. O'Brien, J. M. Waldrop, A. Kumar, E. G. Hohenstein,
    B. P. Pritchard, B. R. Brooks, H. F. Schaefer III, A. Yu. Sokolov,
    K. Patkowski, A. E. DePrince III, U. Bozkaya, R. A. King,
    F. A. Evangelista, J. M. Turney, T. D. Crawford, C. D. Sherrill,
    J. Chem. Phys. 152(18) 184108 (2020). https://doi.org/10.1063/5.0006002

                            Additional Code Authors
    E. T. Seidl, C. L. Janssen, E. F. Valeev, M. L. Leininger,
    J. F. Gonthier, R. M. Richard, H. R. McAlexander, M. Saitow, X. Wang,
    P. Verma, M. H. Lechner, A. Jiang, S. Behnle, A. G. Heide,
    M. F. Herbst, and D. L. Poole

             Previous Authors, Complete List of Code Contributors,
                       and Citations for Specific Modules
    https://github.com/psi4/psi4/blob/master/codemeta.json
    https://github.com/psi4/psi4/graphs/contributors
    http://psicode.org/psi4manual/master/introduction.html#citing-psifour

    -----------------------------------------------------------------------


    Psi4 started on: Tuesday, 23 January 2024 12:15AM

    Process ID: 120019
    Host:       ddmfs1
    PSIDATADIR: /ddmfs1b/softs/psi4conda/share/psi4
    Memory:     500.0 MiB
    Threads:    20
    
  ==> Input File <==

--------------------------------------------------------------------------
MEMORY 60 GB

molecule dimer {
-1 1
Br         0.000000     0.000000     0.000000
Gh(O)      0.782416    -0.121722     3.451600
Gh(H)      0.936067    -0.092172     2.515779
Gh(H)      1.418512     0.518629     3.809706
Gh(O)      1.279830    -3.033150    -0.407853
Gh(H)      0.932121    -2.105125    -0.536490
Gh(H)      0.609558    -3.519657    -0.884449
Gh(O)      1.071152     0.493703    -3.362487
Gh(H)      0.775103     0.547864    -2.430413
Gh(H)      1.344659     1.412062    -3.545358
Gh(O)      3.119203     1.381929    -0.509772
Gh(H)      2.304215     1.804893    -0.549245
Gh(H)      2.978825     0.669854     0.131836
Gh(O)     -2.613665     2.025634    -0.945890
Gh(H)     -1.791721     1.633691    -0.632163
Gh(H)     -3.281718     1.715110    -0.285048
Gh(O)      1.070902     3.348536    -0.645640
Gh(H)      1.491858     4.117923    -0.937238
Gh(H)      0.258142     3.643921    -0.280463

units ang
no_reorient
no_com
symmetry c1
}

set {
basis        aug-cc-pVTZ
scf_type     df
}

energy("mp2")
--------------------------------------------------------------------------

  Memory set to  55.879 GiB by Python driver.

Scratch directory: /ddmfs1a/scratch/
   => Libint2 <=

    Primary   basis highest AM E, G, H:  5, 4, 3
    Auxiliary basis highest AM E, G, H:  6, 5, 4
    Onebody   basis highest AM E, G, H:  6, 5, 4
    Solid Harmonics ordering:            gaussian

*** tstart() called on ddmfs1
*** at Tue Jan 23 00:15:23 2024

   => Loading Basis Set <=

    Name: AUG-CC-PVTZ
    Role: ORBITAL
    Keyword: BASIS
    atoms 1                                   entry BR         line  4208 file /ddmfs1b/softs/psi4conda/share/psi4/basis/aug-cc-pvtz.gbs 
    atoms 2, 5, 8, 11, 14, 17                 entry O          line   331 file /ddmfs1b/softs/psi4conda/share/psi4/basis/aug-cc-pvtz.gbs 
    atoms 3-4, 6-7, 9-10, 12-13, 15-16, 18-19 entry H          line    40 file /ddmfs1b/softs/psi4conda/share/psi4/basis/aug-cc-pvtz.gbs 


         ---------------------------------------------------------
                                   SCF
               by Justin Turney, Rob Parrish, Andy Simmonett
                          and Daniel G. A. Smith
                              RHF Reference
                       20 Threads,  57220 MiB Core
         ---------------------------------------------------------

  ==> Geometry <==

    Molecular point group: c1
    Full point group: C1

    Geometry (in Angstrom), charge = -1, multiplicity = 1:

       Center              X                  Y                   Z               Mass       
    ------------   -----------------  -----------------  -----------------  -----------------
         BR           0.000000000000     0.000000000000     0.000000000000    78.918337600000
      Gh(O)           0.782416000000    -0.121722000000     3.451600000000    15.994914619570
      Gh(H)           0.936067000000    -0.092172000000     2.515779000000     1.007825032230
      Gh(H)           1.418512000000     0.518629000000     3.809706000000     1.007825032230
      Gh(O)           1.279830000000    -3.033150000000    -0.407853000000    15.994914619570
      Gh(H)           0.932121000000    -2.105125000000    -0.536490000000     1.007825032230
      Gh(H)           0.609558000000    -3.519657000000    -0.884449000000     1.007825032230
      Gh(O)           1.071152000000     0.493703000000    -3.362487000000    15.994914619570
      Gh(H)           0.775103000000     0.547864000000    -2.430413000000     1.007825032230
      Gh(H)           1.344659000000     1.412062000000    -3.545358000000     1.007825032230
      Gh(O)           3.119203000000     1.381929000000    -0.509772000000    15.994914619570
      Gh(H)           2.304215000000     1.804893000000    -0.549245000000     1.007825032230
      Gh(H)           2.978825000000     0.669854000000     0.131836000000     1.007825032230
      Gh(O)          -2.613665000000     2.025634000000    -0.945890000000    15.994914619570
      Gh(H)          -1.791721000000     1.633691000000    -0.632163000000     1.007825032230
      Gh(H)          -3.281718000000     1.715110000000    -0.285048000000     1.007825032230
      Gh(O)           1.070902000000     3.348536000000    -0.645640000000    15.994914619570
      Gh(H)           1.491858000000     4.117923000000    -0.937238000000     1.007825032230
      Gh(H)           0.258142000000     3.643921000000    -0.280463000000     1.007825032230

  Running in c1 symmetry.

  Rotational constants: A =      0.02283  B =      0.01850  C =      0.01763 [cm^-1]
  Rotational constants: A =    684.35114  B =    554.72637  C =    528.65934 [MHz]
  Nuclear repulsion =    0.000000000000000

  Charge       = -1
  Multiplicity = 1
  Electrons    = 36
  Nalpha       = 18
  Nbeta        = 18

  ==> Algorithm <==

  SCF Algorithm Type is DF.
  DIIS enabled.
  MOM disabled.
  Fractional occupation disabled.
  Guess Type is SAD.
  Energy threshold   = 1.00e-08
  Density threshold  = 1.00e-08
  Integral threshold = 1.00e-12

  ==> Primary Basis <==

  Basis Set: AUG-CC-PVTZ
    Blend: AUG-CC-PVTZ
    Number of shells: 211
    Number of basis functions: 611
    Number of Cartesian functions: 699
    Spherical Harmonics?: true
    Max angular momentum: 3

   => Loading Basis Set <=

    Name: (AUG-CC-PVTZ AUX)
    Role: JKFIT
    Keyword: DF_BASIS_SCF
    atoms 1                                   entry BR         line  1492 file /ddmfs1b/softs/psi4conda/share/psi4/basis/aug-cc-pvtz-jkfit.gbs 
    atoms 2, 5, 8, 11, 14, 17                 entry O          line   286 file /ddmfs1b/softs/psi4conda/share/psi4/basis/aug-cc-pvtz-jkfit.gbs 
    atoms 3-4, 6-7, 9-10, 12-13, 15-16, 18-19 entry H          line    70 file /ddmfs1b/softs/psi4conda/share/psi4/basis/aug-cc-pvtz-jkfit.gbs 

  ==> Integral Setup <==

  DFHelper Memory: AOs need 3.445 GiB; user supplied 41.910 GiB. 
  Using in-core AOs.

  ==> MemDFJK: Density-Fitted J/K Matrices <==

    J tasked:                   Yes
    K tasked:                   Yes
    wK tasked:                   No
    OpenMP threads:              20
    Memory [MiB]:             42915
    Algorithm:                 Core
    Schwarz Cutoff:           1E-12
    Mask sparsity (%):      16.7084
    Fitting Condition:        1E-10

   => Auxiliary Basis Set <=

  Basis Set: (AUG-CC-PVTZ AUX)
    Blend: AUG-CC-PVTZ-JKFIT
    Number of shells: 406
    Number of basis functions: 1424
    Number of Cartesian functions: 1775
    Spherical Harmonics?: true
    Max angular momentum: 4

  Minimum eigenvalue in the overlap matrix is 1.2227032075E-04.
  Reciprocal condition number of the overlap matrix is 9.4202104291E-06.
    Using symmetric orthogonalization.

  ==> Pre-Iterations <==

  SCF Guess: Superposition of Atomic Densities via on-the-fly atomic UHF (no occupation information).

   -------------------------
    Irrep   Nso     Nmo    
   -------------------------
     A        611     611 
   -------------------------
    Total     611     611
   -------------------------

  ==> Iterations <==

                           Total Energy        Delta E     RMS |[F,P]|

   @DF-RHF iter SAD: -2570.41423568024857   -2.57041e+03   0.00000e+00 
   @DF-RHF iter   1: -2572.25164479366504   -1.83741e+00   1.78006e-03 DIIS/ADIIS
   @DF-RHF iter   2: -2572.46188063630007   -2.10236e-01   9.97880e-04 DIIS/ADIIS
   @DF-RHF iter   3: -2572.53369113797498   -7.18105e-02   1.42598e-05 DIIS
   @DF-RHF iter   4: -2572.53372787798435   -3.67400e-05   2.10210e-06 DIIS
   @DF-RHF iter   5: -2572.53372984558291   -1.96760e-06   5.34168e-07 DIIS
   @DF-RHF iter   6: -2572.53372998281975   -1.37237e-07   1.12132e-07 DIIS
   @DF-RHF iter   7: -2572.53373000214970   -1.93299e-08   7.73738e-09 DIIS
   @DF-RHF iter   8: -2572.53373000219608   -4.63842e-11   1.17024e-09 DIIS
  Energy and wave function converged.


  ==> Post-Iterations <==

    Orbital Energies [Eh]
    ---------------------

    Doubly Occupied:                                                      

       1A   -489.722182     2A    -64.861769     3A    -58.216303  
       4A    -58.216302     5A    -58.216301     6A     -9.533279  
       7A     -7.140610     8A     -7.140605     9A     -7.140594  
      10A     -2.882320    11A     -2.882318    12A     -2.882308  
      13A     -2.882302    14A     -2.882279    15A     -0.685988  
      16A     -0.139333    17A     -0.139332    18A     -0.139327  

    Virtual:                                                              

      19A      0.113322    20A      0.122935    21A      0.125514  
      22A      0.126828    23A      0.132442    24A      0.145118  
      25A      0.153466    26A      0.164081    27A      0.169630  
      28A      0.174692    29A      0.177886    30A      0.189067  
      31A      0.226833    32A      0.229906    33A      0.238043  
      34A      0.244651    35A      0.247431    36A      0.252294  
      37A      0.257964    38A      0.262003    39A      0.269465  
      40A      0.270520    41A      0.272628    42A      0.279675  
      43A      0.286378    44A      0.287525    45A      0.294284  
      46A      0.298483    47A      0.306756    48A      0.314114  
      49A      0.316373    50A      0.324281    51A      0.328068  
      52A      0.330928    53A      0.333638    54A      0.341558  
      55A      0.351216    56A      0.361822    57A      0.373759  
      58A      0.385066    59A      0.401932    60A      0.403393  
      61A      0.414933    62A      0.424937    63A      0.426300  
      64A      0.432297    65A      0.434579    66A      0.437964  
      67A      0.445508    68A      0.453508    69A      0.457813  
      70A      0.458950    71A      0.469638    72A      0.478107  
      73A      0.482764    74A      0.483971    75A      0.490650  
      76A      0.493639    77A      0.497640    78A      0.508407  
      79A      0.513515    80A      0.516421    81A      0.519923  
      82A      0.524210    83A      0.531917    84A      0.533536  
      85A      0.542081    86A      0.543496    87A      0.547863  
      88A      0.559713    89A      0.563458    90A      0.567413  
      91A      0.571232    92A      0.584049    93A      0.589245  
      94A      0.594894    95A      0.597410    96A      0.610829  
      97A      0.622478    98A      0.627161    99A      0.644622  
     100A      0.654110   101A      0.662515   102A      0.666543  
     103A      0.670127   104A      0.686447   105A      0.697894  
     106A      0.708775   107A      0.730590   108A      0.739478  
     109A      0.758666   110A      0.761659   111A      0.782686  
     112A      0.795331   113A      0.815552   114A      0.831000  
     115A      0.841572   116A      0.847100   117A      0.848949  
     118A      0.851507   119A      0.869898   120A      0.873464  
     121A      0.876393   122A      0.884528   123A      0.897507  
     124A      0.899632   125A      0.904998   126A      0.917314  
     127A      0.923462   128A      0.935362   129A      0.940471  
     130A      0.947290   131A      0.947962   132A      0.959592  
     133A      0.963191   134A      0.963956   135A      0.965937  
     136A      0.969854   137A      0.971108   138A      0.976943  
     139A      0.985658   140A      0.988478   141A      0.994235  
     142A      0.997525   143A      1.003312   144A      1.009212  
     145A      1.014270   146A      1.017225   147A      1.030559  
     148A      1.036024   149A      1.038726   150A      1.041121  
     151A      1.049475   152A      1.054549   153A      1.054929  
     154A      1.059612   155A      1.066393   156A      1.068560  
     157A      1.074524   158A      1.079080   159A      1.081615  
     160A      1.086618   161A      1.092192   162A      1.099488  
     163A      1.104133   164A      1.110489   165A      1.111723  
     166A      1.125661   167A      1.129291   168A      1.130381  
     169A      1.141239   170A      1.142971   171A      1.145480  
     172A      1.149857   173A      1.155066   174A      1.159487  
     175A      1.164400   176A      1.171192   177A      1.180540  
     178A      1.181875   179A      1.187015   180A      1.194861  
     181A      1.196914   182A      1.201024   183A      1.207132  
     184A      1.212611   185A      1.223476   186A      1.229655  
     187A      1.234379   188A      1.246804   189A      1.255537  
     190A      1.264074   191A      1.271135   192A      1.275297  
     193A      1.281309   194A      1.291620   195A      1.294148  
     196A      1.303606   197A      1.314098   198A      1.319530  
     199A      1.324884   200A      1.335064   201A      1.347742  
     202A      1.353662   203A      1.359380   204A      1.373534  
     205A      1.379170   206A      1.397402   207A      1.405778  
     208A      1.415083   209A      1.420395   210A      1.428317  
     211A      1.443738   212A      1.450781   213A      1.456009  
     214A      1.461067   215A      1.468078   216A      1.474519  
     217A      1.490978   218A      1.495589   219A      1.508112  
     220A      1.510226   221A      1.522263   222A      1.532690  
     223A      1.537903   224A      1.559980   225A      1.572853  
     226A      1.581853   227A      1.593370   228A      1.601953  
     229A      1.609673   230A      1.615248   231A      1.634503  
     232A      1.641064   233A      1.653159   234A      1.666537  
     235A      1.699372   236A      1.707233   237A      1.719293  
     238A      1.722151   239A      1.734711   240A      1.755346  
     241A      1.757626   242A      1.766612   243A      1.795371  
     244A      1.801508   245A      1.812996   246A      1.823938  
     247A      1.835888   248A      1.838495   249A      1.859204  
     250A      1.873305   251A      1.876257   252A      1.896513  
     253A      1.903329   254A      1.903784   255A      1.915216  
     256A      1.923246   257A      1.934716   258A      1.937020  
     259A      1.950576   260A      1.952830   261A      1.966686  
     262A      1.975482   263A      1.981411   264A      1.999836  
     265A      2.007851   266A      2.012553   267A      2.025053  
     268A      2.036319   269A      2.044713   270A      2.050953  
     271A      2.060620   272A      2.070401   273A      2.072094  
     274A      2.093354   275A      2.095633   276A      2.116666  
     277A      2.126291   278A      2.133341   279A      2.156851  
     280A      2.176322   281A      2.189111   282A      2.227977  
     283A      2.265378   284A      2.299785   285A      2.313730  
     286A      2.335798   287A      2.361403   288A      2.384772  
     289A      2.406782   290A      2.567490   291A      2.592985  
     292A      2.604710   293A      2.611101   294A      2.614236  
     295A      2.624280   296A      2.640369   297A      2.648375  
     298A      2.650438   299A      2.653025   300A      2.666132  
     301A      2.676895   302A      2.680735   303A      2.688162  
     304A      2.690933   305A      2.697149   306A      2.702636  
     307A      2.711144   308A      2.719726   309A      2.723816  
     310A      2.730037   311A      2.735833   312A      2.741633  
     313A      2.744473   314A      2.753753   315A      2.762529  
     316A      2.773817   317A      2.777621   318A      2.792055  
     319A      2.793847   320A      2.795870   321A      2.811810  
     322A      2.818519   323A      2.824748   324A      2.833037  
     325A      2.845178   326A      2.848320   327A      2.852695  
     328A      2.859979   329A      2.866005   330A      2.867729  
     331A      2.877313   332A      2.890869   333A      2.898335  
     334A      2.920702   335A      2.921915   336A      2.933879  
     337A      2.940668   338A      2.954639   339A      2.980119  
     340A      2.988705   341A      3.006341   342A      3.010387  
     343A      3.020732   344A      3.039221   345A      3.061342  
     346A      3.080197   347A      3.094425   348A      3.101826  
     349A      3.120732   350A      3.133730   351A      3.149758  
     352A      3.160487   353A      3.177446   354A      3.212199  
     355A      3.226611   356A      3.248214   357A      3.284981  
     358A      3.296273   359A      3.326948   360A      3.329609  
     361A      3.335703   362A      3.344881   363A      3.350050  
     364A      3.358972   365A      3.367237   366A      3.388167  
     367A      3.404707   368A      3.429437   369A      3.436030  
     370A      3.448520   371A      3.486240   372A      3.513233  
     373A      3.519155   374A      3.534171   375A      3.535439  
     376A      3.559984   377A      3.568394   378A      3.603381  
     379A      3.616290   380A      3.626420   381A      3.642914  
     382A      3.659270   383A      3.665984   384A      3.678466  
     385A      3.688533   386A      3.711920   387A      3.724316  
     388A      3.745105   389A      3.761797   390A      3.765286  
     391A      3.787179   392A      3.809544   393A      3.847728  
     394A      3.868524   395A      3.889666   396A      3.976591  
     397A      3.986365   398A      4.027545   399A      4.040695  
     400A      4.154281   401A      4.556682   402A      4.561669  
     403A      4.572632   404A      4.580421   405A      4.585533  
     406A      4.595795   407A      4.597510   408A      4.598782  
     409A      4.617872   410A      4.667417   411A      4.682380  
     412A      4.690508   413A      4.691637   414A      4.697745  
     415A      4.712120   416A      4.722737   417A      4.742175  
     418A      4.762081   419A      4.776518   420A      4.779049  
     421A      4.794778   422A      4.826319   423A      4.829192  
     424A      4.838440   425A      4.849859   426A      4.869775  
     427A      4.887033   428A      4.903437   429A      4.924488  
     430A      4.951245   431A      4.965021   432A      4.984309  
     433A      4.998119   434A      5.005781   435A      5.016334  
     436A      5.022467   437A      5.028234   438A      5.041290  
     439A      5.050799   440A      5.066994   441A      5.068599  
     442A      5.098879   443A      5.107068   444A      5.111942  
     445A      5.124858   446A      5.130318   447A      5.149348  
     448A      5.157616   449A      5.161205   450A      5.163943  
     451A      5.189665   452A      5.223899   453A      5.259853  
     454A      5.356938   455A      5.422465   456A      5.430548  
     457A      5.438808   458A      5.473385   459A      5.489659  
     460A      5.549141   461A      5.656854   462A      5.678304  
     463A      5.692459   464A      5.707466   465A      5.723948  
     466A      5.724365   467A      5.729733   468A      5.744269  
     469A      5.752664   470A      5.780309   471A      5.789849  
     472A      5.813078   473A      5.824779   474A      5.844337  
     475A      5.873486   476A      5.914168   477A      5.927600  
     478A      5.938254   479A      6.029855   480A      6.037618  
     481A      6.042888   482A      6.066248   483A      6.091130  
     484A      6.150645   485A      6.214492   486A      6.300524  
     487A      6.306285   488A      6.317323   489A      6.319993  
     490A      6.328653   491A      6.477949   492A      6.505225  
     493A      6.566547   494A      6.582628   495A      6.607731  
     496A      6.749000   497A      6.755712   498A      6.764550  
     499A      6.776716   500A      6.803103   501A      6.808518  
     502A      6.949243   503A      7.094964   504A      7.191724  
     505A      7.194925   506A      7.236785   507A      7.261150  
     508A      7.433653   509A      7.472569   510A      7.864761  
     511A      7.868880   512A      7.873642   513A      7.889778  
     514A      7.945964   515A      7.989252   516A      7.997664  
     517A      8.008410   518A      8.036111   519A      8.038214  
     520A      8.090749   521A      8.147793   522A      8.176109  
     523A      8.181465   524A      8.199652   525A      8.207014  
     526A      8.258418   527A      8.276380   528A      8.294851  
     529A      8.311728   530A      8.329439   531A      8.335728  
     532A      8.423348   533A      8.430872   534A      8.438445  
     535A      8.446658   536A      8.454901   537A      8.506142  
     538A      8.526164   539A      8.586209   540A      8.878219  
     541A      8.884985   542A      8.911568   543A      8.940102  
     544A      9.016361   545A      9.050524   546A      9.074489  
     547A      9.091765   548A      9.105660   549A      9.166922  
     550A      9.222620   551A      9.404221   552A      9.803121  
     553A      9.821692   554A      9.841908   555A      9.862660  
     556A      9.947271   557A     10.009481   558A     10.017930  
     559A     10.036551   560A     10.047336   561A     10.049691  
     562A     10.104666   563A     10.144826   564A     10.193197  
     565A     10.200990   566A     10.203424   567A     10.222785  
     568A     10.234722   569A     10.307609   570A     10.424523  
     571A     10.447384   572A     10.451198   573A     10.462079  
     574A     10.470617   575A     10.536876   576A     11.282571  
     577A     11.300788   578A     11.308583   579A     11.385959  
     580A     11.472034   581A     11.613951   582A     11.850465  
     583A     11.865917   584A     11.883512   585A     11.894684  
     586A     11.906230   587A     12.043394   588A     12.128203  
     589A     12.180926   590A     12.208592   591A     12.311154  
     592A     12.616987   593A     12.893973   594A     13.688227  
     595A     13.696472   596A     13.707368   597A     13.743181  
     598A     13.992935   599A     14.016397   600A     14.066769  
     601A     14.079873   602A     14.090699   603A     14.117197  
     604A     14.138689   605A     14.320485   606A     65.024400  
     607A     65.249959   608A     65.560305   609A     65.666910  
     610A     67.264104   611A     69.045229  

    Final Occupation by Irrep:
              A 
    DOCC [    18 ]
    NA   [    18 ]
    NB   [    18 ]

  @DF-RHF Final Energy: -2572.53373000219608

   => Energetics <=

    Nuclear Repulsion Energy =              0.0000000000000000
    One-Electron Energy =               -3593.6605581618291581
    Two-Electron Energy =                1021.1268281596327370
    Total Energy =                      -2572.5337300021965348

Computation Completed


Properties will be evaluated at   0.000000,   0.000000,   0.000000 [a0]

Properties computed using the SCF density matrix


 Multipole Moments:

 ------------------------------------------------------------------------------------
     Multipole            Electronic (a.u.)      Nuclear  (a.u.)        Total (a.u.)
 ------------------------------------------------------------------------------------

 L = 1.  Multiply by 2.5417464519 to convert [e a0] to [Debye]
 Dipole X            :          0.0001768            0.0000000            0.0001768
 Dipole Y            :          0.0000257            0.0000000            0.0000257
 Dipole Z            :         -0.0000951            0.0000000           -0.0000951
 Magnitude           :                                                    0.0002023

 ------------------------------------------------------------------------------------

*** tstop() called on ddmfs1 at Tue Jan 23 00:15:37 2024
Module time:
	user time   =     172.22 seconds =       2.87 minutes
	system time =      13.18 seconds =       0.22 minutes
	total time  =         14 seconds =       0.23 minutes
Total time:
	user time   =     172.22 seconds =       2.87 minutes
	system time =      13.18 seconds =       0.22 minutes
	total time  =         14 seconds =       0.23 minutes

*** tstart() called on ddmfs1
*** at Tue Jan 23 00:15:37 2024


  //>>>>>>>>>>>>>>>>>>>>>>>>>>>>>>>>>>>//
  //               DFMP2               //
  //<<<<<<<<<<<<<<<<<<<<<<<<<<<<<<<<<<<//

   => Loading Basis Set <=

    Name: (AUG-CC-PVTZ AUX)
    Role: RIFIT
    Keyword: DF_BASIS_MP2
    atoms 1                                   entry BR         line  1248 file /ddmfs1b/softs/psi4conda/share/psi4/basis/aug-cc-pvtz-ri.gbs 
    atoms 2, 5, 8, 11, 14, 17                 entry O          line   264 file /ddmfs1b/softs/psi4conda/share/psi4/basis/aug-cc-pvtz-ri.gbs 
    atoms 3-4, 6-7, 9-10, 12-13, 15-16, 18-19 entry H          line    30 file /ddmfs1b/softs/psi4conda/share/psi4/basis/aug-cc-pvtz-ri.gbs 

	 --------------------------------------------------------
	                          DF-MP2                         
	      2nd-Order Density-Fitted Moller-Plesset Theory     
	              RMP2 Wavefunction,  20 Threads             
	                                                         
	        Rob Parrish, Justin Turney, Andy Simmonett,      
	           Ed Hohenstein, and C. David Sherrill          
	 --------------------------------------------------------

   => Auxiliary Basis Set <=

  Basis Set: (AUG-CC-PVTZ AUX)
    Blend: AUG-CC-PVTZ-RI
    Number of shells: 379
    Number of basis functions: 1379
    Number of Cartesian functions: 1737
    Spherical Harmonics?: true
    Max angular momentum: 5

	 --------------------------------------------------------
	                 NBF =   611, NAUX =  1379
	 --------------------------------------------------------
	   CLASS    FOCC     OCC    AOCC    AVIR     VIR    FVIR
	   PAIRS       0      18      18     593     593       0
	 --------------------------------------------------------

	-----------------------------------------------------------
	 ==================> DF-MP2 Energies <==================== 
	-----------------------------------------------------------
	 Reference Energy          =   -2572.5337300021960800 [Eh]
	 Singles Energy            =      -0.0000000000000000 [Eh]
	 Same-Spin Energy          =      -0.0911249294753409 [Eh]
	 Opposite-Spin Energy      =      -0.2119307153217101 [Eh]
	 Correlation Energy        =      -0.3030556447970510 [Eh]
	 Total Energy              =   -2572.8367856469931212 [Eh]
	-----------------------------------------------------------
	 ================> DF-SCS-MP2 Energies <================== 
	-----------------------------------------------------------
	 SCS Same-Spin Scale       =       0.3333333333333333 [-]
	 SCS Opposite-Spin Scale   =       1.2000000000000000 [-]
	 SCS Same-Spin Energy      =      -0.0303749764917803 [Eh]
	 SCS Opposite-Spin Energy  =      -0.2543168583860521 [Eh]
	 SCS Correlation Energy    =      -0.2846918348778325 [Eh]
	 SCS Total Energy          =   -2572.8184218370738563 [Eh]
	-----------------------------------------------------------


*** tstop() called on ddmfs1 at Tue Jan 23 00:15:51 2024
Module time:
	user time   =      55.24 seconds =       0.92 minutes
	system time =       3.30 seconds =       0.05 minutes
	total time  =         14 seconds =       0.23 minutes
Total time:
	user time   =     227.48 seconds =       3.79 minutes
	system time =      16.49 seconds =       0.27 minutes
	total time  =         28 seconds =       0.47 minutes

    Psi4 stopped on: Tuesday, 23 January 2024 12:15AM
    Psi4 wall time for execution: 0:00:28.01

*** Psi4 exiting successfully. Buy a developer a beer!
