
    -----------------------------------------------------------------------
          Psi4: An Open-Source Ab Initio Electronic Structure Package
                               Psi4 1.8.2 release

                         Git: Rev {} zzzzzzz 


    D. G. A. Smith, L. A. Burns, A. C. Simmonett, R. M. Parrish,
    M. C. Schieber, R. Galvelis, P. Kraus, H. Kruse, R. Di Remigio,
    A. Alenaizan, A. M. James, S. Lehtola, J. P. Misiewicz, M. Scheurer,
    R. A. Shaw, J. B. Schriber, Y. Xie, Z. L. Glick, D. A. Sirianni,
    J. S. O'Brien, J. M. Waldrop, A. Kumar, E. G. Hohenstein,
    B. P. Pritchard, B. R. Brooks, H. F. Schaefer III, A. Yu. Sokolov,
    K. Patkowski, A. E. DePrince III, U. Bozkaya, R. A. King,
    F. A. Evangelista, J. M. Turney, T. D. Crawford, C. D. Sherrill,
    J. Chem. Phys. 152(18) 184108 (2020). https://doi.org/10.1063/5.0006002

                            Additional Code Authors
    E. T. Seidl, C. L. Janssen, E. F. Valeev, M. L. Leininger,
    J. F. Gonthier, R. M. Richard, H. R. McAlexander, M. Saitow, X. Wang,
    P. Verma, M. H. Lechner, A. Jiang, S. Behnle, A. G. Heide,
    M. F. Herbst, and D. L. Poole

             Previous Authors, Complete List of Code Contributors,
                       and Citations for Specific Modules
    https://github.com/psi4/psi4/blob/master/codemeta.json
    https://github.com/psi4/psi4/graphs/contributors
    http://psicode.org/psi4manual/master/introduction.html#citing-psifour

    -----------------------------------------------------------------------


    Psi4 started on: Monday, 22 January 2024 10:20PM

    Process ID: 112926
    Host:       ddmfs1
    PSIDATADIR: /ddmfs1b/softs/psi4conda/share/psi4
    Memory:     500.0 MiB
    Threads:    20
    
  ==> Input File <==

--------------------------------------------------------------------------
MEMORY 60 GB

molecule dimer {
0 1
Gh(Br)     0.000000     0.000000     0.000000
Gh(O)     -0.039065     1.360465    -3.062156
Gh(H)     -0.212638     0.478259    -3.493798
Gh(H)      0.045206     1.278611    -2.107441
Gh(O)     -2.989528     1.408932     0.945248
Gh(H)     -2.062048     1.043559     0.850710
Gh(H)     -2.903099     2.019723     1.687443
Gh(O)     -2.974629    -1.593570    -0.781374
Gh(H)     -2.231751    -1.030002    -0.687159
Gh(H)     -2.758326    -2.380343    -0.265965
O          0.721300     2.711650     2.171943
H          1.708723     2.884228     1.993117
H          0.459653     1.920161     1.656005

units ang
no_reorient
no_com
symmetry c1
}

set {
basis        aug-cc-pVTZ
scf_type     df
}

energy("mp2")
--------------------------------------------------------------------------

  Memory set to  55.879 GiB by Python driver.

Scratch directory: /ddmfs1a/scratch/
   => Libint2 <=

    Primary   basis highest AM E, G, H:  5, 4, 3
    Auxiliary basis highest AM E, G, H:  6, 5, 4
    Onebody   basis highest AM E, G, H:  6, 5, 4
    Solid Harmonics ordering:            gaussian

*** tstart() called on ddmfs1
*** at Mon Jan 22 22:20:00 2024

   => Loading Basis Set <=

    Name: AUG-CC-PVTZ
    Role: ORBITAL
    Keyword: BASIS
    atoms 1                     entry BR         line  4208 file /ddmfs1b/softs/psi4conda/share/psi4/basis/aug-cc-pvtz.gbs 
    atoms 2, 5, 8, 11           entry O          line   331 file /ddmfs1b/softs/psi4conda/share/psi4/basis/aug-cc-pvtz.gbs 
    atoms 3-4, 6-7, 9-10, 12-13 entry H          line    40 file /ddmfs1b/softs/psi4conda/share/psi4/basis/aug-cc-pvtz.gbs 


         ---------------------------------------------------------
                                   SCF
               by Justin Turney, Rob Parrish, Andy Simmonett
                          and Daniel G. A. Smith
                              RHF Reference
                       20 Threads,  57220 MiB Core
         ---------------------------------------------------------

  ==> Geometry <==

    Molecular point group: c1
    Full point group: C1

    Geometry (in Angstrom), charge = 0, multiplicity = 1:

       Center              X                  Y                   Z               Mass       
    ------------   -----------------  -----------------  -----------------  -----------------
      Gh(BR)          0.000000000000     0.000000000000     0.000000000000    78.918337600000
      Gh(O)          -0.039065000000     1.360465000000    -3.062156000000    15.994914619570
      Gh(H)          -0.212638000000     0.478259000000    -3.493798000000     1.007825032230
      Gh(H)           0.045206000000     1.278611000000    -2.107441000000     1.007825032230
      Gh(O)          -2.989528000000     1.408932000000     0.945248000000    15.994914619570
      Gh(H)          -2.062048000000     1.043559000000     0.850710000000     1.007825032230
      Gh(H)          -2.903099000000     2.019723000000     1.687443000000     1.007825032230
      Gh(O)          -2.974629000000    -1.593570000000    -0.781374000000    15.994914619570
      Gh(H)          -2.231751000000    -1.030002000000    -0.687159000000     1.007825032230
      Gh(H)          -2.758326000000    -2.380343000000    -0.265965000000     1.007825032230
         O            0.721300000000     2.711650000000     2.171943000000    15.994914619570
         H            1.708723000000     2.884228000000     1.993117000000     1.007825032230
         H            0.459653000000     1.920161000000     1.656005000000     1.007825032230

  Running in c1 symmetry.

  Rotational constants: A =      0.03615  B =      0.03039  C =      0.02526 [cm^-1]
  Rotational constants: A =   1083.61094  B =    911.20376  C =    757.17660 [MHz]
  Nuclear repulsion =    8.803881006242630

  Charge       = 0
  Multiplicity = 1
  Electrons    = 10
  Nalpha       = 5
  Nbeta        = 5

  ==> Algorithm <==

  SCF Algorithm Type is DF.
  DIIS enabled.
  MOM disabled.
  Fractional occupation disabled.
  Guess Type is SAD.
  Energy threshold   = 1.00e-08
  Density threshold  = 1.00e-08
  Integral threshold = 1.00e-12

  ==> Primary Basis <==

  Basis Set: AUG-CC-PVTZ
    Blend: AUG-CC-PVTZ
    Number of shells: 147
    Number of basis functions: 427
    Number of Cartesian functions: 489
    Spherical Harmonics?: true
    Max angular momentum: 3

   => Loading Basis Set <=

    Name: (AUG-CC-PVTZ AUX)
    Role: JKFIT
    Keyword: DF_BASIS_SCF
    atoms 1                     entry BR         line  1492 file /ddmfs1b/softs/psi4conda/share/psi4/basis/aug-cc-pvtz-jkfit.gbs 
    atoms 2, 5, 8, 11           entry O          line   286 file /ddmfs1b/softs/psi4conda/share/psi4/basis/aug-cc-pvtz-jkfit.gbs 
    atoms 3-4, 6-7, 9-10, 12-13 entry H          line    70 file /ddmfs1b/softs/psi4conda/share/psi4/basis/aug-cc-pvtz-jkfit.gbs 

  ==> Integral Setup <==

  DFHelper Memory: AOs need 1.298 GiB; user supplied 41.910 GiB. 
  Using in-core AOs.

  ==> MemDFJK: Density-Fitted J/K Matrices <==

    J tasked:                   Yes
    K tasked:                   Yes
    wK tasked:                   No
    OpenMP threads:              20
    Memory [MiB]:             42915
    Algorithm:                 Core
    Schwarz Cutoff:           1E-12
    Mask sparsity (%):      12.5619
    Fitting Condition:        1E-10

   => Auxiliary Basis Set <=

  Basis Set: (AUG-CC-PVTZ AUX)
    Blend: AUG-CC-PVTZ-JKFIT
    Number of shells: 290
    Number of basis functions: 1032
    Number of Cartesian functions: 1293
    Spherical Harmonics?: true
    Max angular momentum: 4

  Minimum eigenvalue in the overlap matrix is 1.8162945978E-04.
  Reciprocal condition number of the overlap matrix is 1.7043576679E-05.
    Using symmetric orthogonalization.

  ==> Pre-Iterations <==

  SCF Guess: Superposition of Atomic Densities via on-the-fly atomic UHF (no occupation information).

   -------------------------
    Irrep   Nso     Nmo    
   -------------------------
     A        427     427 
   -------------------------
    Total     427     427
   -------------------------

  ==> Iterations <==

                           Total Energy        Delta E     RMS |[F,P]|

   @DF-RHF iter SAD:   -75.42523332744736   -7.54252e+01   0.00000e+00 
   @DF-RHF iter   1:   -75.96767998532576   -5.42447e-01   1.09180e-03 ADIIS/DIIS
   @DF-RHF iter   2:   -76.01887690990695   -5.11969e-02   7.76460e-04 ADIIS/DIIS
   @DF-RHF iter   3:   -76.05339939550936   -3.45225e-02   5.31844e-05 DIIS
   @DF-RHF iter   4:   -76.05385666215179   -4.57267e-04   1.38987e-05 DIIS
   @DF-RHF iter   5:   -76.05389138812583   -3.47260e-05   3.27298e-06 DIIS
   @DF-RHF iter   6:   -76.05389442824104   -3.04012e-06   7.30876e-07 DIIS
   @DF-RHF iter   7:   -76.05389459204162   -1.63801e-07   1.32889e-07 DIIS
   @DF-RHF iter   8:   -76.05389459671559   -4.67398e-09   2.37465e-08 DIIS
   @DF-RHF iter   9:   -76.05389459684174   -1.26150e-10   6.44058e-09 DIIS
  Energy and wave function converged.


  ==> Post-Iterations <==

    Orbital Energies [Eh]
    ---------------------

    Doubly Occupied:                                                      

       1A    -20.572802     2A     -1.331192     3A     -0.700981  
       4A     -0.570741     5A     -0.506085  

    Virtual:                                                              

       6A      0.016217     7A      0.032577     8A      0.038361  
       9A      0.044499    10A      0.054798    11A      0.062450  
      12A      0.065238    13A      0.079043    14A      0.090171  
      15A      0.098574    16A      0.103675    17A      0.120436  
      18A      0.123589    19A      0.133010    20A      0.153028  
      21A      0.154062    22A      0.157367    23A      0.159093  
      24A      0.165122    25A      0.172673    26A      0.176165  
      27A      0.183551    28A      0.185840    29A      0.197351  
      30A      0.198977    31A      0.213232    32A      0.222191  
      33A      0.234421    34A      0.250036    35A      0.259891  
      36A      0.261666    37A      0.278279    38A      0.284459  
      39A      0.292396    40A      0.299449    41A      0.304541  
      42A      0.308558    43A      0.319236    44A      0.325744  
      45A      0.328047    46A      0.337043    47A      0.343907  
      48A      0.350512    49A      0.357733    50A      0.363685  
      51A      0.372013    52A      0.378575    53A      0.388438  
      54A      0.391910    55A      0.403123    56A      0.403698  
      57A      0.409964    58A      0.423111    59A      0.432142  
      60A      0.437521    61A      0.455317    62A      0.467978  
      63A      0.481905    64A      0.486433    65A      0.507935  
      66A      0.510570    67A      0.516382    68A      0.540580  
      69A      0.549468    70A      0.562499    71A      0.571265  
      72A      0.604527    73A      0.621518    74A      0.652835  
      75A      0.680258    76A      0.700141    77A      0.708717  
      78A      0.713833    79A      0.718500    80A      0.727210  
      81A      0.734951    82A      0.748117    83A      0.752743  
      84A      0.758500    85A      0.766146    86A      0.777906  
      87A      0.781953    88A      0.789310    89A      0.795754  
      90A      0.806206    91A      0.808670    92A      0.827130  
      93A      0.836260    94A      0.845483    95A      0.849284  
      96A      0.854475    97A      0.863502    98A      0.866952  
      99A      0.869414   100A      0.881434   101A      0.885801  
     102A      0.897636   103A      0.901863   104A      0.906719  
     105A      0.914343   106A      0.921360   107A      0.923522  
     108A      0.931909   109A      0.937924   110A      0.953517  
     111A      0.959077   112A      0.966095   113A      0.971604  
     114A      0.986391   115A      0.992291   116A      0.994055  
     117A      1.001045   118A      1.009935   119A      1.013496  
     120A      1.022605   121A      1.030947   122A      1.033586  
     123A      1.037206   124A      1.047847   125A      1.060223  
     126A      1.065204   127A      1.075179   128A      1.086798  
     129A      1.090829   130A      1.105521   131A      1.112768  
     132A      1.118932   133A      1.121476   134A      1.141801  
     135A      1.145842   136A      1.153114   137A      1.154758  
     138A      1.171096   139A      1.184367   140A      1.191829  
     141A      1.215545   142A      1.219967   143A      1.232126  
     144A      1.248102   145A      1.264400   146A      1.277283  
     147A      1.287826   148A      1.300006   149A      1.317326  
     150A      1.332550   151A      1.346197   152A      1.357995  
     153A      1.377452   154A      1.385218   155A      1.395227  
     156A      1.419037   157A      1.431532   158A      1.447196  
     159A      1.459175   160A      1.491358   161A      1.499450  
     162A      1.527947   163A      1.532986   164A      1.552392  
     165A      1.575462   166A      1.578857   167A      1.590692  
     168A      1.626940   169A      1.648998   170A      1.662273  
     171A      1.674606   172A      1.699144   173A      1.703513  
     174A      1.724859   175A      1.734710   176A      1.759243  
     177A      1.762706   178A      1.780544   179A      1.791829  
     180A      1.811169   181A      1.830659   182A      1.842622  
     183A      1.848857   184A      1.859167   185A      1.873216  
     186A      1.894542   187A      1.899941   188A      1.912556  
     189A      1.930544   190A      1.953959   191A      1.959212  
     192A      1.965986   193A      2.006958   194A      2.012961  
     195A      2.051603   196A      2.125517   197A      2.239875  
     198A      2.282583   199A      2.377830   200A      2.398258  
     201A      2.431818   202A      2.433621   203A      2.445523  
     204A      2.458754   205A      2.460396   206A      2.464929  
     207A      2.476012   208A      2.493888   209A      2.500384  
     210A      2.523749   211A      2.536134   212A      2.554366  
     213A      2.564260   214A      2.592375   215A      2.604033  
     216A      2.617717   217A      2.634624   218A      2.638104  
     219A      2.644621   220A      2.651271   221A      2.659659  
     222A      2.662729   223A      2.685092   224A      2.707000  
     225A      2.708957   226A      2.722496   227A      2.736379  
     228A      2.764053   229A      2.776982   230A      2.808184  
     231A      2.819936   232A      2.891192   233A      2.926301  
     234A      2.951156   235A      2.962075   236A      2.983275  
     237A      2.991597   238A      3.094269   239A      3.137780  
     240A      3.151309   241A      3.165184   242A      3.181642  
     243A      3.192066   244A      3.194558   245A      3.196420  
     246A      3.211446   247A      3.234700   248A      3.247972  
     249A      3.283426   250A      3.301737   251A      3.305940  
     252A      3.338133   253A      3.344015   254A      3.359642  
     255A      3.388846   256A      3.403028   257A      3.426740  
     258A      3.439810   259A      3.464930   260A      3.489987  
     261A      3.504640   262A      3.540426   263A      3.560161  
     264A      3.582018   265A      3.593995   266A      3.623724  
     267A      3.651041   268A      3.687577   269A      3.707453  
     270A      3.722444   271A      3.752225   272A      3.812597  
     273A      3.832324   274A      3.842950   275A      3.887476  
     276A      4.005697   277A      4.027575   278A      4.189274  
     279A      4.204302   280A      4.228580   281A      4.329090  
     282A      4.335957   283A      4.358315   284A      4.384787  
     285A      4.409402   286A      4.441001   287A      4.454209  
     288A      4.474865   289A      4.482954   290A      4.496958  
     291A      4.516431   292A      4.525607   293A      4.557725  
     294A      4.576959   295A      4.602814   296A      4.623483  
     297A      4.629184   298A      4.644140   299A      4.679545  
     300A      4.694875   301A      4.703093   302A      4.741203  
     303A      4.771967   304A      4.813273   305A      4.860947  
     306A      4.880290   307A      4.886750   308A      4.909262  
     309A      4.923786   310A      4.934066   311A      4.954876  
     312A      4.972611   313A      5.037624   314A      5.054336  
     315A      5.063800   316A      5.090791   317A      5.132590  
     318A      5.234045   319A      5.266288   320A      5.298030  
     321A      5.318013   322A      5.403479   323A      5.443559  
     324A      5.475321   325A      5.490958   326A      5.517291  
     327A      5.580825   328A      5.628469   329A      5.641450  
     330A      5.658785   331A      5.692449   332A      5.723056  
     333A      5.752724   334A      5.874538   335A      5.909378  
     336A      6.137953   337A      6.151561   338A      6.158919  
     339A      6.165057   340A      6.280069   341A      6.391430  
     342A      6.479201   343A      6.581718   344A      6.588710  
     345A      6.712367   346A      6.725135   347A      6.743868  
     348A      6.866101   349A      7.005897   350A      7.046344  
     351A      7.090835   352A      7.184489   353A      7.221361  
     354A      7.281808   355A      7.299948   356A      7.353847  
     357A      7.435404   358A      7.639789   359A      7.673913  
     360A      7.717427   361A      7.728643   362A      7.753005  
     363A      7.850666   364A      7.853204   365A      7.878410  
     366A      7.934003   367A      8.020282   368A      8.071427  
     369A      8.082313   370A      8.163964   371A      8.222072  
     372A      8.251954   373A      8.255039   374A      8.279179  
     375A      8.335200   376A      8.586373   377A      8.679684  
     378A      8.726040   379A      8.814847   380A      8.839485  
     381A      8.888392   382A      9.084540   383A      9.662272  
     384A      9.724318   385A      9.741335   386A      9.827709  
     387A      9.863065   388A      9.878612   389A     10.037560  
     390A     10.050589   391A     10.075907   392A     10.254514  
     393A     10.296861   394A     10.321028   395A     10.749227  
     396A     11.007427   397A     11.090378   398A     11.273139  
     399A     11.645923   400A     11.651393   401A     11.758708  
     402A     11.936435   403A     12.019212   404A     12.304766  
     405A     13.422513   406A     13.504474   407A     13.685463  
     408A     13.749379   409A     13.849792   410A     13.892228  
     411A     13.943808   412A     14.001875   413A     14.008606  
     414A     15.408769   415A     26.285858   416A     26.302192  
     417A     26.382474   418A     26.501815   419A     26.556136  
     420A     46.319659   421A     64.468296   422A     65.182764  
     423A     67.172004   424A    138.864540   425A    139.042786  
     426A    139.133244   427A    711.219634  

    Final Occupation by Irrep:
              A 
    DOCC [     5 ]
    NA   [     5 ]
    NB   [     5 ]

  @DF-RHF Final Energy:   -76.05389459684174

   => Energetics <=

    Nuclear Repulsion Energy =              8.8038810062426300
    One-Electron Energy =                -122.3519451728640490
    Two-Electron Energy =                  37.4941695697796646
    Total Energy =                        -76.0538945968417579

Computation Completed


Properties will be evaluated at   0.000000,   0.000000,   0.000000 [a0]

Properties computed using the SCF density matrix


 Multipole Moments:

 ------------------------------------------------------------------------------------
     Multipole            Electronic (a.u.)      Nuclear  (a.u.)        Total (a.u.)
 ------------------------------------------------------------------------------------

 L = 1.  Multiply by 2.5417464519 to convert [e a0] to [Debye]
 Dipole X            :        -14.5316928           15.0021124            0.4704196
 Dipole Y            :        -50.4820698           50.0731862           -0.4088837
 Dipole Z            :        -40.1869738           39.7308606           -0.4561132
 Magnitude           :                                                    0.7723469

 ------------------------------------------------------------------------------------

*** tstop() called on ddmfs1 at Mon Jan 22 22:20:06 2024
Module time:
	user time   =      69.88 seconds =       1.16 minutes
	system time =       5.69 seconds =       0.09 minutes
	total time  =          6 seconds =       0.10 minutes
Total time:
	user time   =      69.88 seconds =       1.16 minutes
	system time =       5.69 seconds =       0.09 minutes
	total time  =          6 seconds =       0.10 minutes

*** tstart() called on ddmfs1
*** at Mon Jan 22 22:20:06 2024


  //>>>>>>>>>>>>>>>>>>>>>>>>>>>>>>>>>>>//
  //               DFMP2               //
  //<<<<<<<<<<<<<<<<<<<<<<<<<<<<<<<<<<<//

   => Loading Basis Set <=

    Name: (AUG-CC-PVTZ AUX)
    Role: RIFIT
    Keyword: DF_BASIS_MP2
    atoms 1                     entry BR         line  1248 file /ddmfs1b/softs/psi4conda/share/psi4/basis/aug-cc-pvtz-ri.gbs 
    atoms 2, 5, 8, 11           entry O          line   264 file /ddmfs1b/softs/psi4conda/share/psi4/basis/aug-cc-pvtz-ri.gbs 
    atoms 3-4, 6-7, 9-10, 12-13 entry H          line    30 file /ddmfs1b/softs/psi4conda/share/psi4/basis/aug-cc-pvtz-ri.gbs 

	 --------------------------------------------------------
	                          DF-MP2                         
	      2nd-Order Density-Fitted Moller-Plesset Theory     
	              RMP2 Wavefunction,  20 Threads             
	                                                         
	        Rob Parrish, Justin Turney, Andy Simmonett,      
	           Ed Hohenstein, and C. David Sherrill          
	 --------------------------------------------------------

   => Auxiliary Basis Set <=

  Basis Set: (AUG-CC-PVTZ AUX)
    Blend: AUG-CC-PVTZ-RI
    Number of shells: 267
    Number of basis functions: 983
    Number of Cartesian functions: 1245
    Spherical Harmonics?: true
    Max angular momentum: 5

	 --------------------------------------------------------
	                 NBF =   427, NAUX =   983
	 --------------------------------------------------------
	   CLASS    FOCC     OCC    AOCC    AVIR     VIR    FVIR
	   PAIRS       0       5       5     422     422       0
	 --------------------------------------------------------

	-----------------------------------------------------------
	 ==================> DF-MP2 Energies <==================== 
	-----------------------------------------------------------
	 Reference Energy          =     -76.0538945968417437 [Eh]
	 Singles Energy            =      -0.0000000000000000 [Eh]
	 Same-Spin Energy          =      -0.0690507906200662 [Eh]
	 Opposite-Spin Energy      =      -0.2178176648062289 [Eh]
	 Correlation Energy        =      -0.2868684554262950 [Eh]
	 Total Energy              =     -76.3407630522680449 [Eh]
	-----------------------------------------------------------
	 ================> DF-SCS-MP2 Energies <================== 
	-----------------------------------------------------------
	 SCS Same-Spin Scale       =       0.3333333333333333 [-]
	 SCS Opposite-Spin Scale   =       1.2000000000000000 [-]
	 SCS Same-Spin Energy      =      -0.0230169302066887 [Eh]
	 SCS Opposite-Spin Energy  =      -0.2613811977674746 [Eh]
	 SCS Correlation Energy    =      -0.2843981279741633 [Eh]
	 SCS Total Energy          =     -76.3382927248159007 [Eh]
	-----------------------------------------------------------


*** tstop() called on ddmfs1 at Mon Jan 22 22:20:16 2024
Module time:
	user time   =      26.40 seconds =       0.44 minutes
	system time =       1.96 seconds =       0.03 minutes
	total time  =         10 seconds =       0.17 minutes
Total time:
	user time   =      96.29 seconds =       1.60 minutes
	system time =       7.65 seconds =       0.13 minutes
	total time  =         16 seconds =       0.27 minutes

    Psi4 stopped on: Monday, 22 January 2024 10:20PM
    Psi4 wall time for execution: 0:00:15.41

*** Psi4 exiting successfully. Buy a developer a beer!
