
    -----------------------------------------------------------------------
          Psi4: An Open-Source Ab Initio Electronic Structure Package
                               Psi4 1.8.2 release

                         Git: Rev {} zzzzzzz 


    D. G. A. Smith, L. A. Burns, A. C. Simmonett, R. M. Parrish,
    M. C. Schieber, R. Galvelis, P. Kraus, H. Kruse, R. Di Remigio,
    A. Alenaizan, A. M. James, S. Lehtola, J. P. Misiewicz, M. Scheurer,
    R. A. Shaw, J. B. Schriber, Y. Xie, Z. L. Glick, D. A. Sirianni,
    J. S. O'Brien, J. M. Waldrop, A. Kumar, E. G. Hohenstein,
    B. P. Pritchard, B. R. Brooks, H. F. Schaefer III, A. Yu. Sokolov,
    K. Patkowski, A. E. DePrince III, U. Bozkaya, R. A. King,
    F. A. Evangelista, J. M. Turney, T. D. Crawford, C. D. Sherrill,
    J. Chem. Phys. 152(18) 184108 (2020). https://doi.org/10.1063/5.0006002

                            Additional Code Authors
    E. T. Seidl, C. L. Janssen, E. F. Valeev, M. L. Leininger,
    J. F. Gonthier, R. M. Richard, H. R. McAlexander, M. Saitow, X. Wang,
    P. Verma, M. H. Lechner, A. Jiang, S. Behnle, A. G. Heide,
    M. F. Herbst, and D. L. Poole

             Previous Authors, Complete List of Code Contributors,
                       and Citations for Specific Modules
    https://github.com/psi4/psi4/blob/master/codemeta.json
    https://github.com/psi4/psi4/graphs/contributors
    http://psicode.org/psi4manual/master/introduction.html#citing-psifour

    -----------------------------------------------------------------------


    Psi4 started on: Monday, 22 January 2024 10:52PM

    Process ID: 114866
    Host:       ddmfs1
    PSIDATADIR: /ddmfs1b/softs/psi4conda/share/psi4
    Memory:     500.0 MiB
    Threads:    20
    
  ==> Input File <==

--------------------------------------------------------------------------
MEMORY 60 GB

molecule dimer {
0 1
Gh(Br)     0.000000     0.000000     0.000000
O         -1.259613    -1.972372    -2.351696
H         -0.860891    -1.435419    -1.661193
H         -2.112677    -2.309575    -2.092339
Gh(O)     -2.845407     1.529579    -0.341206
Gh(H)     -3.404442     0.725851    -0.231895
Gh(H)     -1.918137     1.227655    -0.418924
Gh(O)      1.203798     0.989340    -2.982723
Gh(H)      1.383848     1.404532    -2.151666
Gh(H)      0.917733     0.079877    -2.748949
Gh(O)     -1.942333    -2.300435     1.090951
Gh(H)     -1.277267    -1.678503     0.760063
Gh(H)     -1.677310    -3.142909     0.788314
Gh(O)      2.995159    -1.396829    -0.963849
Gh(H)      2.160999    -1.154144    -0.534338
Gh(H)      3.403321    -0.551585    -1.226511

units ang
no_reorient
no_com
symmetry c1
}

set {
basis        aug-cc-pVTZ
scf_type     df
}

energy("mp2")
--------------------------------------------------------------------------

  Memory set to  55.879 GiB by Python driver.

Scratch directory: /ddmfs1a/scratch/
   => Libint2 <=

    Primary   basis highest AM E, G, H:  5, 4, 3
    Auxiliary basis highest AM E, G, H:  6, 5, 4
    Onebody   basis highest AM E, G, H:  6, 5, 4
    Solid Harmonics ordering:            gaussian

*** tstart() called on ddmfs1
*** at Mon Jan 22 22:52:51 2024

   => Loading Basis Set <=

    Name: AUG-CC-PVTZ
    Role: ORBITAL
    Keyword: BASIS
    atoms 1                            entry BR         line  4208 file /ddmfs1b/softs/psi4conda/share/psi4/basis/aug-cc-pvtz.gbs 
    atoms 2, 5, 8, 11, 14              entry O          line   331 file /ddmfs1b/softs/psi4conda/share/psi4/basis/aug-cc-pvtz.gbs 
    atoms 3-4, 6-7, 9-10, 12-13, 15-16 entry H          line    40 file /ddmfs1b/softs/psi4conda/share/psi4/basis/aug-cc-pvtz.gbs 


         ---------------------------------------------------------
                                   SCF
               by Justin Turney, Rob Parrish, Andy Simmonett
                          and Daniel G. A. Smith
                              RHF Reference
                       20 Threads,  57220 MiB Core
         ---------------------------------------------------------

  ==> Geometry <==

    Molecular point group: c1
    Full point group: C1

    Geometry (in Angstrom), charge = 0, multiplicity = 1:

       Center              X                  Y                   Z               Mass       
    ------------   -----------------  -----------------  -----------------  -----------------
      Gh(BR)          0.000000000000     0.000000000000     0.000000000000    78.918337600000
         O           -1.259613000000    -1.972372000000    -2.351696000000    15.994914619570
         H           -0.860891000000    -1.435419000000    -1.661193000000     1.007825032230
         H           -2.112677000000    -2.309575000000    -2.092339000000     1.007825032230
      Gh(O)          -2.845407000000     1.529579000000    -0.341206000000    15.994914619570
      Gh(H)          -3.404442000000     0.725851000000    -0.231895000000     1.007825032230
      Gh(H)          -1.918137000000     1.227655000000    -0.418924000000     1.007825032230
      Gh(O)           1.203798000000     0.989340000000    -2.982723000000    15.994914619570
      Gh(H)           1.383848000000     1.404532000000    -2.151666000000     1.007825032230
      Gh(H)           0.917733000000     0.079877000000    -2.748949000000     1.007825032230
      Gh(O)          -1.942333000000    -2.300435000000     1.090951000000    15.994914619570
      Gh(H)          -1.277267000000    -1.678503000000     0.760063000000     1.007825032230
      Gh(H)          -1.677310000000    -3.142909000000     0.788314000000     1.007825032230
      Gh(O)           2.995159000000    -1.396829000000    -0.963849000000    15.994914619570
      Gh(H)           2.160999000000    -1.154144000000    -0.534338000000     1.007825032230
      Gh(H)           3.403321000000    -0.551585000000    -1.226511000000     1.007825032230

  Running in c1 symmetry.

  Rotational constants: A =      0.03310  B =      0.02357  C =      0.02340 [cm^-1]
  Rotational constants: A =    992.37635  B =    706.56812  C =    701.45668 [MHz]
  Nuclear repulsion =    9.178433429927409

  Charge       = 0
  Multiplicity = 1
  Electrons    = 10
  Nalpha       = 5
  Nbeta        = 5

  ==> Algorithm <==

  SCF Algorithm Type is DF.
  DIIS enabled.
  MOM disabled.
  Fractional occupation disabled.
  Guess Type is SAD.
  Energy threshold   = 1.00e-08
  Density threshold  = 1.00e-08
  Integral threshold = 1.00e-12

  ==> Primary Basis <==

  Basis Set: AUG-CC-PVTZ
    Blend: AUG-CC-PVTZ
    Number of shells: 179
    Number of basis functions: 519
    Number of Cartesian functions: 594
    Spherical Harmonics?: true
    Max angular momentum: 3

   => Loading Basis Set <=

    Name: (AUG-CC-PVTZ AUX)
    Role: JKFIT
    Keyword: DF_BASIS_SCF
    atoms 1                            entry BR         line  1492 file /ddmfs1b/softs/psi4conda/share/psi4/basis/aug-cc-pvtz-jkfit.gbs 
    atoms 2, 5, 8, 11, 14              entry O          line   286 file /ddmfs1b/softs/psi4conda/share/psi4/basis/aug-cc-pvtz-jkfit.gbs 
    atoms 3-4, 6-7, 9-10, 12-13, 15-16 entry H          line    70 file /ddmfs1b/softs/psi4conda/share/psi4/basis/aug-cc-pvtz-jkfit.gbs 

  ==> Integral Setup <==

  DFHelper Memory: AOs need 2.284 GiB; user supplied 41.910 GiB. 
  Using in-core AOs.

  ==> MemDFJK: Density-Fitted J/K Matrices <==

    J tasked:                   Yes
    K tasked:                   Yes
    wK tasked:                   No
    OpenMP threads:              20
    Memory [MiB]:             42915
    Algorithm:                 Core
    Schwarz Cutoff:           1E-12
    Mask sparsity (%):      11.5941
    Fitting Condition:        1E-10

   => Auxiliary Basis Set <=

  Basis Set: (AUG-CC-PVTZ AUX)
    Blend: AUG-CC-PVTZ-JKFIT
    Number of shells: 348
    Number of basis functions: 1228
    Number of Cartesian functions: 1534
    Spherical Harmonics?: true
    Max angular momentum: 4

  Minimum eigenvalue in the overlap matrix is 1.5598620484E-04.
  Reciprocal condition number of the overlap matrix is 1.1918332788E-05.
    Using symmetric orthogonalization.

  ==> Pre-Iterations <==

  SCF Guess: Superposition of Atomic Densities via on-the-fly atomic UHF (no occupation information).

   -------------------------
    Irrep   Nso     Nmo    
   -------------------------
     A        519     519 
   -------------------------
    Total     519     519
   -------------------------

  ==> Iterations <==

                           Total Energy        Delta E     RMS |[F,P]|

   @DF-RHF iter SAD:   -75.47101255337562   -7.54710e+01   0.00000e+00 
   @DF-RHF iter   1:   -75.97618195734178   -5.05169e-01   9.03391e-04 ADIIS/DIIS
   @DF-RHF iter   2:   -76.02847057160497   -5.22886e-02   6.10473e-04 ADIIS/DIIS
   @DF-RHF iter   3:   -76.05930393287501   -3.08334e-02   4.14119e-05 DIIS
   @DF-RHF iter   4:   -76.05969667650953   -3.92744e-04   9.92931e-06 DIIS
   @DF-RHF iter   5:   -76.05972098866364   -2.43122e-05   2.24428e-06 DIIS
   @DF-RHF iter   6:   -76.05972301027984   -2.02162e-06   5.08007e-07 DIIS
   @DF-RHF iter   7:   -76.05972312600744   -1.15728e-07   9.87229e-08 DIIS
   @DF-RHF iter   8:   -76.05972312988860   -3.88115e-09   1.60620e-08 DIIS
   @DF-RHF iter   9:   -76.05972312996995   -8.13571e-11   3.98387e-09 DIIS
  Energy and wave function converged.


  ==> Post-Iterations <==

    Orbital Energies [Eh]
    ---------------------

    Doubly Occupied:                                                      

       1A    -20.563727     2A     -1.348377     3A     -0.731435  
       4A     -0.570533     5A     -0.508096  

    Virtual:                                                              

       6A      0.015990     7A      0.031584     8A      0.036567  
       9A      0.043195    10A      0.052408    11A      0.058319  
      12A      0.062831    13A      0.064798    14A      0.074029  
      15A      0.082080    16A      0.095402    17A      0.106719  
      18A      0.113281    19A      0.118827    20A      0.120358  
      21A      0.133129    22A      0.147168    23A      0.149324  
      24A      0.150492    25A      0.157544    26A      0.162665  
      27A      0.174197    28A      0.176934    29A      0.183393  
      30A      0.185861    31A      0.188528    32A      0.193970  
      33A      0.199444    34A      0.206790    35A      0.217178  
      36A      0.221999    37A      0.226676    38A      0.232286  
      39A      0.242992    40A      0.256621    41A      0.266756  
      42A      0.268232    43A      0.276177    44A      0.287398  
      45A      0.297777    46A      0.302765    47A      0.307983  
      48A      0.316381    49A      0.318642    50A      0.329719  
      51A      0.335625    52A      0.345247    53A      0.346771  
      54A      0.351336    55A      0.353412    56A      0.364158  
      57A      0.371934    58A      0.379706    59A      0.385477  
      60A      0.390314    61A      0.397376    62A      0.401712  
      63A      0.407250    64A      0.415815    65A      0.424761  
      66A      0.432033    67A      0.436961    68A      0.444419  
      69A      0.451636    70A      0.461250    71A      0.467292  
      72A      0.471916    73A      0.480265    74A      0.485550  
      75A      0.500319    76A      0.504353    77A      0.511817  
      78A      0.535852    79A      0.543653    80A      0.556360  
      81A      0.566059    82A      0.570799    83A      0.584891  
      84A      0.597621    85A      0.613884    86A      0.626958  
      87A      0.641244    88A      0.668683    89A      0.671002  
      90A      0.682029    91A      0.702071    92A      0.708063  
      93A      0.728113    94A      0.731423    95A      0.734640  
      96A      0.744457    97A      0.752848    98A      0.759141  
      99A      0.766046   100A      0.774179   101A      0.780917  
     102A      0.786490   103A      0.802573   104A      0.807109  
     105A      0.809548   106A      0.816997   107A      0.818405  
     108A      0.829392   109A      0.831631   110A      0.842022  
     111A      0.844278   112A      0.846754   113A      0.854717  
     114A      0.862321   115A      0.868250   116A      0.872977  
     117A      0.883206   118A      0.889646   119A      0.892694  
     120A      0.894965   121A      0.903922   122A      0.914454  
     123A      0.920558   124A      0.926407   125A      0.928518  
     126A      0.933551   127A      0.945880   128A      0.948942  
     129A      0.957120   130A      0.961259   131A      0.969328  
     132A      0.975354   133A      0.980360   134A      0.996234  
     135A      1.000931   136A      1.007458   137A      1.013270  
     138A      1.016109   139A      1.023272   140A      1.025232  
     141A      1.038029   142A      1.051933   143A      1.060215  
     144A      1.061596   145A      1.068500   146A      1.074779  
     147A      1.084956   148A      1.094793   149A      1.106232  
     150A      1.113628   151A      1.115877   152A      1.127391  
     153A      1.133607   154A      1.137298   155A      1.147806  
     156A      1.164785   157A      1.171673   158A      1.183522  
     159A      1.193117   160A      1.203180   161A      1.206406  
     162A      1.210603   163A      1.233433   164A      1.245603  
     165A      1.245844   166A      1.252764   167A      1.266599  
     168A      1.274085   169A      1.288685   170A      1.299233  
     171A      1.305884   172A      1.315056   173A      1.339686  
     174A      1.346418   175A      1.355155   176A      1.365808  
     177A      1.369218   178A      1.379027   179A      1.392053  
     180A      1.404513   181A      1.425499   182A      1.430749  
     183A      1.444719   184A      1.450997   185A      1.460340  
     186A      1.469197   187A      1.483063   188A      1.493557  
     189A      1.507206   190A      1.520791   191A      1.529519  
     192A      1.540487   193A      1.558569   194A      1.572313  
     195A      1.589693   196A      1.610001   197A      1.616312  
     198A      1.634604   199A      1.649726   200A      1.671105  
     201A      1.681526   202A      1.687543   203A      1.691697  
     204A      1.711695   205A      1.717579   206A      1.734477  
     207A      1.739043   208A      1.748926   209A      1.771001  
     210A      1.775255   211A      1.785053   212A      1.791153  
     213A      1.805835   214A      1.815355   215A      1.831289  
     216A      1.839207   217A      1.854063   218A      1.864901  
     219A      1.869724   220A      1.873468   221A      1.897065  
     222A      1.916004   223A      1.924754   224A      1.937396  
     225A      1.945199   226A      1.959051   227A      1.972117  
     228A      1.990517   229A      2.003651   230A      2.022972  
     231A      2.044624   232A      2.062854   233A      2.074119  
     234A      2.112994   235A      2.123339   236A      2.134793  
     237A      2.138091   238A      2.222593   239A      2.344264  
     240A      2.413385   241A      2.448666   242A      2.464607  
     243A      2.469798   244A      2.483874   245A      2.486295  
     246A      2.490043   247A      2.508191   248A      2.517894  
     249A      2.521358   250A      2.534566   251A      2.545366  
     252A      2.567946   253A      2.571076   254A      2.585832  
     255A      2.597602   256A      2.605769   257A      2.616225  
     258A      2.629400   259A      2.643014   260A      2.648962  
     261A      2.654564   262A      2.667890   263A      2.681359  
     264A      2.684826   265A      2.693756   266A      2.716112  
     267A      2.722552   268A      2.742753   269A      2.746732  
     270A      2.754326   271A      2.762108   272A      2.770663  
     273A      2.779839   274A      2.802998   275A      2.818738  
     276A      2.830681   277A      2.847184   278A      2.864492  
     279A      2.909925   280A      2.928842   281A      2.949446  
     282A      2.966045   283A      2.986699   284A      2.998958  
     285A      3.015340   286A      3.030378   287A      3.107956  
     288A      3.162498   289A      3.187417   290A      3.196428  
     291A      3.201362   292A      3.219065   293A      3.223898  
     294A      3.224983   295A      3.240804   296A      3.251481  
     297A      3.262258   298A      3.267150   299A      3.276728  
     300A      3.301658   301A      3.326545   302A      3.343357  
     303A      3.376023   304A      3.390452   305A      3.408667  
     306A      3.411250   307A      3.420426   308A      3.433499  
     309A      3.450050   310A      3.455454   311A      3.491287  
     312A      3.500527   313A      3.530400   314A      3.552387  
     315A      3.567014   316A      3.580713   317A      3.596813  
     318A      3.611712   319A      3.630122   320A      3.657341  
     321A      3.667589   322A      3.694639   323A      3.711836  
     324A      3.719935   325A      3.757489   326A      3.780254  
     327A      3.800869   328A      3.819187   329A      3.843117  
     330A      3.898995   331A      3.944625   332A      4.034384  
     333A      4.122322   334A      4.128531   335A      4.297549  
     336A      4.310720   337A      4.345969   338A      4.374088  
     339A      4.398866   340A      4.407700   341A      4.434096  
     342A      4.447600   343A      4.456065   344A      4.463691  
     345A      4.473728   346A      4.493219   347A      4.507217  
     348A      4.519624   349A      4.531033   350A      4.546097  
     351A      4.555850   352A      4.575232   353A      4.595870  
     354A      4.616720   355A      4.632723   356A      4.641751  
     357A      4.664920   358A      4.676838   359A      4.702949  
     360A      4.722277   361A      4.732497   362A      4.756394  
     363A      4.778512   364A      4.813925   365A      4.835128  
     366A      4.851391   367A      4.863839   368A      4.883376  
     369A      4.894217   370A      4.912818   371A      4.918084  
     372A      4.941760   373A      4.946703   374A      4.965378  
     375A      4.991313   376A      5.012354   377A      5.063971  
     378A      5.087116   379A      5.099700   380A      5.191326  
     381A      5.211158   382A      5.216443   383A      5.233378  
     384A      5.236494   385A      5.256691   386A      5.296335  
     387A      5.426054   388A      5.444382   389A      5.465696  
     390A      5.496522   391A      5.527288   392A      5.535190  
     393A      5.541523   394A      5.578322   395A      5.589956  
     396A      5.611237   397A      5.616469   398A      5.644628  
     399A      5.653379   400A      5.701979   401A      5.736926  
     402A      5.779234   403A      5.842504   404A      5.855143  
     405A      5.891237   406A      5.916525   407A      6.140956  
     408A      6.149922   409A      6.156806   410A      6.169906  
     411A      6.217374   412A      6.343196   413A      6.428895  
     414A      6.475230   415A      6.523985   416A      6.615772  
     417A      6.638030   418A      6.650439   419A      6.659773  
     420A      6.775195   421A      6.828465   422A      6.920625  
     423A      7.026806   424A      7.068728   425A      7.101878  
     426A      7.158416   427A      7.216619   428A      7.324549  
     429A      7.342441   430A      7.376088   431A      7.495909  
     432A      7.544786   433A      7.711929   434A      7.734425  
     435A      7.737564   436A      7.760702   437A      7.804692  
     438A      7.831355   439A      7.838198   440A      7.860555  
     441A      7.887621   442A      7.934939   443A      8.059612  
     444A      8.065648   445A      8.109513   446A      8.129816  
     447A      8.183532   448A      8.209156   449A      8.236526  
     450A      8.240978   451A      8.243869   452A      8.264377  
     453A      8.288615   454A      8.309261   455A      8.320927  
     456A      8.690007   457A      8.747262   458A      8.800003  
     459A      8.829552   460A      8.855231   461A      8.876390  
     462A      8.890013   463A      8.907709   464A      9.065408  
     465A      9.709003   466A      9.722536   467A      9.732859  
     468A      9.745656   469A      9.849533   470A      9.885609  
     471A      9.907613   472A      9.917660   473A     10.055694  
     474A     10.064763   475A     10.075242   476A     10.098431  
     477A     10.279102   478A     10.292682   479A     10.306745  
     480A     10.326939   481A     11.072269   482A     11.111867  
     483A     11.159805   484A     11.187623   485A     11.270407  
     486A     11.689034   487A     11.736466   488A     11.768775  
     489A     11.814768   490A     11.966837   491A     12.046076  
     492A     12.148988   493A     12.316089   494A     13.455604  
     495A     13.549976   496A     13.657081   497A     13.728251  
     498A     13.863924   499A     13.882718   500A     13.939849  
     501A     13.945428   502A     13.955639   503A     14.077535  
     504A     14.241700   505A     17.050943   506A     26.346392  
     507A     26.402873   508A     26.436979   509A     26.593365  
     510A     26.740601   511A     46.575621   512A     65.227401  
     513A     65.309129   514A     65.645052   515A     67.353258  
     516A    139.116881   517A    139.298743   518A    139.538571  
     519A    711.963521  

    Final Occupation by Irrep:
              A 
    DOCC [     5 ]
    NA   [     5 ]
    NB   [     5 ]

  @DF-RHF Final Energy:   -76.05972312996995

   => Energetics <=

    Nuclear Repulsion Energy =              9.1784334299274093
    One-Electron Energy =                -123.0319734920718986
    Two-Electron Energy =                  37.7938169321745292
    Total Energy =                        -76.0597231299699672

Computation Completed


Properties will be evaluated at   0.000000,   0.000000,   0.000000 [a0]

Properties computed using the SCF density matrix


 Multipole Moments:

 ------------------------------------------------------------------------------------
     Multipole            Electronic (a.u.)      Nuclear  (a.u.)        Total (a.u.)
 ------------------------------------------------------------------------------------

 L = 1.  Multiply by 2.5417464519 to convert [e a0] to [Debye]
 Dipole X            :         24.3516618          -24.6618179           -0.3101561
 Dipole Y            :         37.0304647          -36.8949562            0.1355085
 Dipole Z            :         43.2924754          -42.6456384            0.6468370
 Magnitude           :                                                    0.7300394

 ------------------------------------------------------------------------------------

*** tstop() called on ddmfs1 at Mon Jan 22 22:52:59 2024
Module time:
	user time   =     103.49 seconds =       1.72 minutes
	system time =       6.96 seconds =       0.12 minutes
	total time  =          8 seconds =       0.13 minutes
Total time:
	user time   =     103.49 seconds =       1.72 minutes
	system time =       6.96 seconds =       0.12 minutes
	total time  =          8 seconds =       0.13 minutes

*** tstart() called on ddmfs1
*** at Mon Jan 22 22:52:59 2024


  //>>>>>>>>>>>>>>>>>>>>>>>>>>>>>>>>>>>//
  //               DFMP2               //
  //<<<<<<<<<<<<<<<<<<<<<<<<<<<<<<<<<<<//

   => Loading Basis Set <=

    Name: (AUG-CC-PVTZ AUX)
    Role: RIFIT
    Keyword: DF_BASIS_MP2
    atoms 1                            entry BR         line  1248 file /ddmfs1b/softs/psi4conda/share/psi4/basis/aug-cc-pvtz-ri.gbs 
    atoms 2, 5, 8, 11, 14              entry O          line   264 file /ddmfs1b/softs/psi4conda/share/psi4/basis/aug-cc-pvtz-ri.gbs 
    atoms 3-4, 6-7, 9-10, 12-13, 15-16 entry H          line    30 file /ddmfs1b/softs/psi4conda/share/psi4/basis/aug-cc-pvtz-ri.gbs 

	 --------------------------------------------------------
	                          DF-MP2                         
	      2nd-Order Density-Fitted Moller-Plesset Theory     
	              RMP2 Wavefunction,  20 Threads             
	                                                         
	        Rob Parrish, Justin Turney, Andy Simmonett,      
	           Ed Hohenstein, and C. David Sherrill          
	 --------------------------------------------------------

   => Auxiliary Basis Set <=

  Basis Set: (AUG-CC-PVTZ AUX)
    Blend: AUG-CC-PVTZ-RI
    Number of shells: 323
    Number of basis functions: 1181
    Number of Cartesian functions: 1491
    Spherical Harmonics?: true
    Max angular momentum: 5

	 --------------------------------------------------------
	                 NBF =   519, NAUX =  1181
	 --------------------------------------------------------
	   CLASS    FOCC     OCC    AOCC    AVIR     VIR    FVIR
	   PAIRS       0       5       5     514     514       0
	 --------------------------------------------------------

	-----------------------------------------------------------
	 ==================> DF-MP2 Energies <==================== 
	-----------------------------------------------------------
	 Reference Energy          =     -76.0597231299699530 [Eh]
	 Singles Energy            =      -0.0000000000000000 [Eh]
	 Same-Spin Energy          =      -0.0683243205961393 [Eh]
	 Opposite-Spin Energy      =      -0.2156973188531917 [Eh]
	 Correlation Energy        =      -0.2840216394493310 [Eh]
	 Total Energy              =     -76.3437447694192883 [Eh]
	-----------------------------------------------------------
	 ================> DF-SCS-MP2 Energies <================== 
	-----------------------------------------------------------
	 SCS Same-Spin Scale       =       0.3333333333333333 [-]
	 SCS Opposite-Spin Scale   =       1.2000000000000000 [-]
	 SCS Same-Spin Energy      =      -0.0227747735320464 [Eh]
	 SCS Opposite-Spin Energy  =      -0.2588367826238300 [Eh]
	 SCS Correlation Energy    =      -0.2816115561558765 [Eh]
	 SCS Total Energy          =     -76.3413346861258333 [Eh]
	-----------------------------------------------------------


*** tstop() called on ddmfs1 at Mon Jan 22 22:53:10 2024
Module time:
	user time   =      34.13 seconds =       0.57 minutes
	system time =       2.46 seconds =       0.04 minutes
	total time  =         11 seconds =       0.18 minutes
Total time:
	user time   =     137.63 seconds =       2.29 minutes
	system time =       9.42 seconds =       0.16 minutes
	total time  =         19 seconds =       0.32 minutes

    Psi4 stopped on: Monday, 22 January 2024 10:53PM
    Psi4 wall time for execution: 0:00:19.76

*** Psi4 exiting successfully. Buy a developer a beer!
