
    -----------------------------------------------------------------------
          Psi4: An Open-Source Ab Initio Electronic Structure Package
                               Psi4 1.8.2 release

                         Git: Rev {} zzzzzzz 


    D. G. A. Smith, L. A. Burns, A. C. Simmonett, R. M. Parrish,
    M. C. Schieber, R. Galvelis, P. Kraus, H. Kruse, R. Di Remigio,
    A. Alenaizan, A. M. James, S. Lehtola, J. P. Misiewicz, M. Scheurer,
    R. A. Shaw, J. B. Schriber, Y. Xie, Z. L. Glick, D. A. Sirianni,
    J. S. O'Brien, J. M. Waldrop, A. Kumar, E. G. Hohenstein,
    B. P. Pritchard, B. R. Brooks, H. F. Schaefer III, A. Yu. Sokolov,
    K. Patkowski, A. E. DePrince III, U. Bozkaya, R. A. King,
    F. A. Evangelista, J. M. Turney, T. D. Crawford, C. D. Sherrill,
    J. Chem. Phys. 152(18) 184108 (2020). https://doi.org/10.1063/5.0006002

                            Additional Code Authors
    E. T. Seidl, C. L. Janssen, E. F. Valeev, M. L. Leininger,
    J. F. Gonthier, R. M. Richard, H. R. McAlexander, M. Saitow, X. Wang,
    P. Verma, M. H. Lechner, A. Jiang, S. Behnle, A. G. Heide,
    M. F. Herbst, and D. L. Poole

             Previous Authors, Complete List of Code Contributors,
                       and Citations for Specific Modules
    https://github.com/psi4/psi4/blob/master/codemeta.json
    https://github.com/psi4/psi4/graphs/contributors
    http://psicode.org/psi4manual/master/introduction.html#citing-psifour

    -----------------------------------------------------------------------


    Psi4 started on: Monday, 22 January 2024 11:50PM

    Process ID: 118456
    Host:       ddmfs1
    PSIDATADIR: /ddmfs1b/softs/psi4conda/share/psi4
    Memory:     500.0 MiB
    Threads:    20
    
  ==> Input File <==

--------------------------------------------------------------------------
MEMORY 60 GB

molecule dimer {
-1 1
Br         0.000000     0.000000     0.000000
O         -2.114396    -0.823968    -2.451740
H         -1.344934    -0.815549    -1.892709
H         -2.578301    -1.686826    -2.349784
O         -2.840106    -0.818403     1.694288
H         -2.923211    -1.709126     1.352216
H         -1.976154    -0.530056     1.405183
O          0.359761    -1.678973     2.757291
H          0.155656    -1.071042     3.436648
H          0.309349    -1.206416     1.893897
O         -0.002582    -3.436636     0.122679
H         -0.128662    -2.474547     0.122748
H          0.840782    -3.640659    -0.311875
O          3.119434    -1.374833    -0.676470
H          2.298457    -1.110581    -0.190519
H          3.320939    -2.236567    -0.244513

units ang
no_reorient
no_com
symmetry c1
}

set {
basis        aug-cc-pVTZ
scf_type     df
}

energy("mp2")
--------------------------------------------------------------------------

  Memory set to  55.879 GiB by Python driver.

Scratch directory: /ddmfs1a/scratch/
   => Libint2 <=

    Primary   basis highest AM E, G, H:  5, 4, 3
    Auxiliary basis highest AM E, G, H:  6, 5, 4
    Onebody   basis highest AM E, G, H:  6, 5, 4
    Solid Harmonics ordering:            gaussian

*** tstart() called on ddmfs1
*** at Mon Jan 22 23:50:32 2024

   => Loading Basis Set <=

    Name: AUG-CC-PVTZ
    Role: ORBITAL
    Keyword: BASIS
    atoms 1                            entry BR         line  4208 file /ddmfs1b/softs/psi4conda/share/psi4/basis/aug-cc-pvtz.gbs 
    atoms 2, 5, 8, 11, 14              entry O          line   331 file /ddmfs1b/softs/psi4conda/share/psi4/basis/aug-cc-pvtz.gbs 
    atoms 3-4, 6-7, 9-10, 12-13, 15-16 entry H          line    40 file /ddmfs1b/softs/psi4conda/share/psi4/basis/aug-cc-pvtz.gbs 


         ---------------------------------------------------------
                                   SCF
               by Justin Turney, Rob Parrish, Andy Simmonett
                          and Daniel G. A. Smith
                              RHF Reference
                       20 Threads,  57220 MiB Core
         ---------------------------------------------------------

  ==> Geometry <==

    Molecular point group: c1
    Full point group: C1

    Geometry (in Angstrom), charge = -1, multiplicity = 1:

       Center              X                  Y                   Z               Mass       
    ------------   -----------------  -----------------  -----------------  -----------------
         BR           0.000000000000     0.000000000000     0.000000000000    78.918337600000
         O           -2.114396000000    -0.823968000000    -2.451740000000    15.994914619570
         H           -1.344934000000    -0.815549000000    -1.892709000000     1.007825032230
         H           -2.578301000000    -1.686826000000    -2.349784000000     1.007825032230
         O           -2.840106000000    -0.818403000000     1.694288000000    15.994914619570
         H           -2.923211000000    -1.709126000000     1.352216000000     1.007825032230
         H           -1.976154000000    -0.530056000000     1.405183000000     1.007825032230
         O            0.359761000000    -1.678973000000     2.757291000000    15.994914619570
         H            0.155656000000    -1.071042000000     3.436648000000     1.007825032230
         H            0.309349000000    -1.206416000000     1.893897000000     1.007825032230
         O           -0.002582000000    -3.436636000000     0.122679000000    15.994914619570
         H           -0.128662000000    -2.474547000000     0.122748000000     1.007825032230
         H            0.840782000000    -3.640659000000    -0.311875000000     1.007825032230
         O            3.119434000000    -1.374833000000    -0.676470000000    15.994914619570
         H            2.298457000000    -1.110581000000    -0.190519000000     1.007825032230
         H            3.320939000000    -2.236567000000    -0.244513000000     1.007825032230

  Running in c1 symmetry.

  Rotational constants: A =      0.02727  B =      0.02597  C =      0.02195 [cm^-1]
  Rotational constants: A =    817.57403  B =    778.54726  C =    658.17024 [MHz]
  Nuclear repulsion =  452.314509774335647

  Charge       = -1
  Multiplicity = 1
  Electrons    = 86
  Nalpha       = 43
  Nbeta        = 43

  ==> Algorithm <==

  SCF Algorithm Type is DF.
  DIIS enabled.
  MOM disabled.
  Fractional occupation disabled.
  Guess Type is SAD.
  Energy threshold   = 1.00e-08
  Density threshold  = 1.00e-08
  Integral threshold = 1.00e-12

  ==> Primary Basis <==

  Basis Set: AUG-CC-PVTZ
    Blend: AUG-CC-PVTZ
    Number of shells: 179
    Number of basis functions: 519
    Number of Cartesian functions: 594
    Spherical Harmonics?: true
    Max angular momentum: 3

   => Loading Basis Set <=

    Name: (AUG-CC-PVTZ AUX)
    Role: JKFIT
    Keyword: DF_BASIS_SCF
    atoms 1                            entry BR         line  1492 file /ddmfs1b/softs/psi4conda/share/psi4/basis/aug-cc-pvtz-jkfit.gbs 
    atoms 2, 5, 8, 11, 14              entry O          line   286 file /ddmfs1b/softs/psi4conda/share/psi4/basis/aug-cc-pvtz-jkfit.gbs 
    atoms 3-4, 6-7, 9-10, 12-13, 15-16 entry H          line    70 file /ddmfs1b/softs/psi4conda/share/psi4/basis/aug-cc-pvtz-jkfit.gbs 

  ==> Integral Setup <==

  DFHelper Memory: AOs need 2.311 GiB; user supplied 41.910 GiB. 
  Using in-core AOs.

  ==> MemDFJK: Density-Fitted J/K Matrices <==

    J tasked:                   Yes
    K tasked:                   Yes
    wK tasked:                   No
    OpenMP threads:              20
    Memory [MiB]:             42915
    Algorithm:                 Core
    Schwarz Cutoff:           1E-12
    Mask sparsity (%):      10.4967
    Fitting Condition:        1E-10

   => Auxiliary Basis Set <=

  Basis Set: (AUG-CC-PVTZ AUX)
    Blend: AUG-CC-PVTZ-JKFIT
    Number of shells: 348
    Number of basis functions: 1228
    Number of Cartesian functions: 1534
    Spherical Harmonics?: true
    Max angular momentum: 4

  Minimum eigenvalue in the overlap matrix is 1.2549253738E-04.
  Reciprocal condition number of the overlap matrix is 9.1864936154E-06.
    Using symmetric orthogonalization.

  ==> Pre-Iterations <==

  SCF Guess: Superposition of Atomic Densities via on-the-fly atomic UHF (no occupation information).

   -------------------------
    Irrep   Nso     Nmo    
   -------------------------
     A        519     519 
   -------------------------
    Total     519     519
   -------------------------

  ==> Iterations <==

                           Total Energy        Delta E     RMS |[F,P]|

   @DF-RHF iter SAD: -2948.16443728212471   -2.94816e+03   0.00000e+00 
   @DF-RHF iter   1: -2952.26630750017830   -4.10187e+00   2.80990e-03 DIIS/ADIIS
   @DF-RHF iter   2: -2952.68246340631867   -4.16156e-01   1.66673e-03 DIIS/ADIIS
   @DF-RHF iter   3: -2952.87319865905374   -1.90735e-01   1.37116e-04 DIIS/ADIIS
   @DF-RHF iter   4: -2952.87570432296616   -2.50566e-03   6.42113e-05 DIIS
   @DF-RHF iter   5: -2952.87619790700910   -4.93584e-04   9.44680e-06 DIIS
   @DF-RHF iter   6: -2952.87622725251595   -2.93455e-05   2.60663e-06 DIIS
   @DF-RHF iter   7: -2952.87622952966103   -2.27715e-06   1.08111e-06 DIIS
   @DF-RHF iter   8: -2952.87622977292085   -2.43260e-07   3.45033e-07 DIIS
   @DF-RHF iter   9: -2952.87622980591732   -3.29965e-08   6.06035e-08 DIIS
   @DF-RHF iter  10: -2952.87622980712513   -1.20781e-09   1.65854e-08 DIIS
   @DF-RHF iter  11: -2952.87622980718970   -6.45741e-11   5.54806e-09 DIIS
  Energy and wave function converged.


  ==> Post-Iterations <==

    Orbital Energies [Eh]
    ---------------------

    Doubly Occupied:                                                      

       1A   -489.801825     2A    -64.942397     3A    -58.296893  
       4A    -58.296864     5A    -58.296846     6A    -20.441672  
       7A    -20.428978     8A    -20.422676     9A    -20.417072  
      10A    -20.410804    11A     -9.614823    12A     -7.222469  
      13A     -7.222283    14A     -7.222184    15A     -2.964078  
      16A     -2.964026    17A     -2.963899    18A     -2.963688  
      19A     -2.963666    20A     -1.211600    21A     -1.209440  
      22A     -1.207182    23A     -1.203332    24A     -1.200912  
      25A     -0.784445    26A     -0.588742    27A     -0.580310  
      28A     -0.574417    29A     -0.572238    30A     -0.565189  
      31A     -0.460356    32A     -0.443863    33A     -0.442860  
      34A     -0.435685    35A     -0.432247    36A     -0.379757  
      37A     -0.373616    38A     -0.369361    39A     -0.366089  
      40A     -0.355462    41A     -0.230992    42A     -0.228825  
      43A     -0.228137  

    Virtual:                                                              

      44A      0.115624    45A      0.125029    46A      0.127467  
      47A      0.142030    48A      0.145342    49A      0.161147  
      50A      0.164427    51A      0.176107    52A      0.185575  
      53A      0.190412    54A      0.218696    55A      0.239961  
      56A      0.242777    57A      0.256042    58A      0.258881  
      59A      0.264531    60A      0.273744    61A      0.278684  
      62A      0.289037    63A      0.289391    64A      0.290420  
      65A      0.299885    66A      0.306806    67A      0.312328  
      68A      0.320114    69A      0.328599    70A      0.332123  
      71A      0.334882    72A      0.342604    73A      0.352305  
      74A      0.358124    75A      0.358776    76A      0.364445  
      77A      0.366997    78A      0.375254    79A      0.389916  
      80A      0.391850    81A      0.412027    82A      0.418942  
      83A      0.423181    84A      0.425525    85A      0.440155  
      86A      0.443266    87A      0.449466    88A      0.462388  
      89A      0.467641    90A      0.473134    91A      0.475999  
      92A      0.488962    93A      0.492597    94A      0.505763  
      95A      0.511031    96A      0.515849    97A      0.524270  
      98A      0.534285    99A      0.541465   100A      0.551885  
     101A      0.556688   102A      0.567085   103A      0.571978  
     104A      0.582919   105A      0.594922   106A      0.596238  
     107A      0.604429   108A      0.610778   109A      0.614163  
     110A      0.615019   111A      0.623493   112A      0.640948  
     113A      0.647693   114A      0.665755   115A      0.680125  
     116A      0.688397   117A      0.705271   118A      0.715390  
     119A      0.726341   120A      0.735365   121A      0.743864  
     122A      0.770747   123A      0.778299   124A      0.791157  
     125A      0.800656   126A      0.806587   127A      0.816442  
     128A      0.825845   129A      0.834585   130A      0.840067  
     131A      0.852472   132A      0.857313   133A      0.861416  
     134A      0.864291   135A      0.871720   136A      0.878096  
     137A      0.890495   138A      0.892488   139A      0.899846  
     140A      0.904959   141A      0.913226   142A      0.919638  
     143A      0.924439   144A      0.936687   145A      0.941928  
     146A      0.945593   147A      0.955623   148A      0.962348  
     149A      0.964732   150A      0.983683   151A      0.984261  
     152A      0.989927   153A      1.004898   154A      1.009250  
     155A      1.016184   156A      1.023597   157A      1.026923  
     158A      1.034475   159A      1.044462   160A      1.051232  
     161A      1.064254   162A      1.077852   163A      1.081289  
     164A      1.083977   165A      1.086110   166A      1.095747  
     167A      1.107808   168A      1.108997   169A      1.116181  
     170A      1.121515   171A      1.130913   172A      1.142823  
     173A      1.151741   174A      1.154202   175A      1.157077  
     176A      1.165776   177A      1.166381   178A      1.179586  
     179A      1.184030   180A      1.187353   181A      1.196577  
     182A      1.201795   183A      1.207352   184A      1.211402  
     185A      1.226970   186A      1.238109   187A      1.240227  
     188A      1.246285   189A      1.255901   190A      1.263795  
     191A      1.270396   192A      1.283529   193A      1.296080  
     194A      1.308515   195A      1.315829   196A      1.321556  
     197A      1.327855   198A      1.342465   199A      1.347882  
     200A      1.361187   201A      1.373956   202A      1.378440  
     203A      1.389556   204A      1.393129   205A      1.396115  
     206A      1.410148   207A      1.412704   208A      1.433232  
     209A      1.448047   210A      1.459203   211A      1.464402  
     212A      1.477272   213A      1.480488   214A      1.490455  
     215A      1.511214   216A      1.516433   217A      1.530011  
     218A      1.542563   219A      1.550239   220A      1.565983  
     221A      1.579879   222A      1.588548   223A      1.603359  
     224A      1.614788   225A      1.618343   226A      1.655429  
     227A      1.662012   228A      1.670629   229A      1.671552  
     230A      1.678367   231A      1.698196   232A      1.708922  
     233A      1.723551   234A      1.725272   235A      1.736072  
     236A      1.741891   237A      1.760273   238A      1.767906  
     239A      1.774743   240A      1.780812   241A      1.791925  
     242A      1.820860   243A      1.826808   244A      1.850623  
     245A      1.854265   246A      1.870328   247A      1.894818  
     248A      1.912245   249A      1.937226   250A      1.950388  
     251A      1.962077   252A      1.972333   253A      1.983473  
     254A      2.012349   255A      2.035825   256A      2.043845  
     257A      2.062488   258A      2.081843   259A      2.093100  
     260A      2.107696   261A      2.127207   262A      2.131139  
     263A      2.164243   264A      2.178183   265A      2.188581  
     266A      2.218700   267A      2.252364   268A      2.265265  
     269A      2.421002   270A      2.432167   271A      2.443100  
     272A      2.453838   273A      2.457018   274A      2.472616  
     275A      2.482742   276A      2.484969   277A      2.501627  
     278A      2.511252   279A      2.522411   280A      2.524505  
     281A      2.546060   282A      2.551990   283A      2.566987  
     284A      2.571922   285A      2.575349   286A      2.590482  
     287A      2.598467   288A      2.600623   289A      2.607900  
     290A      2.614474   291A      2.626055   292A      2.638288  
     293A      2.648432   294A      2.659854   295A      2.662854  
     296A      2.672836   297A      2.674515   298A      2.683801  
     299A      2.698225   300A      2.713350   301A      2.724807  
     302A      2.734928   303A      2.743368   304A      2.748027  
     305A      2.763696   306A      2.774275   307A      2.780224  
     308A      2.795700   309A      2.815535   310A      2.826087  
     311A      2.833428   312A      2.850192   313A      2.870801  
     314A      2.887234   315A      2.894716   316A      2.901572  
     317A      2.907132   318A      2.914657   319A      2.922736  
     320A      2.936859   321A      2.950282   322A      2.958248  
     323A      2.965318   324A      2.975497   325A      2.983310  
     326A      2.987572   327A      3.013363   328A      3.025658  
     329A      3.050123   330A      3.057804   331A      3.062729  
     332A      3.080298   333A      3.087128   334A      3.100839  
     335A      3.123537   336A      3.140758   337A      3.163226  
     338A      3.175976   339A      3.202587   340A      3.209494  
     341A      3.232336   342A      3.236403   343A      3.281296  
     344A      3.286108   345A      3.309549   346A      3.316847  
     347A      3.362671   348A      3.399556   349A      3.834514  
     350A      3.854380   351A      3.917546   352A      3.954792  
     353A      4.000208   354A      4.004841   355A      4.068023  
     356A      4.119862   357A      4.151023   358A      4.186382  
     359A      4.197774   360A      4.232573   361A      4.263955  
     362A      4.283380   363A      4.312185   364A      4.324410  
     365A      4.375159   366A      4.379512   367A      4.384396  
     368A      4.397568   369A      4.403775   370A      4.420289  
     371A      4.428073   372A      4.440549   373A      4.451097  
     374A      4.455498   375A      4.462199   376A      4.467292  
     377A      4.489608   378A      4.503899   379A      4.510237  
     380A      4.517709   381A      4.526980   382A      4.529024  
     383A      4.549250   384A      4.557601   385A      4.560576  
     386A      4.565986   387A      4.586469   388A      4.604798  
     389A      4.608815   390A      4.613317   391A      4.625920  
     392A      4.650098   393A      4.660197   394A      4.671861  
     395A      4.685441   396A      4.714736   397A      4.721590  
     398A      4.724335   399A      4.764643   400A      4.786088  
     401A      4.808985   402A      4.821502   403A      4.850687  
     404A      4.888617   405A      4.913379   406A      4.947021  
     407A      4.965335   408A      4.976055   409A      5.039357  
     410A      5.056403   411A      5.076555   412A      5.127166  
     413A      5.160657   414A      5.231168   415A      5.270531  
     416A      5.286402   417A      5.301937   418A      5.311876  
     419A      5.325906   420A      5.343653   421A      5.349229  
     422A      5.361310   423A      5.386098   424A      5.418871  
     425A      5.427609   426A      5.486265   427A      5.497895  
     428A      5.513403   429A      5.528087   430A      5.537756  
     431A      5.550547   432A      5.588273   433A      5.602397  
     434A      5.609499   435A      5.648825   436A      5.692502  
     437A      5.730991   438A      5.733475   439A      5.766430  
     440A      5.903374   441A      5.913584   442A      5.951691  
     443A      5.999863   444A      6.166828   445A      6.315391  
     446A      6.373107   447A      6.402808   448A      6.417527  
     449A      6.438017   450A      6.675343   451A      6.710049  
     452A      6.718055   453A      6.761747   454A      6.770582  
     455A      6.911552   456A      6.927590   457A      6.947188  
     458A      6.969620   459A      6.987197   460A      7.040110  
     461A      7.070744   462A      7.097706   463A      7.103227  
     464A      7.122787   465A      7.258301   466A      7.299215  
     467A      7.322473   468A      7.329463   469A      7.345183  
     470A      7.376128   471A      7.402292   472A      7.406921  
     473A      7.434401   474A      7.441393   475A      7.466275  
     476A      7.475473   477A      7.476768   478A      7.482811  
     479A      7.495471   480A      7.507558   481A      7.511048  
     482A      7.531179   483A      7.538966   484A      7.552709  
     485A      7.567065   486A      7.568539   487A      7.578098  
     488A      7.589928   489A      7.609984   490A      7.620041  
     491A      7.633346   492A      7.653068   493A      7.665152  
     494A      7.703125   495A      7.755542   496A      7.844781  
     497A      7.912193   498A      7.952972   499A      8.002702  
     500A      8.047437   501A      8.057716   502A      8.072701  
     503A      8.097390   504A      8.111751   505A      8.149557  
     506A      8.165833   507A      8.171147   508A      8.181687  
     509A      8.238227   510A      8.847389   511A      8.892810  
     512A      8.910514   513A      9.004040   514A      9.011327  
     515A     15.593058   516A     16.331537   517A     16.623417  
     518A     16.997330   519A     17.163432  

    Final Occupation by Irrep:
              A 
    DOCC [    43 ]
    NA   [    43 ]
    NB   [    43 ]

  @DF-RHF Final Energy: -2952.87622980718970

   => Energetics <=

    Nuclear Repulsion Energy =            452.3145097743356473
    One-Electron Energy =               -5025.7770695395129223
    Two-Electron Energy =                1620.5863299579882550
    Total Energy =                      -2952.8762298071892474

Computation Completed


Properties will be evaluated at   0.000000,   0.000000,   0.000000 [a0]

Properties computed using the SCF density matrix


 Multipole Moments:

 ------------------------------------------------------------------------------------
     Multipole            Electronic (a.u.)      Nuclear  (a.u.)        Total (a.u.)
 ------------------------------------------------------------------------------------

 L = 1.  Multiply by 2.5417464519 to convert [e a0] to [Debye]
 Dipole X            :         26.8828781          -26.1711780            0.7117001
 Dipole Y            :        154.9195490         -154.0955872            0.8239618
 Dipole Z            :        -28.0043573           27.9484371           -0.0559202
 Magnitude           :                                                    1.0902096

 ------------------------------------------------------------------------------------

*** tstop() called on ddmfs1 at Mon Jan 22 23:50:45 2024
Module time:
	user time   =     181.83 seconds =       3.03 minutes
	system time =      14.02 seconds =       0.23 minutes
	total time  =         13 seconds =       0.22 minutes
Total time:
	user time   =     181.83 seconds =       3.03 minutes
	system time =      14.02 seconds =       0.23 minutes
	total time  =         13 seconds =       0.22 minutes

*** tstart() called on ddmfs1
*** at Mon Jan 22 23:50:45 2024


  //>>>>>>>>>>>>>>>>>>>>>>>>>>>>>>>>>>>//
  //               DFMP2               //
  //<<<<<<<<<<<<<<<<<<<<<<<<<<<<<<<<<<<//

   => Loading Basis Set <=

    Name: (AUG-CC-PVTZ AUX)
    Role: RIFIT
    Keyword: DF_BASIS_MP2
    atoms 1                            entry BR         line  1248 file /ddmfs1b/softs/psi4conda/share/psi4/basis/aug-cc-pvtz-ri.gbs 
    atoms 2, 5, 8, 11, 14              entry O          line   264 file /ddmfs1b/softs/psi4conda/share/psi4/basis/aug-cc-pvtz-ri.gbs 
    atoms 3-4, 6-7, 9-10, 12-13, 15-16 entry H          line    30 file /ddmfs1b/softs/psi4conda/share/psi4/basis/aug-cc-pvtz-ri.gbs 

	 --------------------------------------------------------
	                          DF-MP2                         
	      2nd-Order Density-Fitted Moller-Plesset Theory     
	              RMP2 Wavefunction,  20 Threads             
	                                                         
	        Rob Parrish, Justin Turney, Andy Simmonett,      
	           Ed Hohenstein, and C. David Sherrill          
	 --------------------------------------------------------

   => Auxiliary Basis Set <=

  Basis Set: (AUG-CC-PVTZ AUX)
    Blend: AUG-CC-PVTZ-RI
    Number of shells: 323
    Number of basis functions: 1181
    Number of Cartesian functions: 1491
    Spherical Harmonics?: true
    Max angular momentum: 5

	 --------------------------------------------------------
	                 NBF =   519, NAUX =  1181
	 --------------------------------------------------------
	   CLASS    FOCC     OCC    AOCC    AVIR     VIR    FVIR
	   PAIRS       0      43      43     476     476       0
	 --------------------------------------------------------

	-----------------------------------------------------------
	 ==================> DF-MP2 Energies <==================== 
	-----------------------------------------------------------
	 Reference Energy          =   -2952.8762298071897021 [Eh]
	 Singles Energy            =      -0.0000000000000000 [Eh]
	 Same-Spin Energy          =      -0.4468195519617502 [Eh]
	 Opposite-Spin Energy      =      -1.3057631090421637 [Eh]
	 Correlation Energy        =      -1.7525826610039139 [Eh]
	 Total Energy              =   -2954.6288124681937006 [Eh]
	-----------------------------------------------------------
	 ================> DF-SCS-MP2 Energies <================== 
	-----------------------------------------------------------
	 SCS Same-Spin Scale       =       0.3333333333333333 [-]
	 SCS Opposite-Spin Scale   =       1.2000000000000000 [-]
	 SCS Same-Spin Energy      =      -0.1489398506539167 [Eh]
	 SCS Opposite-Spin Energy  =      -1.5669157308505965 [Eh]
	 SCS Correlation Energy    =      -1.7158555815045133 [Eh]
	 SCS Total Energy          =   -2954.5920853886941586 [Eh]
	-----------------------------------------------------------


*** tstop() called on ddmfs1 at Mon Jan 22 23:50:58 2024
Module time:
	user time   =      66.18 seconds =       1.10 minutes
	system time =       3.54 seconds =       0.06 minutes
	total time  =         13 seconds =       0.22 minutes
Total time:
	user time   =     248.03 seconds =       4.13 minutes
	system time =      17.56 seconds =       0.29 minutes
	total time  =         26 seconds =       0.43 minutes

    Psi4 stopped on: Monday, 22 January 2024 11:50PM
    Psi4 wall time for execution: 0:00:26.75

*** Psi4 exiting successfully. Buy a developer a beer!
