
    -----------------------------------------------------------------------
          Psi4: An Open-Source Ab Initio Electronic Structure Package
                               Psi4 1.8.2 release

                         Git: Rev {} zzzzzzz 


    D. G. A. Smith, L. A. Burns, A. C. Simmonett, R. M. Parrish,
    M. C. Schieber, R. Galvelis, P. Kraus, H. Kruse, R. Di Remigio,
    A. Alenaizan, A. M. James, S. Lehtola, J. P. Misiewicz, M. Scheurer,
    R. A. Shaw, J. B. Schriber, Y. Xie, Z. L. Glick, D. A. Sirianni,
    J. S. O'Brien, J. M. Waldrop, A. Kumar, E. G. Hohenstein,
    B. P. Pritchard, B. R. Brooks, H. F. Schaefer III, A. Yu. Sokolov,
    K. Patkowski, A. E. DePrince III, U. Bozkaya, R. A. King,
    F. A. Evangelista, J. M. Turney, T. D. Crawford, C. D. Sherrill,
    J. Chem. Phys. 152(18) 184108 (2020). https://doi.org/10.1063/5.0006002

                            Additional Code Authors
    E. T. Seidl, C. L. Janssen, E. F. Valeev, M. L. Leininger,
    J. F. Gonthier, R. M. Richard, H. R. McAlexander, M. Saitow, X. Wang,
    P. Verma, M. H. Lechner, A. Jiang, S. Behnle, A. G. Heide,
    M. F. Herbst, and D. L. Poole

             Previous Authors, Complete List of Code Contributors,
                       and Citations for Specific Modules
    https://github.com/psi4/psi4/blob/master/codemeta.json
    https://github.com/psi4/psi4/graphs/contributors
    http://psicode.org/psi4manual/master/introduction.html#citing-psifour

    -----------------------------------------------------------------------


    Psi4 started on: Monday, 22 January 2024 10:53PM

    Process ID: 114889
    Host:       ddmfs1
    PSIDATADIR: /ddmfs1b/softs/psi4conda/share/psi4
    Memory:     500.0 MiB
    Threads:    20
    
  ==> Input File <==

--------------------------------------------------------------------------
MEMORY 60 GB

molecule dimer {
0 1
Gh(Br)     0.000000     0.000000     0.000000
Gh(O)     -1.259613    -1.972372    -2.351696
Gh(H)     -0.860891    -1.435419    -1.661193
Gh(H)     -2.112677    -2.309575    -2.092339
O         -2.845407     1.529579    -0.341206
H         -3.404442     0.725851    -0.231895
H         -1.918137     1.227655    -0.418924
Gh(O)      1.203798     0.989340    -2.982723
Gh(H)      1.383848     1.404532    -2.151666
Gh(H)      0.917733     0.079877    -2.748949
Gh(O)     -1.942333    -2.300435     1.090951
Gh(H)     -1.277267    -1.678503     0.760063
Gh(H)     -1.677310    -3.142909     0.788314
Gh(O)      2.995159    -1.396829    -0.963849
Gh(H)      2.160999    -1.154144    -0.534338
Gh(H)      3.403321    -0.551585    -1.226511

units ang
no_reorient
no_com
symmetry c1
}

set {
basis        aug-cc-pVTZ
scf_type     df
}

energy("mp2")
--------------------------------------------------------------------------

  Memory set to  55.879 GiB by Python driver.

Scratch directory: /ddmfs1a/scratch/
   => Libint2 <=

    Primary   basis highest AM E, G, H:  5, 4, 3
    Auxiliary basis highest AM E, G, H:  6, 5, 4
    Onebody   basis highest AM E, G, H:  6, 5, 4
    Solid Harmonics ordering:            gaussian

*** tstart() called on ddmfs1
*** at Mon Jan 22 22:53:11 2024

   => Loading Basis Set <=

    Name: AUG-CC-PVTZ
    Role: ORBITAL
    Keyword: BASIS
    atoms 1                            entry BR         line  4208 file /ddmfs1b/softs/psi4conda/share/psi4/basis/aug-cc-pvtz.gbs 
    atoms 2, 5, 8, 11, 14              entry O          line   331 file /ddmfs1b/softs/psi4conda/share/psi4/basis/aug-cc-pvtz.gbs 
    atoms 3-4, 6-7, 9-10, 12-13, 15-16 entry H          line    40 file /ddmfs1b/softs/psi4conda/share/psi4/basis/aug-cc-pvtz.gbs 


         ---------------------------------------------------------
                                   SCF
               by Justin Turney, Rob Parrish, Andy Simmonett
                          and Daniel G. A. Smith
                              RHF Reference
                       20 Threads,  57220 MiB Core
         ---------------------------------------------------------

  ==> Geometry <==

    Molecular point group: c1
    Full point group: C1

    Geometry (in Angstrom), charge = 0, multiplicity = 1:

       Center              X                  Y                   Z               Mass       
    ------------   -----------------  -----------------  -----------------  -----------------
      Gh(BR)          0.000000000000     0.000000000000     0.000000000000    78.918337600000
      Gh(O)          -1.259613000000    -1.972372000000    -2.351696000000    15.994914619570
      Gh(H)          -0.860891000000    -1.435419000000    -1.661193000000     1.007825032230
      Gh(H)          -2.112677000000    -2.309575000000    -2.092339000000     1.007825032230
         O           -2.845407000000     1.529579000000    -0.341206000000    15.994914619570
         H           -3.404442000000     0.725851000000    -0.231895000000     1.007825032230
         H           -1.918137000000     1.227655000000    -0.418924000000     1.007825032230
      Gh(O)           1.203798000000     0.989340000000    -2.982723000000    15.994914619570
      Gh(H)           1.383848000000     1.404532000000    -2.151666000000     1.007825032230
      Gh(H)           0.917733000000     0.079877000000    -2.748949000000     1.007825032230
      Gh(O)          -1.942333000000    -2.300435000000     1.090951000000    15.994914619570
      Gh(H)          -1.277267000000    -1.678503000000     0.760063000000     1.007825032230
      Gh(H)          -1.677310000000    -3.142909000000     0.788314000000     1.007825032230
      Gh(O)           2.995159000000    -1.396829000000    -0.963849000000    15.994914619570
      Gh(H)           2.160999000000    -1.154144000000    -0.534338000000     1.007825032230
      Gh(H)           3.403321000000    -0.551585000000    -1.226511000000     1.007825032230

  Running in c1 symmetry.

  Rotational constants: A =      0.03310  B =      0.02357  C =      0.02340 [cm^-1]
  Rotational constants: A =    992.37635  B =    706.56812  C =    701.45668 [MHz]
  Nuclear repulsion =    8.959767138602714

  Charge       = 0
  Multiplicity = 1
  Electrons    = 10
  Nalpha       = 5
  Nbeta        = 5

  ==> Algorithm <==

  SCF Algorithm Type is DF.
  DIIS enabled.
  MOM disabled.
  Fractional occupation disabled.
  Guess Type is SAD.
  Energy threshold   = 1.00e-08
  Density threshold  = 1.00e-08
  Integral threshold = 1.00e-12

  ==> Primary Basis <==

  Basis Set: AUG-CC-PVTZ
    Blend: AUG-CC-PVTZ
    Number of shells: 179
    Number of basis functions: 519
    Number of Cartesian functions: 594
    Spherical Harmonics?: true
    Max angular momentum: 3

   => Loading Basis Set <=

    Name: (AUG-CC-PVTZ AUX)
    Role: JKFIT
    Keyword: DF_BASIS_SCF
    atoms 1                            entry BR         line  1492 file /ddmfs1b/softs/psi4conda/share/psi4/basis/aug-cc-pvtz-jkfit.gbs 
    atoms 2, 5, 8, 11, 14              entry O          line   286 file /ddmfs1b/softs/psi4conda/share/psi4/basis/aug-cc-pvtz-jkfit.gbs 
    atoms 3-4, 6-7, 9-10, 12-13, 15-16 entry H          line    70 file /ddmfs1b/softs/psi4conda/share/psi4/basis/aug-cc-pvtz-jkfit.gbs 

  ==> Integral Setup <==

  DFHelper Memory: AOs need 2.284 GiB; user supplied 41.910 GiB. 
  Using in-core AOs.

  ==> MemDFJK: Density-Fitted J/K Matrices <==

    J tasked:                   Yes
    K tasked:                   Yes
    wK tasked:                   No
    OpenMP threads:              20
    Memory [MiB]:             42915
    Algorithm:                 Core
    Schwarz Cutoff:           1E-12
    Mask sparsity (%):      11.5941
    Fitting Condition:        1E-10

   => Auxiliary Basis Set <=

  Basis Set: (AUG-CC-PVTZ AUX)
    Blend: AUG-CC-PVTZ-JKFIT
    Number of shells: 348
    Number of basis functions: 1228
    Number of Cartesian functions: 1534
    Spherical Harmonics?: true
    Max angular momentum: 4

  Minimum eigenvalue in the overlap matrix is 1.5598620484E-04.
  Reciprocal condition number of the overlap matrix is 1.1918332788E-05.
    Using symmetric orthogonalization.

  ==> Pre-Iterations <==

  SCF Guess: Superposition of Atomic Densities via on-the-fly atomic UHF (no occupation information).

   -------------------------
    Irrep   Nso     Nmo    
   -------------------------
     A        519     519 
   -------------------------
    Total     519     519
   -------------------------

  ==> Iterations <==

                           Total Energy        Delta E     RMS |[F,P]|

   @DF-RHF iter SAD:   -75.44691024928972   -7.54469e+01   0.00000e+00 
   @DF-RHF iter   1:   -75.97271084951679   -5.25801e-01   8.99240e-04 ADIIS/DIIS
   @DF-RHF iter   2:   -76.02438987304168   -5.16790e-02   6.26928e-04 ADIIS/DIIS
   @DF-RHF iter   3:   -76.05735392615247   -3.29641e-02   4.27858e-05 DIIS
   @DF-RHF iter   4:   -76.05777865912737   -4.24733e-04   1.07524e-05 DIIS
   @DF-RHF iter   5:   -76.05780818630490   -2.95272e-05   2.48515e-06 DIIS
   @DF-RHF iter   6:   -76.05781069169817   -2.50539e-06   5.52606e-07 DIIS
   @DF-RHF iter   7:   -76.05781082710433   -1.35406e-07   1.01077e-07 DIIS
   @DF-RHF iter   8:   -76.05781083105077   -3.94644e-09   1.74197e-08 DIIS
   @DF-RHF iter   9:   -76.05781083114644   -9.56675e-11   4.53429e-09 DIIS
  Energy and wave function converged.


  ==> Post-Iterations <==

    Orbital Energies [Eh]
    ---------------------

    Doubly Occupied:                                                      

       1A    -20.570164     2A     -1.339490     3A     -0.709369  
       4A     -0.575121     5A     -0.507552  

    Virtual:                                                              

       6A      0.014287     7A      0.030221     8A      0.038005  
       9A      0.040643    10A      0.052272    11A      0.054391  
      12A      0.059102    13A      0.068089    14A      0.077058  
      15A      0.079890    16A      0.094736    17A      0.097594  
      18A      0.114663    19A      0.117170    20A      0.118471  
      21A      0.133221    22A      0.144861    23A      0.149866  
      24A      0.151914    25A      0.156132    26A      0.162163  
      27A      0.166384    28A      0.169068    29A      0.178811  
      30A      0.185191    31A      0.194998    32A      0.198631  
      33A      0.200086    34A      0.206391    35A      0.218195  
      36A      0.221493    37A      0.224092    38A      0.236302  
      39A      0.238660    40A      0.252020    41A      0.258498  
      42A      0.271074    43A      0.272257    44A      0.282384  
      45A      0.290306    46A      0.304849    47A      0.310879  
      48A      0.312854    49A      0.316371    50A      0.320023  
      51A      0.334122    52A      0.339446    53A      0.345418  
      54A      0.348137    55A      0.350715    56A      0.361858  
      57A      0.370283    58A      0.376136    59A      0.379665  
      60A      0.385262    61A      0.392101    62A      0.396343  
      63A      0.403195    64A      0.423239    65A      0.425765  
      66A      0.428683    67A      0.435895    68A      0.442817  
      69A      0.453914    70A      0.456085    71A      0.464308  
      72A      0.468011    73A      0.479713    74A      0.482664  
      75A      0.502422    76A      0.506160    77A      0.516814  
      78A      0.520083    79A      0.541996    80A      0.558313  
      81A      0.570993    82A      0.574314    83A      0.582957  
      84A      0.610928    85A      0.621608    86A      0.627999  
      87A      0.641945    88A      0.648245    89A      0.662482  
      90A      0.676835    91A      0.688462    92A      0.704827  
      93A      0.711928    94A      0.719577    95A      0.731876  
      96A      0.737847    97A      0.749464    98A      0.755048  
      99A      0.764004   100A      0.770029   101A      0.779236  
     102A      0.783354   103A      0.786656   104A      0.798157  
     105A      0.806687   106A      0.809216   107A      0.812597  
     108A      0.825781   109A      0.830122   110A      0.837969  
     111A      0.841903   112A      0.847376   113A      0.849879  
     114A      0.864424   115A      0.872438   116A      0.881502  
     117A      0.887965   118A      0.893267   119A      0.894479  
     120A      0.905377   121A      0.906984   122A      0.909927  
     123A      0.916466   124A      0.922624   125A      0.932242  
     126A      0.938717   127A      0.940398   128A      0.943769  
     129A      0.946123   130A      0.958404   131A      0.966632  
     132A      0.973107   133A      0.978801   134A      0.991150  
     135A      0.997560   136A      0.998814   137A      1.008685  
     138A      1.016934   139A      1.025722   140A      1.036793  
     141A      1.047589   142A      1.052333   143A      1.055084  
     144A      1.065592   145A      1.068024   146A      1.076716  
     147A      1.081334   148A      1.092906   149A      1.106296  
     150A      1.112200   151A      1.120717   152A      1.127417  
     153A      1.132164   154A      1.132511   155A      1.152698  
     156A      1.162273   157A      1.173758   158A      1.178334  
     159A      1.188173   160A      1.194356   161A      1.208280  
     162A      1.218170   163A      1.226911   164A      1.230327  
     165A      1.236185   166A      1.250858   167A      1.260745  
     168A      1.264046   169A      1.276384   170A      1.295051  
     171A      1.298640   172A      1.314724   173A      1.324077  
     174A      1.341239   175A      1.348451   176A      1.351772  
     177A      1.377227   178A      1.384357   179A      1.390277  
     180A      1.402031   181A      1.413060   182A      1.423033  
     183A      1.437106   184A      1.459622   185A      1.462026  
     186A      1.470894   187A      1.479864   188A      1.493237  
     189A      1.519031   190A      1.523990   191A      1.543141  
     192A      1.545977   193A      1.558701   194A      1.567041  
     195A      1.583781   196A      1.601553   197A      1.610216  
     198A      1.626946   199A      1.649243   200A      1.654705  
     201A      1.658476   202A      1.670709   203A      1.676015  
     204A      1.715224   205A      1.726189   206A      1.744276  
     207A      1.749502   208A      1.762614   209A      1.769633  
     210A      1.786340   211A      1.789510   212A      1.799804  
     213A      1.804653   214A      1.826881   215A      1.831815  
     216A      1.836650   217A      1.844236   218A      1.858979  
     219A      1.870447   220A      1.884630   221A      1.892646  
     222A      1.908026   223A      1.915748   224A      1.926452  
     225A      1.937061   226A      1.954110   227A      1.971406  
     228A      1.977639   229A      2.013746   230A      2.024251  
     231A      2.059788   232A      2.064840   233A      2.080485  
     234A      2.101201   235A      2.110797   236A      2.149949  
     237A      2.203254   238A      2.226083   239A      2.324289  
     240A      2.401397   241A      2.414802   242A      2.457724  
     243A      2.463644   244A      2.475301   245A      2.486355  
     246A      2.496213   247A      2.501833   248A      2.510648  
     249A      2.526015   250A      2.530432   251A      2.534160  
     252A      2.546941   253A      2.551490   254A      2.579565  
     255A      2.588006   256A      2.599512   257A      2.606083  
     258A      2.621477   259A      2.640998   260A      2.649608  
     261A      2.659768   262A      2.667925   263A      2.669705  
     264A      2.677409   265A      2.683990   266A      2.698639  
     267A      2.719394   268A      2.723243   269A      2.738849  
     270A      2.752274   271A      2.765553   272A      2.766403  
     273A      2.781039   274A      2.799080   275A      2.808782  
     276A      2.819506   277A      2.832885   278A      2.854343  
     279A      2.887698   280A      2.906159   281A      2.949535  
     282A      2.967812   283A      2.976216   284A      2.992353  
     285A      3.025780   286A      3.039362   287A      3.064946  
     288A      3.185536   289A      3.192056   290A      3.199700  
     291A      3.215568   292A      3.217185   293A      3.225452  
     294A      3.234707   295A      3.248339   296A      3.251385  
     297A      3.261792   298A      3.270327   299A      3.298933  
     300A      3.310264   301A      3.321807   302A      3.381837  
     303A      3.385312   304A      3.400896   305A      3.407820  
     306A      3.421572   307A      3.437094   308A      3.446210  
     309A      3.454065   310A      3.462961   311A      3.484927  
     312A      3.503246   313A      3.542196   314A      3.565375  
     315A      3.572278   316A      3.592081   317A      3.601072  
     318A      3.624293   319A      3.652930   320A      3.675782  
     321A      3.682464   322A      3.696354   323A      3.716805  
     324A      3.726529   325A      3.734116   326A      3.752356  
     327A      3.798728   328A      3.809547   329A      3.860317  
     330A      3.879257   331A      3.919853   332A      4.020619  
     333A      4.055687   334A      4.101418   335A      4.249714  
     336A      4.256978   337A      4.271676   338A      4.345465  
     339A      4.388433   340A      4.398195   341A      4.416992  
     342A      4.423912   343A      4.448010   344A      4.454336  
     345A      4.478059   346A      4.501981   347A      4.515187  
     348A      4.520144   349A      4.531813   350A      4.553005  
     351A      4.559993   352A      4.563161   353A      4.580865  
     354A      4.609783   355A      4.630372   356A      4.666032  
     357A      4.670508   358A      4.702418   359A      4.714046  
     360A      4.726227   361A      4.729236   362A      4.739586  
     363A      4.772418   364A      4.804334   365A      4.818884  
     366A      4.836144   367A      4.878463   368A      4.893468  
     369A      4.901800   370A      4.910164   371A      4.924925  
     372A      4.933262   373A      4.946104   374A      4.972474  
     375A      4.987133   376A      5.009057   377A      5.077771  
     378A      5.095752   379A      5.129116   380A      5.133169  
     381A      5.194143   382A      5.203590   383A      5.232356  
     384A      5.245345   385A      5.269658   386A      5.306640  
     387A      5.317795   388A      5.338886   389A      5.466234  
     390A      5.493976   391A      5.527860   392A      5.538738  
     393A      5.577809   394A      5.583286   395A      5.611305  
     396A      5.616610   397A      5.642438   398A      5.654972  
     399A      5.697151   400A      5.722458   401A      5.738912  
     402A      5.750296   403A      5.832212   404A      5.849927  
     405A      5.861983   406A      5.919379   407A      6.139368  
     408A      6.149316   409A      6.169071   410A      6.172440  
     411A      6.192737   412A      6.426461   413A      6.450607  
     414A      6.474869   415A      6.526712   416A      6.580494  
     417A      6.632838   418A      6.651135   419A      6.771238  
     420A      6.805744   421A      6.890899   422A      6.896958  
     423A      7.066574   424A      7.097128   425A      7.143400  
     426A      7.157735   427A      7.163987   428A      7.266823  
     429A      7.299277   430A      7.350650   431A      7.391723  
     432A      7.460421   433A      7.665875   434A      7.724281  
     435A      7.732973   436A      7.738760   437A      7.753261  
     438A      7.814168   439A      7.838298   440A      7.860774  
     441A      7.870090   442A      7.915785   443A      7.995493  
     444A      8.065583   445A      8.091970   446A      8.174519  
     447A      8.203545   448A      8.209246   449A      8.235570  
     450A      8.263681   451A      8.277239   452A      8.287638  
     453A      8.302378   454A      8.321201   455A      8.383145  
     456A      8.704378   457A      8.744182   458A      8.812706  
     459A      8.825818   460A      8.839443   461A      8.890637  
     462A      8.903971   463A      9.062691   464A      9.141921  
     465A      9.708981   466A      9.723261   467A      9.735410  
     468A      9.793640   469A      9.867142   470A      9.882261  
     471A      9.907259   472A      9.917384   473A     10.056340  
     474A     10.067694   475A     10.095730   476A     10.111087  
     477A     10.267165   478A     10.290132   479A     10.310197  
     480A     10.327337   481A     11.107751   482A     11.156533  
     483A     11.179717   484A     11.184463   485A     11.272330  
     486A     11.730636   487A     11.758454   488A     11.768167  
     489A     11.816233   490A     12.039560   491A     12.143026  
     492A     12.253407   493A     12.318914   494A     13.544460  
     495A     13.648355   496A     13.658907   497A     13.759221  
     498A     13.859466   499A     13.868867   500A     13.939927  
     501A     13.943308   502A     14.034347   503A     14.106942  
     504A     14.240864   505A     16.009309   506A     26.344885  
     507A     26.402016   508A     26.436193   509A     26.589197  
     510A     26.739210   511A     46.575653   512A     65.290659  
     513A     65.586275   514A     67.231649   515A     67.436235  
     516A    139.118991   517A    139.295958   518A    139.536902  
     519A    711.961950  

    Final Occupation by Irrep:
              A 
    DOCC [     5 ]
    NA   [     5 ]
    NB   [     5 ]

  @DF-RHF Final Energy:   -76.05781083114644

   => Energetics <=

    Nuclear Repulsion Energy =              8.9597671386027145
    One-Electron Energy =                -122.6317607464708601
    Two-Electron Energy =                  37.6141827767216981
    Total Energy =                        -76.0578108311464405

Computation Completed


Properties will be evaluated at   0.000000,   0.000000,   0.000000 [a0]

Properties computed using the SCF density matrix


 Multipole Moments:

 ------------------------------------------------------------------------------------
     Multipole            Electronic (a.u.)      Nuclear  (a.u.)        Total (a.u.)
 ------------------------------------------------------------------------------------

 L = 1.  Multiply by 2.5417464519 to convert [e a0] to [Debye]
 Dipole X            :         53.3191589          -53.0745362            0.2446227
 Dipole Y            :        -27.5453397           26.8154745           -0.7298652
 Dipole Z            :          6.4088550           -6.3881568            0.0206982
 Magnitude           :                                                    0.7700467

 ------------------------------------------------------------------------------------

*** tstop() called on ddmfs1 at Mon Jan 22 22:53:19 2024
Module time:
	user time   =     103.82 seconds =       1.73 minutes
	system time =       7.15 seconds =       0.12 minutes
	total time  =          8 seconds =       0.13 minutes
Total time:
	user time   =     103.82 seconds =       1.73 minutes
	system time =       7.15 seconds =       0.12 minutes
	total time  =          8 seconds =       0.13 minutes

*** tstart() called on ddmfs1
*** at Mon Jan 22 22:53:19 2024


  //>>>>>>>>>>>>>>>>>>>>>>>>>>>>>>>>>>>//
  //               DFMP2               //
  //<<<<<<<<<<<<<<<<<<<<<<<<<<<<<<<<<<<//

   => Loading Basis Set <=

    Name: (AUG-CC-PVTZ AUX)
    Role: RIFIT
    Keyword: DF_BASIS_MP2
    atoms 1                            entry BR         line  1248 file /ddmfs1b/softs/psi4conda/share/psi4/basis/aug-cc-pvtz-ri.gbs 
    atoms 2, 5, 8, 11, 14              entry O          line   264 file /ddmfs1b/softs/psi4conda/share/psi4/basis/aug-cc-pvtz-ri.gbs 
    atoms 3-4, 6-7, 9-10, 12-13, 15-16 entry H          line    30 file /ddmfs1b/softs/psi4conda/share/psi4/basis/aug-cc-pvtz-ri.gbs 

	 --------------------------------------------------------
	                          DF-MP2                         
	      2nd-Order Density-Fitted Moller-Plesset Theory     
	              RMP2 Wavefunction,  20 Threads             
	                                                         
	        Rob Parrish, Justin Turney, Andy Simmonett,      
	           Ed Hohenstein, and C. David Sherrill          
	 --------------------------------------------------------

   => Auxiliary Basis Set <=

  Basis Set: (AUG-CC-PVTZ AUX)
    Blend: AUG-CC-PVTZ-RI
    Number of shells: 323
    Number of basis functions: 1181
    Number of Cartesian functions: 1491
    Spherical Harmonics?: true
    Max angular momentum: 5

	 --------------------------------------------------------
	                 NBF =   519, NAUX =  1181
	 --------------------------------------------------------
	   CLASS    FOCC     OCC    AOCC    AVIR     VIR    FVIR
	   PAIRS       0       5       5     514     514       0
	 --------------------------------------------------------

	-----------------------------------------------------------
	 ==================> DF-MP2 Energies <==================== 
	-----------------------------------------------------------
	 Reference Energy          =     -76.0578108311464405 [Eh]
	 Singles Energy            =      -0.0000000000000000 [Eh]
	 Same-Spin Energy          =      -0.0687655036147243 [Eh]
	 Opposite-Spin Energy      =      -0.2169837047260491 [Eh]
	 Correlation Energy        =      -0.2857492083407733 [Eh]
	 Total Energy              =     -76.3435600394872154 [Eh]
	-----------------------------------------------------------
	 ================> DF-SCS-MP2 Energies <================== 
	-----------------------------------------------------------
	 SCS Same-Spin Scale       =       0.3333333333333333 [-]
	 SCS Opposite-Spin Scale   =       1.2000000000000000 [-]
	 SCS Same-Spin Energy      =      -0.0229218345382414 [Eh]
	 SCS Opposite-Spin Energy  =      -0.2603804456712588 [Eh]
	 SCS Correlation Energy    =      -0.2833022802095003 [Eh]
	 SCS Total Energy          =     -76.3411131113559378 [Eh]
	-----------------------------------------------------------


*** tstop() called on ddmfs1 at Mon Jan 22 22:53:31 2024
Module time:
	user time   =      33.51 seconds =       0.56 minutes
	system time =       2.35 seconds =       0.04 minutes
	total time  =         12 seconds =       0.20 minutes
Total time:
	user time   =     137.35 seconds =       2.29 minutes
	system time =       9.50 seconds =       0.16 minutes
	total time  =         20 seconds =       0.33 minutes

    Psi4 stopped on: Monday, 22 January 2024 10:53PM
    Psi4 wall time for execution: 0:00:19.73

*** Psi4 exiting successfully. Buy a developer a beer!
