
    -----------------------------------------------------------------------
          Psi4: An Open-Source Ab Initio Electronic Structure Package
                               Psi4 1.8.2 release

                         Git: Rev {} zzzzzzz 


    D. G. A. Smith, L. A. Burns, A. C. Simmonett, R. M. Parrish,
    M. C. Schieber, R. Galvelis, P. Kraus, H. Kruse, R. Di Remigio,
    A. Alenaizan, A. M. James, S. Lehtola, J. P. Misiewicz, M. Scheurer,
    R. A. Shaw, J. B. Schriber, Y. Xie, Z. L. Glick, D. A. Sirianni,
    J. S. O'Brien, J. M. Waldrop, A. Kumar, E. G. Hohenstein,
    B. P. Pritchard, B. R. Brooks, H. F. Schaefer III, A. Yu. Sokolov,
    K. Patkowski, A. E. DePrince III, U. Bozkaya, R. A. King,
    F. A. Evangelista, J. M. Turney, T. D. Crawford, C. D. Sherrill,
    J. Chem. Phys. 152(18) 184108 (2020). https://doi.org/10.1063/5.0006002

                            Additional Code Authors
    E. T. Seidl, C. L. Janssen, E. F. Valeev, M. L. Leininger,
    J. F. Gonthier, R. M. Richard, H. R. McAlexander, M. Saitow, X. Wang,
    P. Verma, M. H. Lechner, A. Jiang, S. Behnle, A. G. Heide,
    M. F. Herbst, and D. L. Poole

             Previous Authors, Complete List of Code Contributors,
                       and Citations for Specific Modules
    https://github.com/psi4/psi4/blob/master/codemeta.json
    https://github.com/psi4/psi4/graphs/contributors
    http://psicode.org/psi4manual/master/introduction.html#citing-psifour

    -----------------------------------------------------------------------


    Psi4 started on: Monday, 22 January 2024 11:50PM

    Process ID: 118434
    Host:       ddmfs1
    PSIDATADIR: /ddmfs1b/softs/psi4conda/share/psi4
    Memory:     500.0 MiB
    Threads:    20
    
  ==> Input File <==

--------------------------------------------------------------------------
MEMORY 60 GB

molecule dimer {
0 1
Gh(Br)     0.000000     0.000000     0.000000
Gh(O)     -2.114396    -0.823968    -2.451740
Gh(H)     -1.344934    -0.815549    -1.892709
Gh(H)     -2.578301    -1.686826    -2.349784
Gh(O)     -2.840106    -0.818403     1.694288
Gh(H)     -2.923211    -1.709126     1.352216
Gh(H)     -1.976154    -0.530056     1.405183
Gh(O)      0.359761    -1.678973     2.757291
Gh(H)      0.155656    -1.071042     3.436648
Gh(H)      0.309349    -1.206416     1.893897
Gh(O)     -0.002582    -3.436636     0.122679
Gh(H)     -0.128662    -2.474547     0.122748
Gh(H)      0.840782    -3.640659    -0.311875
O          3.119434    -1.374833    -0.676470
H          2.298457    -1.110581    -0.190519
H          3.320939    -2.236567    -0.244513

units ang
no_reorient
no_com
symmetry c1
}

set {
basis        aug-cc-pVTZ
scf_type     df
}

energy("mp2")
--------------------------------------------------------------------------

  Memory set to  55.879 GiB by Python driver.

Scratch directory: /ddmfs1a/scratch/
   => Libint2 <=

    Primary   basis highest AM E, G, H:  5, 4, 3
    Auxiliary basis highest AM E, G, H:  6, 5, 4
    Onebody   basis highest AM E, G, H:  6, 5, 4
    Solid Harmonics ordering:            gaussian

*** tstart() called on ddmfs1
*** at Mon Jan 22 23:50:11 2024

   => Loading Basis Set <=

    Name: AUG-CC-PVTZ
    Role: ORBITAL
    Keyword: BASIS
    atoms 1                            entry BR         line  4208 file /ddmfs1b/softs/psi4conda/share/psi4/basis/aug-cc-pvtz.gbs 
    atoms 2, 5, 8, 11, 14              entry O          line   331 file /ddmfs1b/softs/psi4conda/share/psi4/basis/aug-cc-pvtz.gbs 
    atoms 3-4, 6-7, 9-10, 12-13, 15-16 entry H          line    40 file /ddmfs1b/softs/psi4conda/share/psi4/basis/aug-cc-pvtz.gbs 


         ---------------------------------------------------------
                                   SCF
               by Justin Turney, Rob Parrish, Andy Simmonett
                          and Daniel G. A. Smith
                              RHF Reference
                       20 Threads,  57220 MiB Core
         ---------------------------------------------------------

  ==> Geometry <==

    Molecular point group: c1
    Full point group: C1

    Geometry (in Angstrom), charge = 0, multiplicity = 1:

       Center              X                  Y                   Z               Mass       
    ------------   -----------------  -----------------  -----------------  -----------------
      Gh(BR)          0.000000000000     0.000000000000     0.000000000000    78.918337600000
      Gh(O)          -2.114396000000    -0.823968000000    -2.451740000000    15.994914619570
      Gh(H)          -1.344934000000    -0.815549000000    -1.892709000000     1.007825032230
      Gh(H)          -2.578301000000    -1.686826000000    -2.349784000000     1.007825032230
      Gh(O)          -2.840106000000    -0.818403000000     1.694288000000    15.994914619570
      Gh(H)          -2.923211000000    -1.709126000000     1.352216000000     1.007825032230
      Gh(H)          -1.976154000000    -0.530056000000     1.405183000000     1.007825032230
      Gh(O)           0.359761000000    -1.678973000000     2.757291000000    15.994914619570
      Gh(H)           0.155656000000    -1.071042000000     3.436648000000     1.007825032230
      Gh(H)           0.309349000000    -1.206416000000     1.893897000000     1.007825032230
      Gh(O)          -0.002582000000    -3.436636000000     0.122679000000    15.994914619570
      Gh(H)          -0.128662000000    -2.474547000000     0.122748000000     1.007825032230
      Gh(H)           0.840782000000    -3.640659000000    -0.311875000000     1.007825032230
         O            3.119434000000    -1.374833000000    -0.676470000000    15.994914619570
         H            2.298457000000    -1.110581000000    -0.190519000000     1.007825032230
         H            3.320939000000    -2.236567000000    -0.244513000000     1.007825032230

  Running in c1 symmetry.

  Rotational constants: A =      0.02727  B =      0.02597  C =      0.02195 [cm^-1]
  Rotational constants: A =    817.57403  B =    778.54726  C =    658.17024 [MHz]
  Nuclear repulsion =    8.923023707450078

  Charge       = 0
  Multiplicity = 1
  Electrons    = 10
  Nalpha       = 5
  Nbeta        = 5

  ==> Algorithm <==

  SCF Algorithm Type is DF.
  DIIS enabled.
  MOM disabled.
  Fractional occupation disabled.
  Guess Type is SAD.
  Energy threshold   = 1.00e-08
  Density threshold  = 1.00e-08
  Integral threshold = 1.00e-12

  ==> Primary Basis <==

  Basis Set: AUG-CC-PVTZ
    Blend: AUG-CC-PVTZ
    Number of shells: 179
    Number of basis functions: 519
    Number of Cartesian functions: 594
    Spherical Harmonics?: true
    Max angular momentum: 3

   => Loading Basis Set <=

    Name: (AUG-CC-PVTZ AUX)
    Role: JKFIT
    Keyword: DF_BASIS_SCF
    atoms 1                            entry BR         line  1492 file /ddmfs1b/softs/psi4conda/share/psi4/basis/aug-cc-pvtz-jkfit.gbs 
    atoms 2, 5, 8, 11, 14              entry O          line   286 file /ddmfs1b/softs/psi4conda/share/psi4/basis/aug-cc-pvtz-jkfit.gbs 
    atoms 3-4, 6-7, 9-10, 12-13, 15-16 entry H          line    70 file /ddmfs1b/softs/psi4conda/share/psi4/basis/aug-cc-pvtz-jkfit.gbs 

  ==> Integral Setup <==

  DFHelper Memory: AOs need 2.311 GiB; user supplied 41.910 GiB. 
  Using in-core AOs.

  ==> MemDFJK: Density-Fitted J/K Matrices <==

    J tasked:                   Yes
    K tasked:                   Yes
    wK tasked:                   No
    OpenMP threads:              20
    Memory [MiB]:             42915
    Algorithm:                 Core
    Schwarz Cutoff:           1E-12
    Mask sparsity (%):      10.4967
    Fitting Condition:        1E-10

   => Auxiliary Basis Set <=

  Basis Set: (AUG-CC-PVTZ AUX)
    Blend: AUG-CC-PVTZ-JKFIT
    Number of shells: 348
    Number of basis functions: 1228
    Number of Cartesian functions: 1534
    Spherical Harmonics?: true
    Max angular momentum: 4

  Minimum eigenvalue in the overlap matrix is 1.2549253738E-04.
  Reciprocal condition number of the overlap matrix is 9.1864936154E-06.
    Using symmetric orthogonalization.

  ==> Pre-Iterations <==

  SCF Guess: Superposition of Atomic Densities via on-the-fly atomic UHF (no occupation information).

   -------------------------
    Irrep   Nso     Nmo    
   -------------------------
     A        519     519 
   -------------------------
    Total     519     519
   -------------------------

  ==> Iterations <==

                           Total Energy        Delta E     RMS |[F,P]|

   @DF-RHF iter SAD:   -75.44660539644917   -7.54466e+01   0.00000e+00 
   @DF-RHF iter   1:   -75.97050895584530   -5.23904e-01   8.99012e-04 DIIS/ADIIS
   @DF-RHF iter   2:   -76.02217452919072   -5.16656e-02   6.34962e-04 DIIS/ADIIS
   @DF-RHF iter   3:   -76.05617047995925   -3.39960e-02   4.32350e-05 DIIS
   @DF-RHF iter   4:   -76.05659689895175   -4.26419e-04   1.10152e-05 DIIS
   @DF-RHF iter   5:   -76.05662799601615   -3.10971e-05   2.59127e-06 DIIS
   @DF-RHF iter   6:   -76.05663066939229   -2.67338e-06   5.60874e-07 DIIS
   @DF-RHF iter   7:   -76.05663080333939   -1.33947e-07   9.42069e-08 DIIS
   @DF-RHF iter   8:   -76.05663080656274   -3.22335e-09   1.62186e-08 DIIS
   @DF-RHF iter   9:   -76.05663080663847   -7.57296e-11   4.02623e-09 DIIS
  Energy and wave function converged.


  ==> Post-Iterations <==

    Orbital Energies [Eh]
    ---------------------

    Doubly Occupied:                                                      

       1A    -20.573993     2A     -1.341062     3A     -0.694688  
       4A     -0.586217     5A     -0.509074  

    Virtual:                                                              

       6A      0.014398     7A      0.032809     8A      0.034644  
       9A      0.040365    10A      0.054059    11A      0.057345  
      12A      0.060438    13A      0.067781    14A      0.073652  
      15A      0.082576    16A      0.092820    17A      0.103664  
      18A      0.113991    19A      0.118804    20A      0.124594  
      21A      0.134158    22A      0.142401    23A      0.144821  
      24A      0.154080    25A      0.158912    26A      0.160148  
      27A      0.168845    28A      0.174038    29A      0.181225  
      30A      0.183142    31A      0.191653    32A      0.193786  
      33A      0.206030    34A      0.210341    35A      0.214684  
      36A      0.222430    37A      0.233714    38A      0.236614  
      39A      0.245849    40A      0.254989    41A      0.257069  
      42A      0.265087    43A      0.275129    44A      0.288580  
      45A      0.295595    46A      0.303283    47A      0.307378  
      48A      0.318323    49A      0.321437    50A      0.328943  
      51A      0.329204    52A      0.336105    53A      0.350077  
      54A      0.358861    55A      0.362075    56A      0.371020  
      57A      0.372278    58A      0.379939    59A      0.382932  
      60A      0.388684    61A      0.393063    62A      0.399971  
      63A      0.402078    64A      0.417030    65A      0.421487  
      66A      0.429605    67A      0.446758    68A      0.448068  
      69A      0.449116    70A      0.459485    71A      0.471779  
      72A      0.476591    73A      0.490241    74A      0.494028  
      75A      0.501531    76A      0.504315    77A      0.515151  
      78A      0.530062    79A      0.536779    80A      0.551318  
      81A      0.557746    82A      0.569518    83A      0.586928  
      84A      0.593825    85A      0.612108    86A      0.621274  
      87A      0.641854    88A      0.653467    89A      0.677644  
      90A      0.695249    91A      0.701449    92A      0.706749  
      93A      0.718886    94A      0.725205    95A      0.739456  
      96A      0.748763    97A      0.760359    98A      0.762609  
      99A      0.768546   100A      0.774206   101A      0.778951  
     102A      0.788263   103A      0.797308   104A      0.805887  
     105A      0.810401   106A      0.814465   107A      0.822743  
     108A      0.827471   109A      0.827670   110A      0.839551  
     111A      0.845054   112A      0.850156   113A      0.853863  
     114A      0.865725   115A      0.868506   116A      0.883334  
     117A      0.886991   118A      0.888228   119A      0.901280  
     120A      0.909126   121A      0.911813   122A      0.917146  
     123A      0.926460   124A      0.934227   125A      0.944272  
     126A      0.944923   127A      0.950261   128A      0.956004  
     129A      0.959950   130A      0.969739   131A      0.977379  
     132A      0.986086   133A      0.988178   134A      0.991326  
     135A      1.001449   136A      1.008516   137A      1.010487  
     138A      1.020820   139A      1.024664   140A      1.042147  
     141A      1.048951   142A      1.053912   143A      1.057128  
     144A      1.067861   145A      1.078825   146A      1.088283  
     147A      1.090738   148A      1.099093   149A      1.113751  
     150A      1.120776   151A      1.129875   152A      1.133432  
     153A      1.135932   154A      1.144176   155A      1.152259  
     156A      1.153936   157A      1.164031   158A      1.185071  
     159A      1.195830   160A      1.202509   161A      1.212347  
     162A      1.222815   163A      1.224139   164A      1.228451  
     165A      1.255017   166A      1.266343   167A      1.269987  
     168A      1.283656   169A      1.288622   170A      1.293748  
     171A      1.318436   172A      1.325039   173A      1.331248  
     174A      1.335286   175A      1.345513   176A      1.346116  
     177A      1.367851   178A      1.380292   179A      1.395310  
     180A      1.397270   181A      1.428044   182A      1.438786  
     183A      1.446669   184A      1.451657   185A      1.474914  
     186A      1.476610   187A      1.492300   188A      1.505530  
     189A      1.523326   190A      1.536140   191A      1.543679  
     192A      1.552939   193A      1.564675   194A      1.577289  
     195A      1.583180   196A      1.608788   197A      1.626163  
     198A      1.639374   199A      1.647548   200A      1.659358  
     201A      1.678386   202A      1.690348   203A      1.706808  
     204A      1.714809   205A      1.738309   206A      1.745395  
     207A      1.751307   208A      1.756774   209A      1.759398  
     210A      1.787740   211A      1.796384   212A      1.804854  
     213A      1.823095   214A      1.826447   215A      1.852612  
     216A      1.856584   217A      1.873502   218A      1.883338  
     219A      1.892784   220A      1.909894   221A      1.917180  
     222A      1.930057   223A      1.943122   224A      1.956773  
     225A      1.962863   226A      1.978164   227A      1.992831  
     228A      1.999135   229A      2.021085   230A      2.029947  
     231A      2.048381   232A      2.052855   233A      2.077590  
     234A      2.104240   235A      2.136194   236A      2.151125  
     237A      2.203079   238A      2.237431   239A      2.350662  
     240A      2.397016   241A      2.414684   242A      2.449017  
     243A      2.451940   244A      2.461435   245A      2.475775  
     246A      2.483790   247A      2.495457   248A      2.503303  
     249A      2.519311   250A      2.527130   251A      2.533989  
     252A      2.549614   253A      2.579128   254A      2.586444  
     255A      2.589144   256A      2.614199   257A      2.615774  
     258A      2.634332   259A      2.656181   260A      2.659437  
     261A      2.663637   262A      2.678952   263A      2.682745  
     264A      2.694133   265A      2.695007   266A      2.705916  
     267A      2.736509   268A      2.738333   269A      2.746716  
     270A      2.750789   271A      2.768160   272A      2.773519  
     273A      2.796611   274A      2.797258   275A      2.817241  
     276A      2.837171   277A      2.842777   278A      2.863301  
     279A      2.904242   280A      2.925078   281A      2.943256  
     282A      2.958516   283A      2.987950   284A      3.008281  
     285A      3.020112   286A      3.029041   287A      3.088433  
     288A      3.147324   289A      3.180898   290A      3.188478  
     291A      3.214112   292A      3.221140   293A      3.231193  
     294A      3.238618   295A      3.241947   296A      3.261701  
     297A      3.271847   298A      3.282501   299A      3.302783  
     300A      3.314734   301A      3.350599   302A      3.361960  
     303A      3.380795   304A      3.381460   305A      3.398424  
     306A      3.422178   307A      3.439139   308A      3.462040  
     309A      3.486805   310A      3.487431   311A      3.511337  
     312A      3.520809   313A      3.523631   314A      3.550275  
     315A      3.560912   316A      3.579799   317A      3.602125  
     318A      3.623985   319A      3.663920   320A      3.675902  
     321A      3.687273   322A      3.703816   323A      3.717226  
     324A      3.746493   325A      3.770482   326A      3.796599  
     327A      3.819872   328A      3.861612   329A      3.874790  
     330A      3.918390   331A      3.929558   332A      3.968359  
     333A      4.123651   334A      4.192339   335A      4.230554  
     336A      4.272778   337A      4.283211   338A      4.354976  
     339A      4.374441   340A      4.389385   341A      4.402840  
     342A      4.424901   343A      4.439541   344A      4.453690  
     345A      4.469524   346A      4.479654   347A      4.507502  
     348A      4.519495   349A      4.548839   350A      4.563809  
     351A      4.584051   352A      4.585494   353A      4.618064  
     354A      4.631756   355A      4.647398   356A      4.656498  
     357A      4.667442   358A      4.678761   359A      4.689292  
     360A      4.730465   361A      4.750018   362A      4.765702  
     363A      4.784478   364A      4.786563   365A      4.871178  
     366A      4.872992   367A      4.879419   368A      4.896600  
     369A      4.907044   370A      4.912222   371A      4.928184  
     372A      4.949193   373A      4.977712   374A      4.989616  
     375A      5.006663   376A      5.054257   377A      5.090980  
     378A      5.094182   379A      5.113921   380A      5.143313  
     381A      5.184968   382A      5.206843   383A      5.212478  
     384A      5.246772   385A      5.276672   386A      5.287997  
     387A      5.309996   388A      5.325901   389A      5.477266  
     390A      5.484316   391A      5.486821   392A      5.556714  
     393A      5.560624   394A      5.569350   395A      5.590024  
     396A      5.628956   397A      5.639661   398A      5.649434  
     399A      5.682934   400A      5.700796   401A      5.706633  
     402A      5.769548   403A      5.800808   404A      5.843609  
     405A      5.882245   406A      5.892107   407A      6.155681  
     408A      6.165104   409A      6.184795   410A      6.202953  
     411A      6.277041   412A      6.385951   413A      6.410942  
     414A      6.504331   415A      6.524241   416A      6.547879  
     417A      6.710843   418A      6.731913   419A      6.789391  
     420A      6.807707   421A      6.826207   422A      6.974844  
     423A      7.087519   424A      7.100782   425A      7.137495  
     426A      7.145744   427A      7.166836   428A      7.244820  
     429A      7.278160   430A      7.308447   431A      7.409484  
     432A      7.450653   433A      7.603852   434A      7.719262  
     435A      7.733656   436A      7.748676   437A      7.769941  
     438A      7.805890   439A      7.825090   440A      7.845412  
     441A      7.876598   442A      7.913962   443A      7.944419  
     444A      8.084963   445A      8.104745   446A      8.120124  
     447A      8.136558   448A      8.261994   449A      8.266439  
     450A      8.274313   451A      8.303386   452A      8.313077  
     453A      8.317922   454A      8.327194   455A      8.349849  
     456A      8.714125   457A      8.753050   458A      8.767769  
     459A      8.831494   460A      8.843336   461A      8.949072  
     462A      8.995811   463A      9.013317   464A      9.094889  
     465A      9.702921   466A      9.752652   467A      9.774305  
     468A      9.806804   469A      9.859953   470A      9.892708  
     471A      9.910754   472A      9.931074   473A     10.070609  
     474A     10.091671   475A     10.094697   476A     10.133089  
     477A     10.270379   478A     10.310609   479A     10.330283  
     480A     10.348102   481A     11.112879   482A     11.129772  
     483A     11.181268   484A     11.261448   485A     11.439871  
     486A     11.754076   487A     11.780690   488A     11.814746  
     489A     11.830834   490A     12.121831   491A     12.133174  
     492A     12.238412   493A     12.308502   494A     13.533603  
     495A     13.597771   496A     13.663702   497A     13.720018  
     498A     13.852005   499A     13.918452   500A     13.953130  
     501A     13.962325   502A     14.032840   503A     14.045357  
     504A     14.213279   505A     15.471842   506A     26.334071  
     507A     26.429286   508A     26.501054   509A     26.583631  
     510A     26.719769   511A     46.781721   512A     65.546150  
     513A     66.304553   514A     66.957536   515A     67.249699  
     516A    139.043018   517A    139.222968   518A    139.408390  
     519A    712.630752  

    Final Occupation by Irrep:
              A 
    DOCC [     5 ]
    NA   [     5 ]
    NB   [     5 ]

  @DF-RHF Final Energy:   -76.05663080663847

   => Energetics <=

    Nuclear Repulsion Energy =              8.9230237074500778
    One-Electron Energy =                -122.5492379580852145
    Two-Electron Energy =                  37.5695834439966774
    Total Energy =                        -76.0566308066384664

Computation Completed


Properties will be evaluated at   0.000000,   0.000000,   0.000000 [a0]

Properties computed using the SCF density matrix


 Multipole Moments:

 ------------------------------------------------------------------------------------
     Multipole            Electronic (a.u.)      Nuclear  (a.u.)        Total (a.u.)
 ------------------------------------------------------------------------------------

 L = 1.  Multiply by 2.5417464519 to convert [e a0] to [Debye]
 Dipole X            :        -58.1780308           57.7781268           -0.3999040
 Dipole Y            :         26.7229424          -27.1096557           -0.3867133
 Dipole Z            :         11.6423129          -11.0488356            0.5934773
 Magnitude           :                                                    0.8134407

 ------------------------------------------------------------------------------------

*** tstop() called on ddmfs1 at Mon Jan 22 23:50:20 2024
Module time:
	user time   =     105.48 seconds =       1.76 minutes
	system time =       6.99 seconds =       0.12 minutes
	total time  =          9 seconds =       0.15 minutes
Total time:
	user time   =     105.48 seconds =       1.76 minutes
	system time =       6.99 seconds =       0.12 minutes
	total time  =          9 seconds =       0.15 minutes

*** tstart() called on ddmfs1
*** at Mon Jan 22 23:50:20 2024


  //>>>>>>>>>>>>>>>>>>>>>>>>>>>>>>>>>>>//
  //               DFMP2               //
  //<<<<<<<<<<<<<<<<<<<<<<<<<<<<<<<<<<<//

   => Loading Basis Set <=

    Name: (AUG-CC-PVTZ AUX)
    Role: RIFIT
    Keyword: DF_BASIS_MP2
    atoms 1                            entry BR         line  1248 file /ddmfs1b/softs/psi4conda/share/psi4/basis/aug-cc-pvtz-ri.gbs 
    atoms 2, 5, 8, 11, 14              entry O          line   264 file /ddmfs1b/softs/psi4conda/share/psi4/basis/aug-cc-pvtz-ri.gbs 
    atoms 3-4, 6-7, 9-10, 12-13, 15-16 entry H          line    30 file /ddmfs1b/softs/psi4conda/share/psi4/basis/aug-cc-pvtz-ri.gbs 

	 --------------------------------------------------------
	                          DF-MP2                         
	      2nd-Order Density-Fitted Moller-Plesset Theory     
	              RMP2 Wavefunction,  20 Threads             
	                                                         
	        Rob Parrish, Justin Turney, Andy Simmonett,      
	           Ed Hohenstein, and C. David Sherrill          
	 --------------------------------------------------------

   => Auxiliary Basis Set <=

  Basis Set: (AUG-CC-PVTZ AUX)
    Blend: AUG-CC-PVTZ-RI
    Number of shells: 323
    Number of basis functions: 1181
    Number of Cartesian functions: 1491
    Spherical Harmonics?: true
    Max angular momentum: 5

	 --------------------------------------------------------
	                 NBF =   519, NAUX =  1181
	 --------------------------------------------------------
	   CLASS    FOCC     OCC    AOCC    AVIR     VIR    FVIR
	   PAIRS       0       5       5     514     514       0
	 --------------------------------------------------------

	-----------------------------------------------------------
	 ==================> DF-MP2 Energies <==================== 
	-----------------------------------------------------------
	 Reference Energy          =     -76.0566308066384664 [Eh]
	 Singles Energy            =      -0.0000000000000000 [Eh]
	 Same-Spin Energy          =      -0.0690054217109317 [Eh]
	 Opposite-Spin Energy      =      -0.2175610994551999 [Eh]
	 Correlation Energy        =      -0.2865665211661316 [Eh]
	 Total Energy              =     -76.3431973278046030 [Eh]
	-----------------------------------------------------------
	 ================> DF-SCS-MP2 Energies <================== 
	-----------------------------------------------------------
	 SCS Same-Spin Scale       =       0.3333333333333333 [-]
	 SCS Opposite-Spin Scale   =       1.2000000000000000 [-]
	 SCS Same-Spin Energy      =      -0.0230018072369772 [Eh]
	 SCS Opposite-Spin Energy  =      -0.2610733193462399 [Eh]
	 SCS Correlation Energy    =      -0.2840751265832171 [Eh]
	 SCS Total Energy          =     -76.3407059332216846 [Eh]
	-----------------------------------------------------------


*** tstop() called on ddmfs1 at Mon Jan 22 23:50:31 2024
Module time:
	user time   =      34.16 seconds =       0.57 minutes
	system time =       2.50 seconds =       0.04 minutes
	total time  =         11 seconds =       0.18 minutes
Total time:
	user time   =     139.66 seconds =       2.33 minutes
	system time =       9.49 seconds =       0.16 minutes
	total time  =         20 seconds =       0.33 minutes

    Psi4 stopped on: Monday, 22 January 2024 11:50PM
    Psi4 wall time for execution: 0:00:19.92

*** Psi4 exiting successfully. Buy a developer a beer!
