
    -----------------------------------------------------------------------
          Psi4: An Open-Source Ab Initio Electronic Structure Package
                               Psi4 1.9 release

                         Git: Rev {} zzzzzzz 


    D. G. A. Smith, L. A. Burns, A. C. Simmonett, R. M. Parrish,
    M. C. Schieber, R. Galvelis, P. Kraus, H. Kruse, R. Di Remigio,
    A. Alenaizan, A. M. James, S. Lehtola, J. P. Misiewicz, M. Scheurer,
    R. A. Shaw, J. B. Schriber, Y. Xie, Z. L. Glick, D. A. Sirianni,
    J. S. O'Brien, J. M. Waldrop, A. Kumar, E. G. Hohenstein,
    B. P. Pritchard, B. R. Brooks, H. F. Schaefer III, A. Yu. Sokolov,
    K. Patkowski, A. E. DePrince III, U. Bozkaya, R. A. King,
    F. A. Evangelista, J. M. Turney, T. D. Crawford, C. D. Sherrill,
    J. Chem. Phys. 152(18) 184108 (2020). https://doi.org/10.1063/5.0006002

                            Additional Code Authors
    E. T. Seidl, C. L. Janssen, E. F. Valeev, M. L. Leininger,
    J. F. Gonthier, R. M. Richard, H. R. McAlexander, M. Saitow, X. Wang,
    P. Verma, M. H. Lechner, A. Jiang, S. Behnle, A. G. Heide,
    M. F. Herbst, and D. L. Poole

             Previous Authors, Complete List of Code Contributors,
                       and Citations for Specific Modules
    https://github.com/psi4/psi4/blob/master/codemeta.json
    https://github.com/psi4/psi4/graphs/contributors
    http://psicode.org/psi4manual/master/introduction.html#citing-psifour

    -----------------------------------------------------------------------


    Psi4 started on: Thursday, 28 December 2023 04:54PM

    Process ID: 88351
    Host:       moses-razer
    PSIDATADIR: /home/kchung25/anaconda3/envs/psi4_19/share/psi4
    Memory:     500.0 MiB
    Threads:    6
    
  ==> Input File <==

--------------------------------------------------------------------------
MEMORY 60 GB

molecule dimer {
1 1
Li     0.000000     0.000000     0.000000
--
-1 1
F     2.059401     0.000000     0.000000

units ang
no_reorient
no_com
symmetry c1
}

set {
basis        aug-cc-pVTZ
scf_type     df
}

energy("sapt2+")
--------------------------------------------------------------------------

  Memory set to  55.879 GiB by Python driver.

Scratch directory: /scratch/
   => Loading Basis Set <=

    Name: AUG-CC-PVTZ
    Role: ORBITAL
    Keyword: BASIS
    atoms 1 entry LI         line    85 file /home/kchung25/anaconda3/envs/p415env/share/psi4/basis/aug-cc-pvtz.gbs 
    atoms 2 entry F          line   377 file /home/kchung25/anaconda3/envs/p415env/share/psi4/basis/aug-cc-pvtz.gbs 

   => Loading Basis Set <=

    Name: AUG-CC-PVTZ
    Role: ORBITAL
    Keyword: BASIS
    atoms 1 entry LI         line    85 file /home/kchung25/anaconda3/envs/p415env/share/psi4/basis/aug-cc-pvtz.gbs 
    atoms 2 entry F          line   377 file /home/kchung25/anaconda3/envs/p415env/share/psi4/basis/aug-cc-pvtz.gbs 


  //>>>>>>>>>>>>>>>>>>>>>>>>>>>>>>>>>>>//
  //              Dimer HF             //
  //<<<<<<<<<<<<<<<<<<<<<<<<<<<<<<<<<<<//

   => Libint2 <=

    Primary   basis highest AM E, G, H:  5, 4, 3
    Auxiliary basis highest AM E, G, H:  6, 5, 4
    Onebody   basis highest AM E, G, H:  6, 5, 4
    Solid Harmonics ordering:            gaussian

*** tstart() called on moses-razer
*** at Thu Dec 28 16:54:36 2023

   => Loading Basis Set <=

    Name: AUG-CC-PVTZ
    Role: ORBITAL
    Keyword: BASIS
    atoms 1 entry LI         line    85 file /home/kchung25/anaconda3/envs/p415env/share/psi4/basis/aug-cc-pvtz.gbs 
    atoms 2 entry F          line   377 file /home/kchung25/anaconda3/envs/p415env/share/psi4/basis/aug-cc-pvtz.gbs 


         ---------------------------------------------------------
                                   SCF
               by Justin Turney, Rob Parrish, Andy Simmonett
                          and Daniel G. A. Smith
                              RHF Reference
                        6 Threads,  57220 MiB Core
         ---------------------------------------------------------

  ==> Geometry <==

    Molecular point group: c1
    Full point group: C_inf_v

    Geometry (in Angstrom), charge = 0, multiplicity = 1:

       Center              X                  Y                   Z               Mass       
    ------------   -----------------  -----------------  -----------------  -----------------
         LI           0.000000000000     0.000000000000     0.000000000000     7.016003436600
         F            2.059401000000     0.000000000000     0.000000000000    18.998403162730

  Running in c1 symmetry.

  Rotational constants: A = ************  B =      0.20922  C =      0.20922 [cm^-1]
  Rotational constants: A = ************  B =   6272.17636  C =   6272.17636 [MHz]
  Nuclear repulsion =    6.937835170561732

  Charge       = 0
  Multiplicity = 1
  Electrons    = 12
  Nalpha       = 6
  Nbeta        = 6

  ==> Algorithm <==

  SCF Algorithm Type is DF.
  DIIS enabled.
  MOM disabled.
  Fractional occupation disabled.
  Guess Type is SAD.
  Energy threshold   = 1.00e-08
  Density threshold  = 1.00e-08
  Integral threshold = 1.00e-12

  ==> Primary Basis <==

  Basis Set: AUG-CC-PVTZ
    Blend: AUG-CC-PVTZ
    Number of shells: 28
    Number of basis functions: 92
    Number of Cartesian functions: 110
    Spherical Harmonics?: true
    Max angular momentum: 3

   => Loading Basis Set <=

    Name: (AUG-CC-PVTZ AUX)
    Role: JKFIT
    Keyword: DF_BASIS_SCF
    atoms 1 entry LI         line    54 file /home/kchung25/anaconda3/envs/p415env/share/psi4/basis/def2-universal-jkfit.gbs 
    atoms 2 entry F          line   348 file /home/kchung25/anaconda3/envs/p415env/share/psi4/basis/aug-cc-pvtz-jkfit.gbs 

  ==> Integral Setup <==

  ==> DiskDFJK: Density-Fitted J/K Matrices <==

    J tasked:                  Yes
    K tasked:                  Yes
    wK tasked:                  No
    OpenMP threads:              6
    Integrals threads:           6
    Memory [MiB]:            42915
    Algorithm:                Core
    Integral Cache:           SAVE
    Schwarz Cutoff:          1E-12
    Fitting Condition:       1E-10

   => Auxiliary Basis Set <=

  Basis Set: (AUG-CC-PVTZ AUX)
    Blend: AUG-CC-PVTZ-JKFIT + DEF2-UNIVERSAL-JKFIT
    Number of shells: 47
    Number of basis functions: 155
    Number of Cartesian functions: 191
    Spherical Harmonics?: true
    Max angular momentum: 4

  Minimum eigenvalue in the overlap matrix is 1.0173654682E-03.
  Reciprocal condition number of the overlap matrix is 2.0809499356E-04.
    Using symmetric orthogonalization.

  ==> Pre-Iterations <==

  SCF Guess: Superposition of Atomic Densities via on-the-fly atomic UHF (no occupation information).

   -------------------------
    Irrep   Nso     Nmo    
   -------------------------
     A         92      92 
   -------------------------
    Total      92      92
   -------------------------

  ==> Iterations <==

                           Total Energy        Delta E     RMS |[F,P]|

   @DF-RHF iter SAD:  -106.17915589220016   -1.06179e+02   0.00000e+00 
   @DF-RHF iter   1:  -106.84301629100189   -6.63860e-01   5.73602e-03 DIIS/ADIIS
   @DF-RHF iter   2:  -106.88275239833210   -3.97361e-02   5.34057e-03 DIIS/ADIIS
   @DF-RHF iter   3:  -106.94701760035012   -6.42652e-02   1.87729e-04 DIIS/ADIIS
   @DF-RHF iter   4:  -106.94713549180550   -1.17891e-04   5.59377e-05 DIIS
   @DF-RHF iter   5:  -106.94715156737325   -1.60756e-05   1.15816e-05 DIIS
   @DF-RHF iter   6:  -106.94715357671141   -2.00934e-06   2.61360e-06 DIIS
   @DF-RHF iter   7:  -106.94715368831592   -1.11605e-07   5.98234e-07 DIIS
   @DF-RHF iter   8:  -106.94715369419305   -5.87713e-09   1.16700e-07 DIIS
   @DF-RHF iter   9:  -106.94715369436140   -1.68356e-10   2.10892e-08 DIIS
   @DF-RHF iter  10:  -106.94715369436778   -6.38067e-12   2.39012e-09 DIIS
  Energy and wave function converged.


  ==> Post-Iterations <==

    Orbital Energies [Eh]
    ---------------------

    Doubly Occupied:                                                      

       1A    -26.082809     2A     -2.507487     3A     -1.327847  
       4A     -0.438988     5A     -0.430198     6A     -0.430198  

    Virtual:                                                              

       7A     -0.023560     8A      0.013935     9A      0.013935  
      10A      0.015557    11A      0.031698    12A      0.045993  
      13A      0.045993    14A      0.069099    15A      0.105351  
      16A      0.105351    17A      0.109678    18A      0.121982  
      19A      0.121982    20A      0.142410    21A      0.142410  
      22A      0.154668    23A      0.216208    24A      0.284736  
      25A      0.284736    26A      0.286375    27A      0.286375  
      28A      0.290308    29A      0.290308    30A      0.291536  
      31A      0.314635    32A      0.319040    33A      0.319040  
      34A      0.362613    35A      0.362613    36A      0.392175  
      37A      0.392175    38A      0.419431    39A      0.466914  
      40A      0.466914    41A      0.468087    42A      0.618642  
      43A      0.732868    44A      0.732868    45A      0.738033  
      46A      0.738033    47A      0.742724    48A      0.744889  
      49A      0.744889    50A      0.799081    51A      0.799081  
      52A      0.855780    53A      0.855780    54A      0.958431  
      55A      1.110050    56A      1.110050    57A      1.232824  
      58A      1.261113    59A      1.261113    60A      1.533299  
      61A      1.533299    62A      1.764712    63A      2.258494  
      64A      2.888920    65A      3.078665    66A      3.078665  
      67A      3.098214    68A      3.099985    69A      3.099985  
      70A      3.109269    71A      3.109269    72A      3.170870  
      73A      3.170870    74A      3.323295    75A      3.323295  
      76A      3.486265    77A      5.565257    78A      5.565257  
      79A      5.727287    80A      9.034799    81A      9.034799  
      82A      9.059417    83A      9.059417    84A      9.079106  
      85A      9.093281    86A      9.093281    87A      9.553807  
      88A      9.553807    89A      9.644937    90A      9.644937  
      91A      9.658738    92A     11.716345  

    Final Occupation by Irrep:
              A 
    DOCC [     6 ]
    NA   [     6 ]
    NB   [     6 ]

  @DF-RHF Final Energy:  -106.94715369436778

   => Energetics <=

    Nuclear Repulsion Energy =              6.9378351705617325
    One-Electron Energy =                -165.3349271756846690
    Two-Electron Energy =                  51.4499383107551580
    Total Energy =                       -106.9471536943677847

Computation Completed


Properties will be evaluated at   0.000000,   0.000000,   0.000000 [a0]

Properties computed using the SCF density matrix


 Multipole Moments:

 ------------------------------------------------------------------------------------
     Multipole            Electronic (a.u.)      Nuclear  (a.u.)        Total (a.u.)
 ------------------------------------------------------------------------------------

 L = 1.  Multiply by 2.5417464519 to convert [e a0] to [Debye]
 Dipole X            :        -38.4724874           35.0253349           -3.4471526
 Dipole Y            :         -0.0000000            0.0000000           -0.0000000
 Dipole Z            :         -0.0000000            0.0000000           -0.0000000
 Magnitude           :                                                    3.4471526

 ------------------------------------------------------------------------------------

*** tstop() called on moses-razer at Thu Dec 28 16:54:37 2023
Module time:
	user time   =       3.08 seconds =       0.05 minutes
	system time =       0.19 seconds =       0.00 minutes
	total time  =          1 seconds =       0.02 minutes
Total time:
	user time   =       3.08 seconds =       0.05 minutes
	system time =       0.19 seconds =       0.00 minutes
	total time  =          1 seconds =       0.02 minutes

  //>>>>>>>>>>>>>>>>>>>>>>>>>>>>>>>>>>>//
  //            Monomer A HF           //
  //<<<<<<<<<<<<<<<<<<<<<<<<<<<<<<<<<<<//

   => Libint2 <=

    Primary   basis highest AM E, G, H:  5, 4, 3
    Auxiliary basis highest AM E, G, H:  6, 5, 4
    Onebody   basis highest AM E, G, H:  6, 5, 4
    Solid Harmonics ordering:            gaussian

*** tstart() called on moses-razer
*** at Thu Dec 28 16:54:37 2023

   => Loading Basis Set <=

    Name: AUG-CC-PVTZ
    Role: ORBITAL
    Keyword: BASIS
    atoms 1 entry LI         line    85 file /home/kchung25/anaconda3/envs/p415env/share/psi4/basis/aug-cc-pvtz.gbs 
    atoms 2 entry F          line   377 file /home/kchung25/anaconda3/envs/p415env/share/psi4/basis/aug-cc-pvtz.gbs 


         ---------------------------------------------------------
                                   SCF
               by Justin Turney, Rob Parrish, Andy Simmonett
                          and Daniel G. A. Smith
                              RHF Reference
                        6 Threads,  57220 MiB Core
         ---------------------------------------------------------

  ==> Geometry <==

    Molecular point group: c1
    Full point group: C_inf_v

    Geometry (in Angstrom), charge = 1, multiplicity = 1:

       Center              X                  Y                   Z               Mass       
    ------------   -----------------  -----------------  -----------------  -----------------
         LI           0.000000000000     0.000000000000     0.000000000000     7.016003436600
      Gh(F)           2.059401000000     0.000000000000     0.000000000000    18.998403162730

  Running in c1 symmetry.

  Rotational constants: A = ************  B =      0.20922  C =      0.20922 [cm^-1]
  Rotational constants: A = ************  B =   6272.17636  C =   6272.17636 [MHz]
  Nuclear repulsion =    0.000000000000000

  Charge       = 1
  Multiplicity = 1
  Electrons    = 2
  Nalpha       = 1
  Nbeta        = 1

  ==> Algorithm <==

  SCF Algorithm Type is DF.
  DIIS enabled.
  MOM disabled.
  Fractional occupation disabled.
  Guess Type is SAD.
  Energy threshold   = 1.00e-08
  Density threshold  = 1.00e-08
  Integral threshold = 1.00e-12

  ==> Primary Basis <==

  Basis Set: AUG-CC-PVTZ
    Blend: AUG-CC-PVTZ
    Number of shells: 28
    Number of basis functions: 92
    Number of Cartesian functions: 110
    Spherical Harmonics?: true
    Max angular momentum: 3

   => Loading Basis Set <=

    Name: (AUG-CC-PVTZ AUX)
    Role: JKFIT
    Keyword: DF_BASIS_SCF
    atoms 1 entry LI         line    54 file /home/kchung25/anaconda3/envs/p415env/share/psi4/basis/def2-universal-jkfit.gbs 
    atoms 2 entry F          line   348 file /home/kchung25/anaconda3/envs/p415env/share/psi4/basis/aug-cc-pvtz-jkfit.gbs 

  ==> Integral Setup <==

  ==> DiskDFJK: Density-Fitted J/K Matrices <==

    J tasked:                  Yes
    K tasked:                  Yes
    wK tasked:                  No
    OpenMP threads:              6
    Integrals threads:           6
    Memory [MiB]:            42915
    Algorithm:                Core
    Integral Cache:           LOAD
    Schwarz Cutoff:          1E-12
    Fitting Condition:       1E-10

   => Auxiliary Basis Set <=

  Basis Set: (AUG-CC-PVTZ AUX)
    Blend: AUG-CC-PVTZ-JKFIT + DEF2-UNIVERSAL-JKFIT
    Number of shells: 47
    Number of basis functions: 155
    Number of Cartesian functions: 191
    Spherical Harmonics?: true
    Max angular momentum: 4

  Minimum eigenvalue in the overlap matrix is 1.0173654682E-03.
  Reciprocal condition number of the overlap matrix is 2.0809499356E-04.
    Using symmetric orthogonalization.

  ==> Pre-Iterations <==

  SCF Guess: Superposition of Atomic Densities via on-the-fly atomic UHF (no occupation information).

   -------------------------
    Irrep   Nso     Nmo    
   -------------------------
     A         92      92 
   -------------------------
    Total      92      92
   -------------------------

  ==> Iterations <==

                           Total Energy        Delta E     RMS |[F,P]|

   @DF-RHF iter SAD:    -7.31458347495749   -7.31458e+00   0.00000e+00 
   @DF-RHF iter   1:    -7.23638120885682    7.82023e-02   2.48118e-05 DIIS
   @DF-RHF iter   2:    -7.23638307690969   -1.86805e-06   2.72608e-06 DIIS
   @DF-RHF iter   3:    -7.23638310341632   -2.65066e-08   1.21939e-07 DIIS
   @DF-RHF iter   4:    -7.23638310346037   -4.40483e-11   9.67076e-10 DIIS
  Energy and wave function converged.


  ==> Post-Iterations <==

    Orbital Energies [Eh]
    ---------------------

    Doubly Occupied:                                                      

       1A     -2.792369  

    Virtual:                                                              

       2A     -0.196296     3A     -0.128596     4A     -0.128594  
       5A     -0.128594     6A     -0.073633     7A     -0.056352  
       8A     -0.056335     9A     -0.056335    10A     -0.032080  
      11A     -0.031557    12A     -0.031557    13A     -0.031251  
      14A     -0.031251    15A     -0.006074    16A     -0.003239  
      17A     -0.003239    18A      0.000125    19A      0.086082  
      20A      0.099099    21A      0.099099    22A      0.127713  
      23A      0.127713    24A      0.127823    25A      0.127823  
      26A      0.129642    27A      0.134279    28A      0.134279  
      29A      0.135891    30A      0.135891    31A      0.166424  
      32A      0.208168    33A      0.208168    34A      0.225586  
      35A      0.252848    36A      0.252848    37A      0.292461  
      38A      0.525113    39A      0.525113    40A      0.528663  
      41A      0.533469    42A      0.533469    43A      0.533987  
      44A      0.533987    45A      0.536474    46A      0.562382  
      47A      0.562382    48A      0.571704    49A      0.571704  
      50A      0.766961    51A      0.788120    52A      0.788120  
      53A      0.851529    54A      0.851529    55A      0.900223  
      56A      1.093042    57A      1.093042    58A      1.208539  
      59A      2.639324    60A      2.849064    61A      2.849064  
      62A      2.853368    63A      2.853368    64A      2.889097  
      65A      2.889097    66A      2.902030    67A      2.978391  
      68A      2.978391    69A      3.040334    70A      3.204113  
      71A      3.373417    72A      3.373417    73A      3.527019  
      74A      3.527019    75A      3.627596    76A      9.486862  
      77A      9.907735    78A      9.907735    79A      9.934301  
      80A      9.934301    81A      9.969246    82A      9.974356  
      83A      9.974356    84A     12.728032    85A     12.728032  
      86A     12.808779    87A     12.808779    88A     12.816303  
      89A     14.092310    90A     14.092310    91A     14.260059  
      92A     67.906343  

    Final Occupation by Irrep:
              A 
    DOCC [     1 ]
    NA   [     1 ]
    NB   [     1 ]

  @DF-RHF Final Energy:    -7.23638310346037

   => Energetics <=

    Nuclear Repulsion Energy =              0.0000000000000000
    One-Electron Energy =                  -8.8880277180613270
    Two-Electron Energy =                   1.6516446146009556
    Total Energy =                         -7.2363831034603709

Computation Completed


Properties will be evaluated at   0.000000,   0.000000,   0.000000 [a0]

Properties computed using the SCF density matrix


 Multipole Moments:

 ------------------------------------------------------------------------------------
     Multipole            Electronic (a.u.)      Nuclear  (a.u.)        Total (a.u.)
 ------------------------------------------------------------------------------------

 L = 1.  Multiply by 2.5417464519 to convert [e a0] to [Debye]
 Dipole X            :          0.0000322            0.0000000            0.0000322
 Dipole Y            :         -0.0000000            0.0000000           -0.0000000
 Dipole Z            :          0.0000000            0.0000000            0.0000000
 Magnitude           :                                                    0.0000322

 ------------------------------------------------------------------------------------

*** tstop() called on moses-razer at Thu Dec 28 16:54:37 2023
Module time:
	user time   =       1.83 seconds =       0.03 minutes
	system time =       0.04 seconds =       0.00 minutes
	total time  =          0 seconds =       0.00 minutes
Total time:
	user time   =       4.94 seconds =       0.08 minutes
	system time =       0.23 seconds =       0.00 minutes
	total time  =          1 seconds =       0.02 minutes

  //>>>>>>>>>>>>>>>>>>>>>>>>>>>>>>>>>>>//
  //            Monomer B HF           //
  //<<<<<<<<<<<<<<<<<<<<<<<<<<<<<<<<<<<//

   => Libint2 <=

    Primary   basis highest AM E, G, H:  5, 4, 3
    Auxiliary basis highest AM E, G, H:  6, 5, 4
    Onebody   basis highest AM E, G, H:  6, 5, 4
    Solid Harmonics ordering:            gaussian

*** tstart() called on moses-razer
*** at Thu Dec 28 16:54:37 2023

   => Loading Basis Set <=

    Name: AUG-CC-PVTZ
    Role: ORBITAL
    Keyword: BASIS
    atoms 1 entry LI         line    85 file /home/kchung25/anaconda3/envs/p415env/share/psi4/basis/aug-cc-pvtz.gbs 
    atoms 2 entry F          line   377 file /home/kchung25/anaconda3/envs/p415env/share/psi4/basis/aug-cc-pvtz.gbs 


         ---------------------------------------------------------
                                   SCF
               by Justin Turney, Rob Parrish, Andy Simmonett
                          and Daniel G. A. Smith
                              RHF Reference
                        6 Threads,  57220 MiB Core
         ---------------------------------------------------------

  ==> Geometry <==

    Molecular point group: c1
    Full point group: C_inf_v

    Geometry (in Angstrom), charge = -1, multiplicity = 1:

       Center              X                  Y                   Z               Mass       
    ------------   -----------------  -----------------  -----------------  -----------------
      Gh(LI)          0.000000000000     0.000000000000     0.000000000000     7.016003436600
         F            2.059401000000     0.000000000000     0.000000000000    18.998403162730

  Running in c1 symmetry.

  Rotational constants: A = ************  B =      0.20922  C =      0.20922 [cm^-1]
  Rotational constants: A = ************  B =   6272.17636  C =   6272.17636 [MHz]
  Nuclear repulsion =    0.000000000000000

  Charge       = -1
  Multiplicity = 1
  Electrons    = 10
  Nalpha       = 5
  Nbeta        = 5

  ==> Algorithm <==

  SCF Algorithm Type is DF.
  DIIS enabled.
  MOM disabled.
  Fractional occupation disabled.
  Guess Type is SAD.
  Energy threshold   = 1.00e-08
  Density threshold  = 1.00e-08
  Integral threshold = 1.00e-12

  ==> Primary Basis <==

  Basis Set: AUG-CC-PVTZ
    Blend: AUG-CC-PVTZ
    Number of shells: 28
    Number of basis functions: 92
    Number of Cartesian functions: 110
    Spherical Harmonics?: true
    Max angular momentum: 3

   => Loading Basis Set <=

    Name: (AUG-CC-PVTZ AUX)
    Role: JKFIT
    Keyword: DF_BASIS_SCF
    atoms 1 entry LI         line    54 file /home/kchung25/anaconda3/envs/p415env/share/psi4/basis/def2-universal-jkfit.gbs 
    atoms 2 entry F          line   348 file /home/kchung25/anaconda3/envs/p415env/share/psi4/basis/aug-cc-pvtz-jkfit.gbs 

  ==> Integral Setup <==

  ==> DiskDFJK: Density-Fitted J/K Matrices <==

    J tasked:                  Yes
    K tasked:                  Yes
    wK tasked:                  No
    OpenMP threads:              6
    Integrals threads:           6
    Memory [MiB]:            42915
    Algorithm:                Core
    Integral Cache:           LOAD
    Schwarz Cutoff:          1E-12
    Fitting Condition:       1E-10

   => Auxiliary Basis Set <=

  Basis Set: (AUG-CC-PVTZ AUX)
    Blend: AUG-CC-PVTZ-JKFIT + DEF2-UNIVERSAL-JKFIT
    Number of shells: 47
    Number of basis functions: 155
    Number of Cartesian functions: 191
    Spherical Harmonics?: true
    Max angular momentum: 4

  Minimum eigenvalue in the overlap matrix is 1.0173654682E-03.
  Reciprocal condition number of the overlap matrix is 2.0809499356E-04.
    Using symmetric orthogonalization.

  ==> Pre-Iterations <==

  SCF Guess: Superposition of Atomic Densities via on-the-fly atomic UHF (no occupation information).

   -------------------------
    Irrep   Nso     Nmo    
   -------------------------
     A         92      92 
   -------------------------
    Total      92      92
   -------------------------

  ==> Iterations <==

                           Total Energy        Delta E     RMS |[F,P]|

   @DF-RHF iter SAD:   -98.82535133434772   -9.88254e+01   0.00000e+00 
   @DF-RHF iter   1:   -99.33783082509989   -5.12479e-01   5.93656e-03 DIIS/ADIIS
   @DF-RHF iter   2:   -99.37289405026567   -3.50632e-02   5.79453e-03 DIIS/ADIIS
   @DF-RHF iter   3:   -99.45079763511784   -7.79036e-02   1.60253e-04 DIIS/ADIIS
   @DF-RHF iter   4:   -99.45085844725219   -6.08121e-05   6.67470e-05 DIIS
   @DF-RHF iter   5:   -99.45086830399788   -9.85675e-06   4.52738e-06 DIIS
   @DF-RHF iter   6:   -99.45086840773340   -1.03736e-07   3.74457e-07 DIIS
   @DF-RHF iter   7:   -99.45086840854420   -8.10800e-10   4.54907e-08 DIIS
   @DF-RHF iter   8:   -99.45086840856629   -2.20979e-11   4.29542e-09 DIIS
  Energy and wave function converged.


  ==> Post-Iterations <==

    Orbital Energies [Eh]
    ---------------------

    Doubly Occupied:                                                      

       1A    -25.833801     2A     -1.076060     3A     -0.181033  
       4A     -0.180985     5A     -0.180985  

    Virtual:                                                              

       6A      0.084175     7A      0.094521     8A      0.094521  
       9A      0.112195    10A      0.163467    11A      0.183256  
      12A      0.183256    13A      0.222141    14A      0.247204  
      15A      0.247204    16A      0.260067    17A      0.260067  
      18A      0.264722    19A      0.329523    20A      0.377650  
      21A      0.377650    22A      0.433367    23A      0.457184  
      24A      0.457184    25A      0.462008    26A      0.464937  
      27A      0.464937    28A      0.469504    29A      0.469504  
      30A      0.514214    31A      0.525843    32A      0.525843  
      33A      0.526491    34A      0.526491    35A      0.601523  
      36A      0.601523    37A      0.620192    38A      0.724252  
      39A      0.950760    40A      0.993703    41A      0.993703  
      42A      0.999853    43A      0.999853    44A      1.009665  
      45A      1.009665    46A      1.043621    47A      1.053839  
      48A      1.053839    49A      1.154978    50A      1.154978  
      51A      1.201033    52A      1.201033    53A      1.334187  
      54A      1.334187    55A      1.362239    56A      1.491866  
      57A      1.491866    58A      1.504389    59A      1.735666  
      60A      1.812950    61A      1.812950    62A      2.189185  
      63A      2.588824    64A      3.327773    65A      3.327773  
      66A      3.337044    67A      3.337044    68A      3.375990  
      69A      3.376639    70A      3.376639    71A      3.411668  
      72A      3.411668    73A      3.576874    74A      3.576874  
      75A      3.612066    76A      5.812185    77A      5.812185  
      78A      5.998598    79A      9.278387    80A      9.278387  
      81A      9.309906    82A      9.309906    83A      9.315593  
      84A      9.351532    85A      9.351532    86A      9.798566  
      87A      9.798566    88A      9.871544    89A      9.893709  
      90A      9.893709    91A     10.668191    92A     11.978909  

    Final Occupation by Irrep:
              A 
    DOCC [     5 ]
    NA   [     5 ]
    NB   [     5 ]

  @DF-RHF Final Energy:   -99.45086840856629

   => Energetics <=

    Nuclear Repulsion Energy =              0.0000000000000000
    One-Electron Energy =                -143.9960109399060286
    Two-Electron Energy =                  44.5451425313397351
    Total Energy =                        -99.4508684085662935

Computation Completed


Properties will be evaluated at   0.000000,   0.000000,   0.000000 [a0]

Properties computed using the SCF density matrix


 Multipole Moments:

 ------------------------------------------------------------------------------------
     Multipole            Electronic (a.u.)      Nuclear  (a.u.)        Total (a.u.)
 ------------------------------------------------------------------------------------

 L = 1.  Multiply by 2.5417464519 to convert [e a0] to [Debye]
 Dipole X            :        -38.9168182           35.0253349           -3.8914833
 Dipole Y            :         -0.0000000            0.0000000           -0.0000000
 Dipole Z            :          0.0000000            0.0000000            0.0000000
 Magnitude           :                                                    3.8914833

 ------------------------------------------------------------------------------------

*** tstop() called on moses-razer at Thu Dec 28 16:54:37 2023
Module time:
	user time   =       1.89 seconds =       0.03 minutes
	system time =       0.03 seconds =       0.00 minutes
	total time  =          0 seconds =       0.00 minutes
Total time:
	user time   =       6.86 seconds =       0.11 minutes
	system time =       0.26 seconds =       0.00 minutes
	total time  =          1 seconds =       0.02 minutes
  Constructing Basis Sets for SAPT...

   => Loading Basis Set <=

    Name: (AUG-CC-PVTZ AUX)
    Role: RIFIT
    Keyword: DF_BASIS_SAPT
    atoms 1 entry LI         line    90 file /home/kchung25/anaconda3/envs/p415env/share/psi4/basis/def2-qzvpp-ri.gbs 
    atoms 2 entry F          line   322 file /home/kchung25/anaconda3/envs/p415env/share/psi4/basis/aug-cc-pvtz-ri.gbs 

   => Loading Basis Set <=

    Name: (AUG-CC-PVTZ AUX)
    Role: JKFIT
    Keyword: DF_BASIS_ELST
    atoms 1 entry LI         line    54 file /home/kchung25/anaconda3/envs/p415env/share/psi4/basis/def2-universal-jkfit.gbs 
    atoms 2 entry F          line   348 file /home/kchung25/anaconda3/envs/p415env/share/psi4/basis/aug-cc-pvtz-jkfit.gbs 


  //>>>>>>>>>>>>>>>>>>>>>>>>>>>>>>>>>>>//
  //               SAPT2+              //
  //<<<<<<<<<<<<<<<<<<<<<<<<<<<<<<<<<<<//


*** tstart() called on moses-razer
*** at Thu Dec 28 16:54:37 2023

        SAPT2+  
    Ed Hohenstein
     6 June 2009

      Orbital Information
  --------------------------
    NSO        =        92
    NMO        =        92
    NRI        =       207
    NOCC A     =         1
    NOCC B     =         5
    FOCC A     =         0
    FOCC B     =         0
    NVIR A     =        91
    NVIR B     =        87

    Estimated memory usage: 18.7 MB

    Natural Orbital Cutoff:   1.000E-06
    Disp(T3) Truncation:            Yes
    CCD (vv|vv) Truncation:         Yes
    MBPT T2 Truncation:             Yes

    Monomer A: 86 virtual orbitals dropped
    Monomer B: 32 virtual orbitals dropped

    Elst10,r            =    -0.255237622427 [Eh]
    Exch10 (S^2)        =     0.011705381130 [Eh]
    Exch10              =     0.011740822699 [Eh]
    Ind20,r (A<-B)      =    -0.000265511267 [Eh]
    Ind20,r (B<-A)      =    -0.027926098416 [Eh]
    Ind20,r             =    -0.028191609683 [Eh]
    Exch-Ind20,r (A<-B) =    -0.000024263926 [Eh]
    Exch-Ind20,r (B<-A) =     0.012848890198 [Eh]
    Exch-Ind20,r        =     0.012824626272 [Eh]
    Disp20              =    -0.000437426557 [Eh]
    Disp20 (NO)         =    -0.000350746164 [Eh]
    Exch-Disp20         =     0.000071883393 [Eh]
    Elst12,r            =     0.001614261330 [Eh]
    Exch11              =    -0.000092959911 [Eh]
    Exch12              =     0.003820954945 [Eh]
    Ind22               =    -0.007689292102 [Eh]
    Disp21              =    -0.000040233326 [Eh]
    Disp22 (SDQ)        =    -0.000052842146 [Eh]

    (i =   1 of   5)          0 seconds
    (i =   2 of   5)          0 seconds
    (i =   3 of   5)          0 seconds
    (i =   4 of   5)          0 seconds
    (i =   5 of   5)          0 seconds

    Disp220 (T)         =    -0.000005126022 [Eh]

    (i =   1 of   1)          0 seconds

    Disp202 (T)         =    -0.000033453080 [Eh]

    Disp22 (T)          =    -0.000038579102 [Eh]

    Est. Disp220 (T)    =    -0.000006392823 [Eh]
    Est. Disp202 (T)    =    -0.000041720387 [Eh]

    Est. Disp22 (T)     =    -0.000048113210 [Eh]

    SAPT Results 
  --------------------------------------------------------------------------------------------------------
    Electrostatics               -253.62336110 [mEh]    -159.15106186 [kcal/mol]    -665.88804282 [kJ/mol]
      Elst10,r                   -255.23762243 [mEh]    -160.16402614 [kcal/mol]    -670.12628536 [kJ/mol]
      Elst12,r                      1.61426133 [mEh]       1.01296428 [kcal/mol]       4.23824254 [kJ/mol]

    Exchange                       15.46881773 [mEh]       9.70682968 [kcal/mol]      40.61337536 [kJ/mol]
      Exch10                       11.74082270 [mEh]       7.36747747 [kcal/mol]      30.82552575 [kJ/mol]
      Exch10(S^2)                  11.70538113 [mEh]       7.34523755 [kcal/mol]      30.73247392 [kJ/mol]
      Exch11(S^2)                  -0.09295991 [mEh]      -0.05833322 [kcal/mol]      -0.24406621 [kJ/mol]
      Exch12(S^2)                   3.82095494 [mEh]       2.39768543 [kcal/mol]      10.03191583 [kJ/mol]

    Induction                     -20.59674400 [mEh]     -12.92465199 [kcal/mol]     -54.07674391 [kJ/mol]
      Ind20,r                     -28.19160968 [mEh]     -17.69050216 [kcal/mol]     -74.01706102 [kJ/mol]
      Ind22                        -7.68929210 [mEh]      -4.82510364 [kcal/mol]     -20.18823363 [kJ/mol]
      Exch-Ind20,r                 12.82462627 [mEh]       8.04757448 [kcal/mol]      33.67105164 [kJ/mol]
      Exch-Ind22                    3.49793072 [mEh]       2.19498466 [kcal/mol]       9.18381584 [kJ/mol]
      delta HF,r (2)               -1.03839920 [mEh]      -0.65160534 [kcal/mol]      -2.72631673 [kJ/mol]

    Dispersion                     -0.50673185 [mEh]      -0.31797903 [kcal/mol]      -1.33042428 [kJ/mol]
      Disp20                       -0.43742656 [mEh]      -0.27448931 [kcal/mol]      -1.14846327 [kJ/mol]
      Disp21                       -0.04023333 [mEh]      -0.02524679 [kcal/mol]      -0.10563258 [kJ/mol]
      Disp22 (SDQ)                 -0.05284215 [mEh]      -0.03315895 [kcal/mol]      -0.13873704 [kJ/mol]
      Disp22 (T)                   -0.03857910 [mEh]      -0.02420875 [kcal/mol]      -0.10128942 [kJ/mol]
      Est. Disp22 (T)              -0.04811321 [mEh]      -0.03019150 [kcal/mol]      -0.12632122 [kJ/mol]
      Exch-Disp20                   0.07188339 [mEh]       0.04510751 [kcal/mol]       0.18872982 [kJ/mol]

  Total HF                       -259.90218234 [mEh]    -163.09108167 [kcal/mol]    -682.37308573 [kJ/mol]
  Total SAPT0                    -260.26772551 [mEh]    -163.32046347 [kcal/mol]    -683.33281917 [kJ/mol]
  Total SAPT2                    -259.11683053 [mEh]    -162.59826597 [kcal/mol]    -680.31114482 [kJ/mol]
  Total SAPT2+                   -259.25801921 [mEh]    -162.68686321 [kcal/mol]    -680.68183565 [kJ/mol]

  Special recipe for scaled SAPT0 (see Manual):
    Electrostatics sSAPT0        -255.23762243 [mEh]    -160.16402614 [kcal/mol]    -670.12628536 [kJ/mol]
    Exchange sSAPT0                11.74082270 [mEh]       7.36747747 [kcal/mol]      30.82552575 [kJ/mol]
    Induction sSAPT0              -16.28853828 [mEh]     -10.22121209 [kcal/mol]     -42.76555136 [kJ/mol]
    Dispersion sSAPT0              -0.36488824 [mEh]      -0.22897083 [kcal/mol]      -0.95801394 [kJ/mol]
  Total sSAPT0                   -260.15022625 [mEh]    -163.24673158 [kcal/mol]    -683.02432491 [kJ/mol]
  --------------------------------------------------------------------------------------------------------

*** tstop() called on moses-razer at Thu Dec 28 16:54:38 2023
Module time:
	user time   =       3.99 seconds =       0.07 minutes
	system time =       0.20 seconds =       0.00 minutes
	total time  =          1 seconds =       0.02 minutes
Total time:
	user time   =      11.20 seconds =       0.19 minutes
	system time =       0.46 seconds =       0.01 minutes
	total time  =          2 seconds =       0.03 minutes

    Psi4 stopped on: Thursday, 28 December 2023 04:54PM
    Psi4 wall time for execution: 0:00:02.07

*** Psi4 exiting successfully. Buy a developer a beer!
