
    -----------------------------------------------------------------------
          Psi4: An Open-Source Ab Initio Electronic Structure Package
                               Psi4 1.9 release

                         Git: Rev {} zzzzzzz 


    D. G. A. Smith, L. A. Burns, A. C. Simmonett, R. M. Parrish,
    M. C. Schieber, R. Galvelis, P. Kraus, H. Kruse, R. Di Remigio,
    A. Alenaizan, A. M. James, S. Lehtola, J. P. Misiewicz, M. Scheurer,
    R. A. Shaw, J. B. Schriber, Y. Xie, Z. L. Glick, D. A. Sirianni,
    J. S. O'Brien, J. M. Waldrop, A. Kumar, E. G. Hohenstein,
    B. P. Pritchard, B. R. Brooks, H. F. Schaefer III, A. Yu. Sokolov,
    K. Patkowski, A. E. DePrince III, U. Bozkaya, R. A. King,
    F. A. Evangelista, J. M. Turney, T. D. Crawford, C. D. Sherrill,
    J. Chem. Phys. 152(18) 184108 (2020). https://doi.org/10.1063/5.0006002

                            Additional Code Authors
    E. T. Seidl, C. L. Janssen, E. F. Valeev, M. L. Leininger,
    J. F. Gonthier, R. M. Richard, H. R. McAlexander, M. Saitow, X. Wang,
    P. Verma, M. H. Lechner, A. Jiang, S. Behnle, A. G. Heide,
    M. F. Herbst, and D. L. Poole

             Previous Authors, Complete List of Code Contributors,
                       and Citations for Specific Modules
    https://github.com/psi4/psi4/blob/master/codemeta.json
    https://github.com/psi4/psi4/graphs/contributors
    http://psicode.org/psi4manual/master/introduction.html#citing-psifour

    -----------------------------------------------------------------------


    Psi4 started on: Thursday, 28 December 2023 04:54PM

    Process ID: 88426
    Host:       moses-razer
    PSIDATADIR: /home/kchung25/anaconda3/envs/psi4_19/share/psi4
    Memory:     500.0 MiB
    Threads:    6
    
  ==> Input File <==

--------------------------------------------------------------------------
MEMORY 60 GB

molecule dimer {
1 1
Li     0.000000     0.000000     0.000000
--
-1 1
Cl     1.623838     0.000000     0.000000

units ang
no_reorient
no_com
symmetry c1
}

set {
basis        aug-cc-pVTZ
scf_type     df
}

energy("sapt2+")
--------------------------------------------------------------------------

  Memory set to  55.879 GiB by Python driver.

Scratch directory: /scratch/
   => Loading Basis Set <=

    Name: AUG-CC-PVTZ
    Role: ORBITAL
    Keyword: BASIS
    atoms 1 entry LI         line    85 file /home/kchung25/anaconda3/envs/p415env/share/psi4/basis/aug-cc-pvtz.gbs 
    atoms 2 entry CL         line   988 file /home/kchung25/anaconda3/envs/p415env/share/psi4/basis/aug-cc-pvtz.gbs 

   => Loading Basis Set <=

    Name: AUG-CC-PVTZ
    Role: ORBITAL
    Keyword: BASIS
    atoms 1 entry LI         line    85 file /home/kchung25/anaconda3/envs/p415env/share/psi4/basis/aug-cc-pvtz.gbs 
    atoms 2 entry CL         line   988 file /home/kchung25/anaconda3/envs/p415env/share/psi4/basis/aug-cc-pvtz.gbs 


  //>>>>>>>>>>>>>>>>>>>>>>>>>>>>>>>>>>>//
  //              Dimer HF             //
  //<<<<<<<<<<<<<<<<<<<<<<<<<<<<<<<<<<<//

   => Libint2 <=

    Primary   basis highest AM E, G, H:  5, 4, 3
    Auxiliary basis highest AM E, G, H:  6, 5, 4
    Onebody   basis highest AM E, G, H:  6, 5, 4
    Solid Harmonics ordering:            gaussian

*** tstart() called on moses-razer
*** at Thu Dec 28 16:54:47 2023

   => Loading Basis Set <=

    Name: AUG-CC-PVTZ
    Role: ORBITAL
    Keyword: BASIS
    atoms 1 entry LI         line    85 file /home/kchung25/anaconda3/envs/p415env/share/psi4/basis/aug-cc-pvtz.gbs 
    atoms 2 entry CL         line   988 file /home/kchung25/anaconda3/envs/p415env/share/psi4/basis/aug-cc-pvtz.gbs 


         ---------------------------------------------------------
                                   SCF
               by Justin Turney, Rob Parrish, Andy Simmonett
                          and Daniel G. A. Smith
                              RHF Reference
                        6 Threads,  57220 MiB Core
         ---------------------------------------------------------

  ==> Geometry <==

    Molecular point group: c1
    Full point group: C_inf_v

    Geometry (in Angstrom), charge = 0, multiplicity = 1:

       Center              X                  Y                   Z               Mass       
    ------------   -----------------  -----------------  -----------------  -----------------
         LI           0.000000000000     0.000000000000     0.000000000000     7.016003436600
         CL           1.623838000000     0.000000000000     0.000000000000    34.968852682000

  Running in c1 symmetry.

  Rotational constants: A = ************  B =      0.18282  C =      0.18282 [cm^-1]
  Rotational constants: A = ************  B =   5480.88154  C =   5480.88154 [MHz]
  Nuclear repulsion =   16.619907739669845

  Charge       = 0
  Multiplicity = 1
  Electrons    = 20
  Nalpha       = 10
  Nbeta        = 10

  ==> Algorithm <==

  SCF Algorithm Type is DF.
  DIIS enabled.
  MOM disabled.
  Fractional occupation disabled.
  Guess Type is SAD.
  Energy threshold   = 1.00e-08
  Density threshold  = 1.00e-08
  Integral threshold = 1.00e-12

  ==> Primary Basis <==

  Basis Set: AUG-CC-PVTZ
    Blend: AUG-CC-PVTZ
    Number of shells: 30
    Number of basis functions: 96
    Number of Cartesian functions: 114
    Spherical Harmonics?: true
    Max angular momentum: 3

   => Loading Basis Set <=

    Name: (AUG-CC-PVTZ AUX)
    Role: JKFIT
    Keyword: DF_BASIS_SCF
    atoms 1 entry LI         line    54 file /home/kchung25/anaconda3/envs/p415env/share/psi4/basis/def2-universal-jkfit.gbs 
    atoms 2 entry CL         line   816 file /home/kchung25/anaconda3/envs/p415env/share/psi4/basis/aug-cc-pvtz-jkfit.gbs 

  ==> Integral Setup <==

  ==> DiskDFJK: Density-Fitted J/K Matrices <==

    J tasked:                  Yes
    K tasked:                  Yes
    wK tasked:                  No
    OpenMP threads:              6
    Integrals threads:           6
    Memory [MiB]:            42915
    Algorithm:                Core
    Integral Cache:           SAVE
    Schwarz Cutoff:          1E-12
    Fitting Condition:       1E-10

   => Auxiliary Basis Set <=

  Basis Set: (AUG-CC-PVTZ AUX)
    Blend: AUG-CC-PVTZ-JKFIT + DEF2-UNIVERSAL-JKFIT
    Number of shells: 59
    Number of basis functions: 197
    Number of Cartesian functions: 240
    Spherical Harmonics?: true
    Max angular momentum: 4

  Minimum eigenvalue in the overlap matrix is 2.5294280705E-04.
  Reciprocal condition number of the overlap matrix is 4.6959846183E-05.
    Using symmetric orthogonalization.

  ==> Pre-Iterations <==

  SCF Guess: Superposition of Atomic Densities via on-the-fly atomic UHF (no occupation information).

   -------------------------
    Irrep   Nso     Nmo    
   -------------------------
     A         96      96 
   -------------------------
    Total      96      96
   -------------------------

  ==> Iterations <==

                           Total Energy        Delta E     RMS |[F,P]|

   @DF-RHF iter SAD:  -466.59540543056511   -4.66595e+02   0.00000e+00 
   @DF-RHF iter   1:  -466.95012505123231   -3.54720e-01   3.21818e-03 ADIIS/DIIS
   @DF-RHF iter   2:  -466.99533857214857   -4.52135e-02   1.31018e-03 ADIIS/DIIS
   @DF-RHF iter   3:  -467.00063083663849   -5.29226e-03   7.66528e-05 DIIS
   @DF-RHF iter   4:  -467.00068843393234   -5.75973e-05   2.34898e-05 DIIS
   @DF-RHF iter   5:  -467.00069643703529   -8.00310e-06   6.18815e-06 DIIS
   @DF-RHF iter   6:  -467.00069694363981   -5.06605e-07   1.75370e-06 DIIS
   @DF-RHF iter   7:  -467.00069698337495   -3.97351e-08   2.03739e-07 DIIS
   @DF-RHF iter   8:  -467.00069698386881   -4.93856e-10   3.36401e-08 DIIS
   @DF-RHF iter   9:  -467.00069698388768   -1.88720e-11   5.54008e-09 DIIS
  Energy and wave function converged.


  ==> Post-Iterations <==

    Orbital Energies [Eh]
    ---------------------

    Doubly Occupied:                                                      

       1A   -104.733595     2A    -10.466191     3A     -7.932608  
       4A     -7.931348     5A     -7.931348     6A     -2.451574  
       7A     -1.001264     8A     -0.428059     9A     -0.408784  
      10A     -0.408784  

    Virtual:                                                              

      11A     -0.006912    12A      0.017393    13A      0.017393  
      14A      0.023949    15A      0.026950    16A      0.057950  
      17A      0.057950    18A      0.077948    19A      0.112054  
      20A      0.112054    21A      0.115864    22A      0.117916  
      23A      0.117916    24A      0.122640    25A      0.164778  
      26A      0.164778    27A      0.180809    28A      0.180901  
      29A      0.180901    30A      0.246111    31A      0.285606  
      32A      0.285606    33A      0.295957    34A      0.295957  
      35A      0.314053    36A      0.314053    37A      0.325388  
      38A      0.325388    39A      0.331966    40A      0.334909  
      41A      0.386359    42A      0.386359    43A      0.415786  
      44A      0.415786    45A      0.427857    46A      0.511654  
      47A      0.533120    48A      0.533120    49A      0.581219  
      50A      0.581219    51A      0.651785    52A      0.709090  
      53A      0.709090    54A      0.755694    55A      0.755694  
      56A      0.768903    57A      0.768903    58A      0.777273  
      59A      0.809978    60A      0.809978    61A      0.909554  
      62A      0.909554    63A      0.916002    64A      0.995381  
      65A      0.995381    66A      1.014906    67A      1.136480  
      68A      1.136480    69A      1.249256    70A      1.249256  
      71A      1.287937    72A      1.287937    73A      1.403384  
      74A      1.504405    75A      1.504405    76A      1.544509  
      77A      1.576275    78A      1.733922    79A      1.733922  
      80A      2.704806    81A      2.704806    82A      2.704941  
      83A      2.737017    84A      2.737017    85A      3.050403  
      86A      3.050403    87A      3.152494    88A      3.157895  
      89A      3.157895    90A      3.289448    91A      3.289448  
      92A      3.298332    93A      3.298332    94A      3.367871  
      95A      4.497375    96A      6.390759  

    Final Occupation by Irrep:
              A 
    DOCC [    10 ]
    NA   [    10 ]
    NB   [    10 ]

  @DF-RHF Final Energy:  -467.00069698388768

   => Energetics <=

    Nuclear Repulsion Energy =             16.6199077396698449
    One-Electron Energy =                -679.8540973800406846
    Two-Electron Energy =                 196.2334926564831790
    Total Energy =                       -467.0006969838876216

Computation Completed


Properties will be evaluated at   0.000000,   0.000000,   0.000000 [a0]

Properties computed using the SCF density matrix


 Multipole Moments:

 ------------------------------------------------------------------------------------
     Multipole            Electronic (a.u.)      Nuclear  (a.u.)        Total (a.u.)
 ------------------------------------------------------------------------------------

 L = 1.  Multiply by 2.5417464519 to convert [e a0] to [Debye]
 Dipole X            :        -54.3824596           52.1663546           -2.2161050
 Dipole Y            :         -0.0000000            0.0000000           -0.0000000
 Dipole Z            :          0.0000000            0.0000000            0.0000000
 Magnitude           :                                                    2.2161050

 ------------------------------------------------------------------------------------

*** tstop() called on moses-razer at Thu Dec 28 16:54:48 2023
Module time:
	user time   =       4.20 seconds =       0.07 minutes
	system time =       0.38 seconds =       0.01 minutes
	total time  =          1 seconds =       0.02 minutes
Total time:
	user time   =       4.20 seconds =       0.07 minutes
	system time =       0.38 seconds =       0.01 minutes
	total time  =          1 seconds =       0.02 minutes

  //>>>>>>>>>>>>>>>>>>>>>>>>>>>>>>>>>>>//
  //            Monomer A HF           //
  //<<<<<<<<<<<<<<<<<<<<<<<<<<<<<<<<<<<//

   => Libint2 <=

    Primary   basis highest AM E, G, H:  5, 4, 3
    Auxiliary basis highest AM E, G, H:  6, 5, 4
    Onebody   basis highest AM E, G, H:  6, 5, 4
    Solid Harmonics ordering:            gaussian

*** tstart() called on moses-razer
*** at Thu Dec 28 16:54:48 2023

   => Loading Basis Set <=

    Name: AUG-CC-PVTZ
    Role: ORBITAL
    Keyword: BASIS
    atoms 1 entry LI         line    85 file /home/kchung25/anaconda3/envs/p415env/share/psi4/basis/aug-cc-pvtz.gbs 
    atoms 2 entry CL         line   988 file /home/kchung25/anaconda3/envs/p415env/share/psi4/basis/aug-cc-pvtz.gbs 


         ---------------------------------------------------------
                                   SCF
               by Justin Turney, Rob Parrish, Andy Simmonett
                          and Daniel G. A. Smith
                              RHF Reference
                        6 Threads,  57220 MiB Core
         ---------------------------------------------------------

  ==> Geometry <==

    Molecular point group: c1
    Full point group: C_inf_v

    Geometry (in Angstrom), charge = 1, multiplicity = 1:

       Center              X                  Y                   Z               Mass       
    ------------   -----------------  -----------------  -----------------  -----------------
         LI           0.000000000000     0.000000000000     0.000000000000     7.016003436600
      Gh(CL)          1.623838000000     0.000000000000     0.000000000000    34.968852682000

  Running in c1 symmetry.

  Rotational constants: A = ************  B =      0.18282  C =      0.18282 [cm^-1]
  Rotational constants: A = ************  B =   5480.88154  C =   5480.88154 [MHz]
  Nuclear repulsion =    0.000000000000000

  Charge       = 1
  Multiplicity = 1
  Electrons    = 2
  Nalpha       = 1
  Nbeta        = 1

  ==> Algorithm <==

  SCF Algorithm Type is DF.
  DIIS enabled.
  MOM disabled.
  Fractional occupation disabled.
  Guess Type is SAD.
  Energy threshold   = 1.00e-08
  Density threshold  = 1.00e-08
  Integral threshold = 1.00e-12

  ==> Primary Basis <==

  Basis Set: AUG-CC-PVTZ
    Blend: AUG-CC-PVTZ
    Number of shells: 30
    Number of basis functions: 96
    Number of Cartesian functions: 114
    Spherical Harmonics?: true
    Max angular momentum: 3

   => Loading Basis Set <=

    Name: (AUG-CC-PVTZ AUX)
    Role: JKFIT
    Keyword: DF_BASIS_SCF
    atoms 1 entry LI         line    54 file /home/kchung25/anaconda3/envs/p415env/share/psi4/basis/def2-universal-jkfit.gbs 
    atoms 2 entry CL         line   816 file /home/kchung25/anaconda3/envs/p415env/share/psi4/basis/aug-cc-pvtz-jkfit.gbs 

  ==> Integral Setup <==

  ==> DiskDFJK: Density-Fitted J/K Matrices <==

    J tasked:                  Yes
    K tasked:                  Yes
    wK tasked:                  No
    OpenMP threads:              6
    Integrals threads:           6
    Memory [MiB]:            42915
    Algorithm:                Core
    Integral Cache:           LOAD
    Schwarz Cutoff:          1E-12
    Fitting Condition:       1E-10

   => Auxiliary Basis Set <=

  Basis Set: (AUG-CC-PVTZ AUX)
    Blend: AUG-CC-PVTZ-JKFIT + DEF2-UNIVERSAL-JKFIT
    Number of shells: 59
    Number of basis functions: 197
    Number of Cartesian functions: 240
    Spherical Harmonics?: true
    Max angular momentum: 4

  Minimum eigenvalue in the overlap matrix is 2.5294280705E-04.
  Reciprocal condition number of the overlap matrix is 4.6959846183E-05.
    Using symmetric orthogonalization.

  ==> Pre-Iterations <==

  SCF Guess: Superposition of Atomic Densities via on-the-fly atomic UHF (no occupation information).

   -------------------------
    Irrep   Nso     Nmo    
   -------------------------
     A         96      96 
   -------------------------
    Total      96      96
   -------------------------

  ==> Iterations <==

                           Total Energy        Delta E     RMS |[F,P]|

   @DF-RHF iter SAD:    -7.31454638026306   -7.31455e+00   0.00000e+00 
   @DF-RHF iter   1:    -7.23638171159251    7.81647e-02   2.37632e-05 DIIS
   @DF-RHF iter   2:    -7.23638361133921   -1.89975e-06   2.79000e-06 DIIS
   @DF-RHF iter   3:    -7.23638364110200   -2.97628e-08   1.50229e-07 DIIS
   @DF-RHF iter   4:    -7.23638364116664   -6.46416e-11   1.19143e-09 DIIS
  Energy and wave function converged.


  ==> Post-Iterations <==

    Orbital Energies [Eh]
    ---------------------

    Doubly Occupied:                                                      

       1A     -2.792361  

    Virtual:                                                              

       2A     -0.196298     3A     -0.128597     4A     -0.128594  
       5A     -0.128594     6A     -0.073722     7A     -0.056364  
       8A     -0.056359     9A     -0.056359    10A     -0.035322  
      11A     -0.033303    12A     -0.033303    13A     -0.031280  
      14A     -0.031280    15A     -0.012029    16A     -0.005643  
      17A     -0.005643    18A     -0.005625    19A      0.038187  
      20A      0.038292    21A      0.038292    22A      0.104874  
      23A      0.124868    24A      0.124868    25A      0.125389  
      26A      0.125389    27A      0.127787    28A      0.127787  
      29A      0.135667    30A      0.135667    31A      0.164150  
      32A      0.168520    33A      0.168998    34A      0.168998  
      35A      0.224816    36A      0.225731    37A      0.225731  
      38A      0.354328    39A      0.354328    40A      0.360137  
      41A      0.392597    42A      0.392597    43A      0.411219  
      44A      0.498236    45A      0.498236    46A      0.526042  
      47A      0.526042    48A      0.533814    49A      0.533814  
      50A      0.573807    51A      0.573807    52A      0.587242  
      53A      0.589858    54A      0.589858    55A      0.607044  
      56A      0.745852    57A      0.745852    58A      0.834604  
      59A      1.104663    60A      1.104663    61A      1.235357  
      62A      1.235357    63A      1.247991    64A      1.287566  
      65A      1.337942    66A      1.337942    67A      1.355723  
      68A      1.355723    69A      1.407274    70A      1.407274  
      71A      1.571945    72A      1.603229    73A      1.603229  
      74A      1.671048    75A      3.666857    76A      3.666857  
      77A      3.698092    78A      3.748311    79A      3.799901  
      80A      3.799901    81A      3.800987    82A      3.800987  
      83A      3.836012    84A      3.836012    85A      4.157355  
      86A      4.360750    87A      4.461082    88A      4.461082  
      89A      4.518506    90A      4.518506    91A      4.886075  
      92A     14.572756    93A     27.670590    94A     27.670590  
      95A     28.036177    96A    160.572398  

    Final Occupation by Irrep:
              A 
    DOCC [     1 ]
    NA   [     1 ]
    NB   [     1 ]

  @DF-RHF Final Energy:    -7.23638364116664

   => Energetics <=

    Nuclear Repulsion Energy =              0.0000000000000000
    One-Electron Energy =                  -8.8880452425360108
    Two-Electron Energy =                   1.6516616013693708
    Total Energy =                         -7.2363836411666398

Computation Completed


Properties will be evaluated at   0.000000,   0.000000,   0.000000 [a0]

Properties computed using the SCF density matrix


 Multipole Moments:

 ------------------------------------------------------------------------------------
     Multipole            Electronic (a.u.)      Nuclear  (a.u.)        Total (a.u.)
 ------------------------------------------------------------------------------------

 L = 1.  Multiply by 2.5417464519 to convert [e a0] to [Debye]
 Dipole X            :          0.0000127            0.0000000            0.0000127
 Dipole Y            :          0.0000000            0.0000000            0.0000000
 Dipole Z            :          0.0000000            0.0000000            0.0000000
 Magnitude           :                                                    0.0000127

 ------------------------------------------------------------------------------------

*** tstop() called on moses-razer at Thu Dec 28 16:54:48 2023
Module time:
	user time   =       2.29 seconds =       0.04 minutes
	system time =       0.17 seconds =       0.00 minutes
	total time  =          0 seconds =       0.00 minutes
Total time:
	user time   =       6.52 seconds =       0.11 minutes
	system time =       0.56 seconds =       0.01 minutes
	total time  =          1 seconds =       0.02 minutes

  //>>>>>>>>>>>>>>>>>>>>>>>>>>>>>>>>>>>//
  //            Monomer B HF           //
  //<<<<<<<<<<<<<<<<<<<<<<<<<<<<<<<<<<<//

   => Libint2 <=

    Primary   basis highest AM E, G, H:  5, 4, 3
    Auxiliary basis highest AM E, G, H:  6, 5, 4
    Onebody   basis highest AM E, G, H:  6, 5, 4
    Solid Harmonics ordering:            gaussian

*** tstart() called on moses-razer
*** at Thu Dec 28 16:54:48 2023

   => Loading Basis Set <=

    Name: AUG-CC-PVTZ
    Role: ORBITAL
    Keyword: BASIS
    atoms 1 entry LI         line    85 file /home/kchung25/anaconda3/envs/p415env/share/psi4/basis/aug-cc-pvtz.gbs 
    atoms 2 entry CL         line   988 file /home/kchung25/anaconda3/envs/p415env/share/psi4/basis/aug-cc-pvtz.gbs 


         ---------------------------------------------------------
                                   SCF
               by Justin Turney, Rob Parrish, Andy Simmonett
                          and Daniel G. A. Smith
                              RHF Reference
                        6 Threads,  57220 MiB Core
         ---------------------------------------------------------

  ==> Geometry <==

    Molecular point group: c1
    Full point group: C_inf_v

    Geometry (in Angstrom), charge = -1, multiplicity = 1:

       Center              X                  Y                   Z               Mass       
    ------------   -----------------  -----------------  -----------------  -----------------
      Gh(LI)          0.000000000000     0.000000000000     0.000000000000     7.016003436600
         CL           1.623838000000     0.000000000000     0.000000000000    34.968852682000

  Running in c1 symmetry.

  Rotational constants: A = ************  B =      0.18282  C =      0.18282 [cm^-1]
  Rotational constants: A = ************  B =   5480.88154  C =   5480.88154 [MHz]
  Nuclear repulsion =    0.000000000000000

  Charge       = -1
  Multiplicity = 1
  Electrons    = 18
  Nalpha       = 9
  Nbeta        = 9

  ==> Algorithm <==

  SCF Algorithm Type is DF.
  DIIS enabled.
  MOM disabled.
  Fractional occupation disabled.
  Guess Type is SAD.
  Energy threshold   = 1.00e-08
  Density threshold  = 1.00e-08
  Integral threshold = 1.00e-12

  ==> Primary Basis <==

  Basis Set: AUG-CC-PVTZ
    Blend: AUG-CC-PVTZ
    Number of shells: 30
    Number of basis functions: 96
    Number of Cartesian functions: 114
    Spherical Harmonics?: true
    Max angular momentum: 3

   => Loading Basis Set <=

    Name: (AUG-CC-PVTZ AUX)
    Role: JKFIT
    Keyword: DF_BASIS_SCF
    atoms 1 entry LI         line    54 file /home/kchung25/anaconda3/envs/p415env/share/psi4/basis/def2-universal-jkfit.gbs 
    atoms 2 entry CL         line   816 file /home/kchung25/anaconda3/envs/p415env/share/psi4/basis/aug-cc-pvtz-jkfit.gbs 

  ==> Integral Setup <==

  ==> DiskDFJK: Density-Fitted J/K Matrices <==

    J tasked:                  Yes
    K tasked:                  Yes
    wK tasked:                  No
    OpenMP threads:              6
    Integrals threads:           6
    Memory [MiB]:            42915
    Algorithm:                Core
    Integral Cache:           LOAD
    Schwarz Cutoff:          1E-12
    Fitting Condition:       1E-10

   => Auxiliary Basis Set <=

  Basis Set: (AUG-CC-PVTZ AUX)
    Blend: AUG-CC-PVTZ-JKFIT + DEF2-UNIVERSAL-JKFIT
    Number of shells: 59
    Number of basis functions: 197
    Number of Cartesian functions: 240
    Spherical Harmonics?: true
    Max angular momentum: 4

  Minimum eigenvalue in the overlap matrix is 2.5294280705E-04.
  Reciprocal condition number of the overlap matrix is 4.6959846183E-05.
    Using symmetric orthogonalization.

  ==> Pre-Iterations <==

  SCF Guess: Superposition of Atomic Densities via on-the-fly atomic UHF (no occupation information).

   -------------------------
    Irrep   Nso     Nmo    
   -------------------------
     A         96      96 
   -------------------------
    Total      96      96
   -------------------------

  ==> Iterations <==

                           Total Energy        Delta E     RMS |[F,P]|

   @DF-RHF iter SAD:  -459.11248998656703   -4.59112e+02   0.00000e+00 
   @DF-RHF iter   1:  -459.51384048290834   -4.01350e-01   3.10972e-03 ADIIS/DIIS
   @DF-RHF iter   2:  -459.56475666112863   -5.09162e-02   1.59295e-03 ADIIS/DIIS
   @DF-RHF iter   3:  -459.57346606950989   -8.70941e-03   1.03007e-04 ADIIS/DIIS
   @DF-RHF iter   4:  -459.57351904990986   -5.29804e-05   2.16821e-05 DIIS
   @DF-RHF iter   5:  -459.57352264246344   -3.59255e-06   2.18895e-06 DIIS
   @DF-RHF iter   6:  -459.57352272127378   -7.88103e-08   1.92185e-07 DIIS
   @DF-RHF iter   7:  -459.57352272216895   -8.95170e-10   2.28506e-08 DIIS
   @DF-RHF iter   8:  -459.57352272218827   -1.93268e-11   3.91527e-09 DIIS
  Energy and wave function converged.


  ==> Post-Iterations <==

    Orbital Energies [Eh]
    ---------------------

    Doubly Occupied:                                                      

       1A   -104.506837     2A    -10.229968     3A     -7.696031  
       4A     -7.696031     5A     -7.695989     6A     -0.733496  
       7A     -0.150329     8A     -0.150329     9A     -0.150320  

    Virtual:                                                              

      10A      0.086203    11A      0.093705    12A      0.093705  
      13A      0.103970    14A      0.165070    15A      0.181393  
      16A      0.181393    17A      0.211669    18A      0.250646  
      19A      0.250646    20A      0.254425    21A      0.254737  
      22A      0.254737    23A      0.291158    24A      0.303565  
      25A      0.303565    26A      0.332557    27A      0.381560  
      28A      0.381560    29A      0.431292    30A      0.455041  
      31A      0.455041    32A      0.463493    33A      0.463493  
      34A      0.518401    35A      0.518814    36A      0.518814  
      37A      0.519376    38A      0.519376    39A      0.555384  
      40A      0.573943    41A      0.573943    42A      0.610059  
      43A      0.681298    44A      0.681298    45A      0.703732  
      46A      0.735562    47A      0.735562    48A      0.841016  
      49A      0.841016    50A      0.931829    51A      0.951534  
      52A      0.951534    53A      1.006597    54A      1.006597  
      55A      1.053642    56A      1.100193    57A      1.100193  
      58A      1.141047    59A      1.141047    60A      1.194229  
      61A      1.201383    62A      1.201383    63A      1.310792  
      64A      1.331275    65A      1.331275    66A      1.376479  
      67A      1.376479    68A      1.481144    69A      1.522771  
      70A      1.522771    71A      1.595972    72A      1.595972  
      73A      1.757129    74A      1.757129    75A      1.760288  
      76A      2.244462    77A      2.274478    78A      2.274478  
      79A      2.510551    80A      2.947830    81A      2.947830  
      82A      3.007487    83A      3.007487    84A      3.057283  
      85A      3.320679    86A      3.320679    87A      3.403868  
      88A      3.403868    89A      3.434079    90A      3.545742  
      91A      3.545742    92A      3.588169    93A      3.588169  
      94A      3.960478    95A      6.547033    96A     12.353395  

    Final Occupation by Irrep:
              A 
    DOCC [     9 ]
    NA   [     9 ]
    NB   [     9 ]

  @DF-RHF Final Energy:  -459.57352272218827

   => Energetics <=

    Nuclear Repulsion Energy =              0.0000000000000000
    One-Electron Energy =                -641.1283864697355739
    Two-Electron Energy =                 181.5548637475473299
    Total Energy =                       -459.5735227221882724

Computation Completed


Properties will be evaluated at   0.000000,   0.000000,   0.000000 [a0]

Properties computed using the SCF density matrix


 Multipole Moments:

 ------------------------------------------------------------------------------------
     Multipole            Electronic (a.u.)      Nuclear  (a.u.)        Total (a.u.)
 ------------------------------------------------------------------------------------

 L = 1.  Multiply by 2.5417464519 to convert [e a0] to [Debye]
 Dipole X            :        -55.2359165           52.1663546           -3.0695620
 Dipole Y            :         -0.0000000            0.0000000           -0.0000000
 Dipole Z            :          0.0000000            0.0000000            0.0000000
 Magnitude           :                                                    3.0695620

 ------------------------------------------------------------------------------------

*** tstop() called on moses-razer at Thu Dec 28 16:54:49 2023
Module time:
	user time   =       2.96 seconds =       0.05 minutes
	system time =       0.26 seconds =       0.00 minutes
	total time  =          1 seconds =       0.02 minutes
Total time:
	user time   =       9.51 seconds =       0.16 minutes
	system time =       0.82 seconds =       0.01 minutes
	total time  =          2 seconds =       0.03 minutes
  Constructing Basis Sets for SAPT...

   => Loading Basis Set <=

    Name: (AUG-CC-PVTZ AUX)
    Role: RIFIT
    Keyword: DF_BASIS_SAPT
    atoms 1 entry LI         line    90 file /home/kchung25/anaconda3/envs/p415env/share/psi4/basis/def2-qzvpp-ri.gbs 
    atoms 2 entry CL         line   742 file /home/kchung25/anaconda3/envs/p415env/share/psi4/basis/aug-cc-pvtz-ri.gbs 

   => Loading Basis Set <=

    Name: (AUG-CC-PVTZ AUX)
    Role: JKFIT
    Keyword: DF_BASIS_ELST
    atoms 1 entry LI         line    54 file /home/kchung25/anaconda3/envs/p415env/share/psi4/basis/def2-universal-jkfit.gbs 
    atoms 2 entry CL         line   816 file /home/kchung25/anaconda3/envs/p415env/share/psi4/basis/aug-cc-pvtz-jkfit.gbs 


  //>>>>>>>>>>>>>>>>>>>>>>>>>>>>>>>>>>>//
  //               SAPT2+              //
  //<<<<<<<<<<<<<<<<<<<<<<<<<<<<<<<<<<<//


*** tstart() called on moses-razer
*** at Thu Dec 28 16:54:49 2023

        SAPT2+  
    Ed Hohenstein
     6 June 2009

      Orbital Information
  --------------------------
    NSO        =        96
    NMO        =        96
    NRI        =       248
    NOCC A     =         1
    NOCC B     =         9
    FOCC A     =         0
    FOCC B     =         0
    NVIR A     =        95
    NVIR B     =        87

    Estimated memory usage: 35.5 MB

    Natural Orbital Cutoff:   1.000E-06
    Disp(T3) Truncation:            Yes
    CCD (vv|vv) Truncation:         Yes
    MBPT T2 Truncation:             Yes

    Monomer A: 90 virtual orbitals dropped
    Monomer B: 19 virtual orbitals dropped

    Elst10,r            =    -0.292372331679 [Eh]
    Exch10 (S^2)        =     0.167449174669 [Eh]
    Exch10              =     0.174776555791 [Eh]
    Ind20,r (A<-B)      =    -0.000890380229 [Eh]
    Ind20,r (B<-A)      =    -0.168619074212 [Eh]
    Ind20,r             =    -0.169509454441 [Eh]
    Exch-Ind20,r (A<-B) =     0.000478177171 [Eh]
    Exch-Ind20,r (B<-A) =     0.118615626243 [Eh]
    Exch-Ind20,r        =     0.119093803414 [Eh]
    Disp20              =    -0.004689894359 [Eh]
    Disp20 (NO)         =    -0.003942925755 [Eh]
    Exch-Disp20         =     0.000470098683 [Eh]
    Elst12,r            =     0.004227583815 [Eh]
    Exch11              =    -0.003092356636 [Eh]
    Exch12              =     0.000744717069 [Eh]
    Ind22               =    -0.008039502844 [Eh]
    Disp21              =    -0.000079445093 [Eh]
    Disp22 (SDQ)        =     0.000049634133 [Eh]

    (i =   1 of   9)          0 seconds
    (i =   2 of   9)          0 seconds
    (i =   3 of   9)          0 seconds
    (i =   4 of   9)          0 seconds
    (i =   5 of   9)          0 seconds
    (i =   6 of   9)          0 seconds
    (i =   7 of   9)          0 seconds
    (i =   8 of   9)          0 seconds
    (i =   9 of   9)          0 seconds

    Disp220 (T)         =    -0.000047968564 [Eh]

    (i =   1 of   1)          0 seconds

    Disp202 (T)         =    -0.000171069921 [Eh]

    Disp22 (T)          =    -0.000219038485 [Eh]

    Est. Disp220 (T)    =    -0.000057055981 [Eh]
    Est. Disp202 (T)    =    -0.000203478307 [Eh]

    Est. Disp22 (T)     =    -0.000260534288 [Eh]

    SAPT Results 
  --------------------------------------------------------------------------------------------------------
    Electrostatics               -288.14474786 [mEh]    -180.81355910 [kcal/mol]    -756.52393129 [kJ/mol]
      Elst10,r                   -292.37233168 [mEh]    -183.46640800 [kcal/mol]    -767.62345107 [kJ/mol]
      Elst12,r                      4.22758382 [mEh]       2.65284890 [kcal/mol]      11.09951978 [kJ/mol]

    Exchange                      172.42891622 [mEh]     108.20077848 [kcal/mol]     452.71205718 [kJ/mol]
      Exch10                      174.77655579 [mEh]     109.67394455 [kcal/mol]     458.87578401 [kJ/mol]
      Exch10(S^2)                 167.44917467 [mEh]     105.07594348 [kcal/mol]     439.63774753 [kJ/mol]
      Exch11(S^2)                  -3.09235664 [mEh]      -1.94048309 [kcal/mol]      -8.11898123 [kJ/mol]
      Exch12(S^2)                   0.74471707 [mEh]       0.46731702 [kcal/mol]       1.95525440 [kJ/mol]

    Induction                     -75.58596065 [mEh]     -47.43090639 [kcal/mol]    -198.45091235 [kJ/mol]
      Ind20,r                    -169.50945444 [mEh]    -106.36878856 [kcal/mol]    -445.04701132 [kJ/mol]
      Ind22                        -8.03950284 [mEh]      -5.04486420 [kcal/mol]     -21.10771181 [kJ/mol]
      Exch-Ind20,r                119.09380341 [mEh]      74.73248991 [kcal/mol]     312.68073779 [kJ/mol]
      Exch-Ind22                    5.64838684 [mEh]       3.54441625 [kcal/mol]      14.82983760 [kJ/mol]
      delta HF,r (2)              -22.77919362 [mEh]     -14.29415980 [kcal/mol]     -59.80676460 [kJ/mol]

    Dispersion                     -4.51014092 [mEh]      -2.83015616 [kcal/mol]     -11.84137336 [kJ/mol]
      Disp20                       -4.68989436 [mEh]      -2.94295314 [kcal/mol]     -12.31331594 [kJ/mol]
      Disp21                       -0.07944509 [mEh]      -0.04985255 [kcal/mol]      -0.20858306 [kJ/mol]
      Disp22 (SDQ)                  0.04963413 [mEh]       0.03114589 [kcal/mol]       0.13031440 [kJ/mol]
      Disp22 (T)                   -0.21903848 [mEh]      -0.13744872 [kcal/mol]      -0.57508546 [kJ/mol]
      Est. Disp22 (T)              -0.26053429 [mEh]      -0.16348773 [kcal/mol]      -0.68403268 [kJ/mol]
      Exch-Disp20                   0.47009868 [mEh]       0.29499138 [kcal/mol]       1.23424392 [kJ/mol]

  Total HF                       -190.79062053 [mEh]    -119.72292189 [kcal/mol]    -500.92070520 [kJ/mol]
  Total SAPT0                    -195.01041621 [mEh]    -122.37088366 [kcal/mol]    -511.99977722 [kJ/mol]
  Total SAPT2                    -195.52158797 [mEh]    -122.69164878 [kcal/mol]    -513.34185849 [kJ/mol]
  Total SAPT2+                   -195.81193322 [mEh]    -122.87384317 [kcal/mol]    -514.10415983 [kJ/mol]

  Special recipe for scaled SAPT0 (see Manual):
    Electrostatics sSAPT0        -292.37233168 [mEh]    -183.46640800 [kcal/mol]    -767.62345107 [kJ/mol]
    Exchange sSAPT0               174.77655579 [mEh]     109.67394455 [kcal/mol]     458.87578401 [kJ/mol]
    Induction sSAPT0              -56.86651147 [mEh]     -35.68427469 [kcal/mol]    -149.30300528 [kJ/mol]
    Dispersion sSAPT0              -4.15534289 [mEh]      -2.60751703 [kcal/mol]     -10.90985124 [kJ/mol]
  Total sSAPT0                   -178.61763024 [mEh]    -112.08425516 [kcal/mol]    -468.96052359 [kJ/mol]
  --------------------------------------------------------------------------------------------------------

*** tstop() called on moses-razer at Thu Dec 28 16:54:51 2023
Module time:
	user time   =       7.01 seconds =       0.12 minutes
	system time =       0.42 seconds =       0.01 minutes
	total time  =          2 seconds =       0.03 minutes
Total time:
	user time   =      16.83 seconds =       0.28 minutes
	system time =       1.25 seconds =       0.02 minutes
	total time  =          4 seconds =       0.07 minutes

    Psi4 stopped on: Thursday, 28 December 2023 04:54PM
    Psi4 wall time for execution: 0:00:03.91

*** Psi4 exiting successfully. Buy a developer a beer!
