
    -----------------------------------------------------------------------
          Psi4: An Open-Source Ab Initio Electronic Structure Package
                               Psi4 1.9 release

                         Git: Rev {} zzzzzzz 


    D. G. A. Smith, L. A. Burns, A. C. Simmonett, R. M. Parrish,
    M. C. Schieber, R. Galvelis, P. Kraus, H. Kruse, R. Di Remigio,
    A. Alenaizan, A. M. James, S. Lehtola, J. P. Misiewicz, M. Scheurer,
    R. A. Shaw, J. B. Schriber, Y. Xie, Z. L. Glick, D. A. Sirianni,
    J. S. O'Brien, J. M. Waldrop, A. Kumar, E. G. Hohenstein,
    B. P. Pritchard, B. R. Brooks, H. F. Schaefer III, A. Yu. Sokolov,
    K. Patkowski, A. E. DePrince III, U. Bozkaya, R. A. King,
    F. A. Evangelista, J. M. Turney, T. D. Crawford, C. D. Sherrill,
    J. Chem. Phys. 152(18) 184108 (2020). https://doi.org/10.1063/5.0006002

                            Additional Code Authors
    E. T. Seidl, C. L. Janssen, E. F. Valeev, M. L. Leininger,
    J. F. Gonthier, R. M. Richard, H. R. McAlexander, M. Saitow, X. Wang,
    P. Verma, M. H. Lechner, A. Jiang, S. Behnle, A. G. Heide,
    M. F. Herbst, and D. L. Poole

             Previous Authors, Complete List of Code Contributors,
                       and Citations for Specific Modules
    https://github.com/psi4/psi4/blob/master/codemeta.json
    https://github.com/psi4/psi4/graphs/contributors
    http://psicode.org/psi4manual/master/introduction.html#citing-psifour

    -----------------------------------------------------------------------


    Psi4 started on: Thursday, 28 December 2023 05:16PM

    Process ID: 92960
    Host:       moses-razer
    PSIDATADIR: /home/kchung25/anaconda3/envs/psi4_19/share/psi4
    Memory:     500.0 MiB
    Threads:    6
    
  ==> Input File <==

--------------------------------------------------------------------------
MEMORY 60 GB

molecule dimer {
1 1
K      0.000000     0.000000     0.000000
--
-1 1
Br     2.509830     0.000000     0.000000

units ang
no_reorient
no_com
symmetry c1
}

set {
basis        aug-cc-pVTZ
scf_type     df
}

energy("sapt2+")
--------------------------------------------------------------------------

  Memory set to  55.879 GiB by Python driver.

Scratch directory: /scratch/
   => Loading Basis Set <=

    Name: AUG-CC-PVTZ
    Role: ORBITAL
    Keyword: BASIS
    atoms 1 entry K          line  1152 file /home/kchung25/anaconda3/envs/p415env/share/psi4/basis/aug-cc-pvtz.gbs 
    atoms 2 entry BR         line  4564 file /home/kchung25/anaconda3/envs/p415env/share/psi4/basis/aug-cc-pvtz.gbs 

   => Loading Basis Set <=

    Name: AUG-CC-PVTZ
    Role: ORBITAL
    Keyword: BASIS
    atoms 1 entry K          line  1152 file /home/kchung25/anaconda3/envs/p415env/share/psi4/basis/aug-cc-pvtz.gbs 
    atoms 2 entry BR         line  4564 file /home/kchung25/anaconda3/envs/p415env/share/psi4/basis/aug-cc-pvtz.gbs 


  //>>>>>>>>>>>>>>>>>>>>>>>>>>>>>>>>>>>//
  //              Dimer HF             //
  //<<<<<<<<<<<<<<<<<<<<<<<<<<<<<<<<<<<//

   => Libint2 <=

    Primary   basis highest AM E, G, H:  5, 4, 3
    Auxiliary basis highest AM E, G, H:  6, 5, 4
    Onebody   basis highest AM E, G, H:  6, 5, 4
    Solid Harmonics ordering:            gaussian

*** tstart() called on moses-razer
*** at Thu Dec 28 17:16:11 2023

   => Loading Basis Set <=

    Name: AUG-CC-PVTZ
    Role: ORBITAL
    Keyword: BASIS
    atoms 1 entry K          line  1152 file /home/kchung25/anaconda3/envs/p415env/share/psi4/basis/aug-cc-pvtz.gbs 
    atoms 2 entry BR         line  4564 file /home/kchung25/anaconda3/envs/p415env/share/psi4/basis/aug-cc-pvtz.gbs 


         ---------------------------------------------------------
                                   SCF
               by Justin Turney, Rob Parrish, Andy Simmonett
                          and Daniel G. A. Smith
                              RHF Reference
                        6 Threads,  57220 MiB Core
         ---------------------------------------------------------

  ==> Geometry <==

    Molecular point group: c1
    Full point group: C_inf_v

    Geometry (in Angstrom), charge = 0, multiplicity = 1:

       Center              X                  Y                   Z               Mass       
    ------------   -----------------  -----------------  -----------------  -----------------
         K            0.000000000000     0.000000000000     0.000000000000    38.963706486400
         BR           2.509830000000     0.000000000000     0.000000000000    78.918337600000

  Running in c1 symmetry.

  Rotational constants: A = ************  B =      0.03391  C =      0.03391 [cm^-1]
  Rotational constants: A = ************  B =   1016.60130  C =   1016.60130 [MHz]
  Nuclear repulsion =  140.209832974962467

  Charge       = 0
  Multiplicity = 1
  Electrons    = 54
  Nalpha       = 27
  Nbeta        = 27

  ==> Algorithm <==

  SCF Algorithm Type is DF.
  DIIS enabled.
  MOM disabled.
  Fractional occupation disabled.
  Guess Type is SAD.
  Energy threshold   = 1.00e-08
  Density threshold  = 1.00e-08
  Integral threshold = 1.00e-12

  ==> Primary Basis <==

  Basis Set: AUG-CC-PVTZ
    Blend: AUG-CC-PVTZ
    Number of shells: 38
    Number of basis functions: 118
    Number of Cartesian functions: 138
    Spherical Harmonics?: true
    Max angular momentum: 3

   => Loading Basis Set <=

    Name: (AUG-CC-PVTZ AUX)
    Role: JKFIT
    Keyword: DF_BASIS_SCF
    atoms 1 entry K          line  1152 file /home/kchung25/anaconda3/envs/p415env/share/psi4/basis/def2-universal-jkfit.gbs 
    atoms 2 entry BR         line  1492 file /home/kchung25/anaconda3/envs/p415env/share/psi4/basis/aug-cc-pvtz-jkfit.gbs 

  ==> Integral Setup <==

  ==> DiskDFJK: Density-Fitted J/K Matrices <==

    J tasked:                  Yes
    K tasked:                  Yes
    wK tasked:                  No
    OpenMP threads:              6
    Integrals threads:           6
    Memory [MiB]:            42915
    Algorithm:                Core
    Integral Cache:           SAVE
    Schwarz Cutoff:          1E-12
    Fitting Condition:       1E-10

   => Auxiliary Basis Set <=

  Basis Set: (AUG-CC-PVTZ AUX)
    Blend: AUG-CC-PVTZ-JKFIT + DEF2-UNIVERSAL-JKFIT
    Number of shells: 102
    Number of basis functions: 408
    Number of Cartesian functions: 532
    Spherical Harmonics?: true
    Max angular momentum: 4

  Minimum eigenvalue in the overlap matrix is 3.7038545404E-04.
  Reciprocal condition number of the overlap matrix is 7.0269038534E-05.
    Using symmetric orthogonalization.

  ==> Pre-Iterations <==

  SCF Guess: Superposition of Atomic Densities via on-the-fly atomic UHF (no occupation information).

   -------------------------
    Irrep   Nso     Nmo    
   -------------------------
     A        118     118 
   -------------------------
    Total     118     118
   -------------------------

  ==> Iterations <==

                           Total Energy        Delta E     RMS |[F,P]|

   @DF-RHF iter SAD: -3169.59599333395954   -3.16960e+03   0.00000e+00 
   @DF-RHF iter   1: -3171.42527406612771   -1.82928e+00   9.02984e-03 DIIS/ADIIS
   @DF-RHF iter   2: -3171.63850178866414   -2.13228e-01   4.86340e-03 DIIS/ADIIS
   @DF-RHF iter   3: -3171.70154922688698   -6.30474e-02   1.01207e-04 DIIS/ADIIS
   @DF-RHF iter   4: -3171.70162212476362   -7.28979e-05   2.06350e-05 DIIS
   @DF-RHF iter   5: -3171.70162757961589   -5.45485e-06   3.50581e-06 DIIS
   @DF-RHF iter   6: -3171.70162789571805   -3.16102e-07   1.13859e-06 DIIS
   @DF-RHF iter   7: -3171.70162792264728   -2.69292e-08   2.72003e-07 DIIS
   @DF-RHF iter   8: -3171.70162792464862   -2.00134e-09   5.08216e-08 DIIS
   @DF-RHF iter   9: -3171.70162792470910   -6.04814e-11   9.34380e-09 DIIS
  Energy and wave function converged.


  ==> Post-Iterations <==

    Orbital Energies [Eh]
    ---------------------

    Doubly Occupied:                                                      

       1A   -489.897989     2A   -133.503672     3A    -65.039465  
       4A    -58.393859     5A    -58.393859     6A    -58.393713  
       7A    -14.463577     8A    -11.493171     9A    -11.492879  
      10A    -11.492879    11A     -9.713174    12A     -7.320770  
      13A     -7.320605    14A     -7.320605    15A     -3.062382  
      16A     -3.062382    17A     -3.062006    18A     -3.061987  
      19A     -3.061987    20A     -1.733751    21A     -0.970798  
      22A     -0.942487    23A     -0.942487    24A     -0.856103  
      25A     -0.331889    26A     -0.329294    27A     -0.329294  

    Virtual:                                                              

      28A     -0.010644    29A      0.005072    30A      0.005072  
      31A      0.008761    32A      0.017823    33A      0.017823  
      34A      0.018565    35A      0.021592    36A      0.021592  
      37A      0.025342    38A      0.025342    39A      0.027320  
      40A      0.036057    41A      0.055376    42A      0.055376  
      43A      0.061892    44A      0.061892    45A      0.064741  
      46A      0.082066    47A      0.082066    48A      0.086229  
      49A      0.103518    50A      0.129945    51A      0.129945  
      52A      0.131913    53A      0.131913    54A      0.133078  
      55A      0.135940    56A      0.135940    57A      0.167120  
      58A      0.167120    59A      0.168574    60A      0.178317  
      61A      0.178317    62A      0.217384    63A      0.218291  
      64A      0.218291    65A      0.255832    66A      0.255832  
      67A      0.259022    68A      0.295136    69A      0.369693  
      70A      0.369693    71A      0.375889    72A      0.375889  
      73A      0.392180    74A      0.398252    75A      0.398252  
      76A      0.421354    77A      0.421354    78A      0.429035  
      79A      0.429035    80A      0.430345    81A      0.430345  
      82A      0.450611    83A      0.494882    84A      0.525355  
      85A      0.525355    86A      0.693636    87A      0.702560  
      88A      0.702560    89A      0.870535    90A      0.897759  
      91A      0.897759    92A      0.946546    93A      0.946546  
      94A      1.039599    95A      1.039599    96A      1.081571  
      97A      1.103567    98A      1.103567    99A      1.130208  
     100A      1.177786   101A      1.177786   102A      1.251860  
     103A      2.308235   104A      2.308235   105A      2.381153  
     106A      2.408948   107A      2.408948   108A      2.412861  
     109A      2.412861   110A      2.433844   111A      2.433844  
     112A      2.464901   113A      2.464901   114A      2.485289  
     115A      2.524182   116A      2.535964   117A      2.535964  
     118A      4.093467  

    Final Occupation by Irrep:
              A 
    DOCC [    27 ]
    NA   [    27 ]
    NB   [    27 ]

  @DF-RHF Final Energy: -3171.70162792470910

   => Energetics <=

    Nuclear Repulsion Energy =            140.2098329749624668
    One-Electron Energy =               -4691.8487901668586346
    Two-Electron Energy =                1379.9373292671871241
    Total Energy =                      -3171.7016279247091006

Computation Completed


Properties will be evaluated at   0.000000,   0.000000,   0.000000 [a0]

Properties computed using the SCF density matrix


 Multipole Moments:

 ------------------------------------------------------------------------------------
     Multipole            Electronic (a.u.)      Nuclear  (a.u.)        Total (a.u.)
 ------------------------------------------------------------------------------------

 L = 1.  Multiply by 2.5417464519 to convert [e a0] to [Debye]
 Dipole X            :       -169.7467947          166.0011963           -3.7455985
 Dipole Y            :         -0.0000000            0.0000000           -0.0000000
 Dipole Z            :         -0.0000000            0.0000000           -0.0000000
 Magnitude           :                                                    3.7455985

 ------------------------------------------------------------------------------------

*** tstop() called on moses-razer at Thu Dec 28 17:16:20 2023
Module time:
	user time   =      15.86 seconds =       0.26 minutes
	system time =       2.66 seconds =       0.04 minutes
	total time  =          9 seconds =       0.15 minutes
Total time:
	user time   =      15.86 seconds =       0.26 minutes
	system time =       2.66 seconds =       0.04 minutes
	total time  =          9 seconds =       0.15 minutes

  //>>>>>>>>>>>>>>>>>>>>>>>>>>>>>>>>>>>//
  //            Monomer A HF           //
  //<<<<<<<<<<<<<<<<<<<<<<<<<<<<<<<<<<<//

   => Libint2 <=

    Primary   basis highest AM E, G, H:  5, 4, 3
    Auxiliary basis highest AM E, G, H:  6, 5, 4
    Onebody   basis highest AM E, G, H:  6, 5, 4
    Solid Harmonics ordering:            gaussian

*** tstart() called on moses-razer
*** at Thu Dec 28 17:16:21 2023

   => Loading Basis Set <=

    Name: AUG-CC-PVTZ
    Role: ORBITAL
    Keyword: BASIS
    atoms 1 entry K          line  1152 file /home/kchung25/anaconda3/envs/p415env/share/psi4/basis/aug-cc-pvtz.gbs 
    atoms 2 entry BR         line  4564 file /home/kchung25/anaconda3/envs/p415env/share/psi4/basis/aug-cc-pvtz.gbs 


         ---------------------------------------------------------
                                   SCF
               by Justin Turney, Rob Parrish, Andy Simmonett
                          and Daniel G. A. Smith
                              RHF Reference
                        6 Threads,  57220 MiB Core
         ---------------------------------------------------------

  ==> Geometry <==

    Molecular point group: c1
    Full point group: C_inf_v

    Geometry (in Angstrom), charge = 1, multiplicity = 1:

       Center              X                  Y                   Z               Mass       
    ------------   -----------------  -----------------  -----------------  -----------------
         K            0.000000000000     0.000000000000     0.000000000000    38.963706486400
      Gh(BR)          2.509830000000     0.000000000000     0.000000000000    78.918337600000

  Running in c1 symmetry.

  Rotational constants: A = ************  B =      0.03391  C =      0.03391 [cm^-1]
  Rotational constants: A = ************  B =   1016.60130  C =   1016.60130 [MHz]
  Nuclear repulsion =    0.000000000000000

  Charge       = 1
  Multiplicity = 1
  Electrons    = 18
  Nalpha       = 9
  Nbeta        = 9

  ==> Algorithm <==

  SCF Algorithm Type is DF.
  DIIS enabled.
  MOM disabled.
  Fractional occupation disabled.
  Guess Type is SAD.
  Energy threshold   = 1.00e-08
  Density threshold  = 1.00e-08
  Integral threshold = 1.00e-12

  ==> Primary Basis <==

  Basis Set: AUG-CC-PVTZ
    Blend: AUG-CC-PVTZ
    Number of shells: 38
    Number of basis functions: 118
    Number of Cartesian functions: 138
    Spherical Harmonics?: true
    Max angular momentum: 3

   => Loading Basis Set <=

    Name: (AUG-CC-PVTZ AUX)
    Role: JKFIT
    Keyword: DF_BASIS_SCF
    atoms 1 entry K          line  1152 file /home/kchung25/anaconda3/envs/p415env/share/psi4/basis/def2-universal-jkfit.gbs 
    atoms 2 entry BR         line  1492 file /home/kchung25/anaconda3/envs/p415env/share/psi4/basis/aug-cc-pvtz-jkfit.gbs 

  ==> Integral Setup <==

  ==> DiskDFJK: Density-Fitted J/K Matrices <==

    J tasked:                  Yes
    K tasked:                  Yes
    wK tasked:                  No
    OpenMP threads:              6
    Integrals threads:           6
    Memory [MiB]:            42915
    Algorithm:                Core
    Integral Cache:           LOAD
    Schwarz Cutoff:          1E-12
    Fitting Condition:       1E-10

   => Auxiliary Basis Set <=

  Basis Set: (AUG-CC-PVTZ AUX)
    Blend: AUG-CC-PVTZ-JKFIT + DEF2-UNIVERSAL-JKFIT
    Number of shells: 102
    Number of basis functions: 408
    Number of Cartesian functions: 532
    Spherical Harmonics?: true
    Max angular momentum: 4

  Minimum eigenvalue in the overlap matrix is 3.7038545404E-04.
  Reciprocal condition number of the overlap matrix is 7.0269038534E-05.
    Using symmetric orthogonalization.

  ==> Pre-Iterations <==

  SCF Guess: Superposition of Atomic Densities via on-the-fly atomic UHF (no occupation information).

   -------------------------
    Irrep   Nso     Nmo    
   -------------------------
     A        118     118 
   -------------------------
    Total     118     118
   -------------------------

  ==> Iterations <==

                           Total Energy        Delta E     RMS |[F,P]|

   @DF-RHF iter SAD:  -599.05183830441570   -5.99052e+02   0.00000e+00 
   @DF-RHF iter   1:  -599.01748413263510    3.43542e-02   5.35637e-05 DIIS
   @DF-RHF iter   2:  -599.01750770821479   -2.35756e-05   7.99112e-06 DIIS
   @DF-RHF iter   3:  -599.01750836712699   -6.58912e-07   5.25041e-07 DIIS
   @DF-RHF iter   4:  -599.01750836991448   -2.78749e-09   5.36903e-08 DIIS
   @DF-RHF iter   5:  -599.01750836995097   -3.64935e-11   7.93318e-09 DIIS
  Energy and wave function converged.


  ==> Post-Iterations <==

    Orbital Energies [Eh]
    ---------------------

    Doubly Occupied:                                                      

       1A   -133.753747     2A    -14.709189     3A    -11.739262  
       4A    -11.739256     5A    -11.739256     6A     -1.964339  
       7A     -1.170985     8A     -1.170922     9A     -1.170922  

    Virtual:                                                              

      10A     -0.146972    11A     -0.095562    12A     -0.095553  
      13A     -0.095553    14A     -0.060574    15A     -0.057905  
      16A     -0.057848    17A     -0.057848    18A     -0.057718  
      19A     -0.057718    20A     -0.045540    21A     -0.045535  
      22A     -0.045535    23A     -0.031275    24A     -0.031233  
      25A     -0.031233    26A     -0.031207    27A     -0.031207  
      28A     -0.017194    29A     -0.016246    30A     -0.016246  
      31A     -0.014086    32A      0.006779    33A      0.008618  
      34A      0.008618    35A      0.011296    36A      0.016438  
      37A      0.016438    38A      0.016613    39A      0.016613  
      40A      0.016945    41A      0.016945    42A      0.019788  
      43A      0.019788    44A      0.057922    45A      0.074472  
      46A      0.074472    47A      0.089043    48A      0.103642  
      49A      0.103642    50A      0.117876    51A      0.182414  
      52A      0.201763    53A      0.201763    54A      0.210965  
      55A      0.210965    56A      0.215572    57A      0.221456  
      58A      0.221456    59A      0.227340    60A      0.227340  
      61A      0.238942    62A      0.238942    63A      0.272436  
      64A      0.272436    65A      0.286010    66A      0.298095  
      67A      0.303988    68A      0.303988    69A      0.404664  
      70A      0.409720    71A      0.409720    72A      0.791622  
      73A      0.862017    74A      0.862017    75A      0.888658  
      76A      0.888658    77A      0.921820    78A      0.921820  
      79A      0.941598    80A      0.961246    81A      0.961246  
      82A      1.012426    83A      1.012426    84A      1.014401  
      85A      1.114398    86A      1.114398    87A      1.129316  
      88A      1.140289    89A      2.723610    90A      2.723610  
      91A      2.778058    92A      2.910252    93A      2.934480  
      94A      2.934480    95A      2.972335    96A      2.972335  
      97A      2.985218    98A      2.985218    99A      3.014273  
     100A      3.134061   101A      3.134061   102A      3.195940  
     103A      3.195940   104A      3.228089   105A      9.405073  
     106A     13.316683   107A     13.316683   108A     13.367486  
     109A     25.961649   110A     25.961649   111A     26.020893  
     112A     26.020893   113A     26.044286   114A     45.331769  
     115A    138.305975   116A    138.305975   117A    138.385163  
     118A    708.614158  

    Final Occupation by Irrep:
              A 
    DOCC [     9 ]
    NA   [     9 ]
    NB   [     9 ]

  @DF-RHF Final Energy:  -599.01750836995097

   => Energetics <=

    Nuclear Repulsion Energy =              0.0000000000000000
    One-Electron Energy =                -819.7192623032806296
    Two-Electron Energy =                 220.7017539333296270
    Total Energy =                       -599.0175083699509742

Computation Completed


Properties will be evaluated at   0.000000,   0.000000,   0.000000 [a0]

Properties computed using the SCF density matrix


 Multipole Moments:

 ------------------------------------------------------------------------------------
     Multipole            Electronic (a.u.)      Nuclear  (a.u.)        Total (a.u.)
 ------------------------------------------------------------------------------------

 L = 1.  Multiply by 2.5417464519 to convert [e a0] to [Debye]
 Dipole X            :          0.0006077            0.0000000            0.0006077
 Dipole Y            :         -0.0000000            0.0000000           -0.0000000
 Dipole Z            :         -0.0000000            0.0000000           -0.0000000
 Magnitude           :                                                    0.0006077

 ------------------------------------------------------------------------------------

*** tstop() called on moses-razer at Thu Dec 28 17:16:29 2023
Module time:
	user time   =      11.43 seconds =       0.19 minutes
	system time =       2.06 seconds =       0.03 minutes
	total time  =          8 seconds =       0.13 minutes
Total time:
	user time   =      27.31 seconds =       0.46 minutes
	system time =       4.72 seconds =       0.08 minutes
	total time  =         18 seconds =       0.30 minutes

  //>>>>>>>>>>>>>>>>>>>>>>>>>>>>>>>>>>>//
  //            Monomer B HF           //
  //<<<<<<<<<<<<<<<<<<<<<<<<<<<<<<<<<<<//

   => Libint2 <=

    Primary   basis highest AM E, G, H:  5, 4, 3
    Auxiliary basis highest AM E, G, H:  6, 5, 4
    Onebody   basis highest AM E, G, H:  6, 5, 4
    Solid Harmonics ordering:            gaussian

*** tstart() called on moses-razer
*** at Thu Dec 28 17:16:29 2023

   => Loading Basis Set <=

    Name: AUG-CC-PVTZ
    Role: ORBITAL
    Keyword: BASIS
    atoms 1 entry K          line  1152 file /home/kchung25/anaconda3/envs/p415env/share/psi4/basis/aug-cc-pvtz.gbs 
    atoms 2 entry BR         line  4564 file /home/kchung25/anaconda3/envs/p415env/share/psi4/basis/aug-cc-pvtz.gbs 


         ---------------------------------------------------------
                                   SCF
               by Justin Turney, Rob Parrish, Andy Simmonett
                          and Daniel G. A. Smith
                              RHF Reference
                        6 Threads,  57220 MiB Core
         ---------------------------------------------------------

  ==> Geometry <==

    Molecular point group: c1
    Full point group: C_inf_v

    Geometry (in Angstrom), charge = -1, multiplicity = 1:

       Center              X                  Y                   Z               Mass       
    ------------   -----------------  -----------------  -----------------  -----------------
      Gh(K)           0.000000000000     0.000000000000     0.000000000000    38.963706486400
         BR           2.509830000000     0.000000000000     0.000000000000    78.918337600000

  Running in c1 symmetry.

  Rotational constants: A = ************  B =      0.03391  C =      0.03391 [cm^-1]
  Rotational constants: A = ************  B =   1016.60130  C =   1016.60130 [MHz]
  Nuclear repulsion =    0.000000000000000

  Charge       = -1
  Multiplicity = 1
  Electrons    = 36
  Nalpha       = 18
  Nbeta        = 18

  ==> Algorithm <==

  SCF Algorithm Type is DF.
  DIIS enabled.
  MOM disabled.
  Fractional occupation disabled.
  Guess Type is SAD.
  Energy threshold   = 1.00e-08
  Density threshold  = 1.00e-08
  Integral threshold = 1.00e-12

  ==> Primary Basis <==

  Basis Set: AUG-CC-PVTZ
    Blend: AUG-CC-PVTZ
    Number of shells: 38
    Number of basis functions: 118
    Number of Cartesian functions: 138
    Spherical Harmonics?: true
    Max angular momentum: 3

   => Loading Basis Set <=

    Name: (AUG-CC-PVTZ AUX)
    Role: JKFIT
    Keyword: DF_BASIS_SCF
    atoms 1 entry K          line  1152 file /home/kchung25/anaconda3/envs/p415env/share/psi4/basis/def2-universal-jkfit.gbs 
    atoms 2 entry BR         line  1492 file /home/kchung25/anaconda3/envs/p415env/share/psi4/basis/aug-cc-pvtz-jkfit.gbs 

  ==> Integral Setup <==

  ==> DiskDFJK: Density-Fitted J/K Matrices <==

    J tasked:                  Yes
    K tasked:                  Yes
    wK tasked:                  No
    OpenMP threads:              6
    Integrals threads:           6
    Memory [MiB]:            42915
    Algorithm:                Core
    Integral Cache:           LOAD
    Schwarz Cutoff:          1E-12
    Fitting Condition:       1E-10

   => Auxiliary Basis Set <=

  Basis Set: (AUG-CC-PVTZ AUX)
    Blend: AUG-CC-PVTZ-JKFIT + DEF2-UNIVERSAL-JKFIT
    Number of shells: 102
    Number of basis functions: 408
    Number of Cartesian functions: 532
    Spherical Harmonics?: true
    Max angular momentum: 4

  Minimum eigenvalue in the overlap matrix is 3.7038545404E-04.
  Reciprocal condition number of the overlap matrix is 7.0269038534E-05.
    Using symmetric orthogonalization.

  ==> Pre-Iterations <==

  SCF Guess: Superposition of Atomic Densities via on-the-fly atomic UHF (no occupation information).

   -------------------------
    Irrep   Nso     Nmo    
   -------------------------
     A        118     118 
   -------------------------
    Total     118     118
   -------------------------

  ==> Iterations <==

                           Total Energy        Delta E     RMS |[F,P]|

   @DF-RHF iter SAD: -2570.41423538088247   -2.57041e+03   0.00000e+00 
   @DF-RHF iter   1: -2572.25499398684406   -1.84076e+00   8.94679e-03 DIIS/ADIIS
   @DF-RHF iter   2: -2572.46386040849029   -2.08866e-01   4.97548e-03 DIIS/ADIIS
   @DF-RHF iter   3: -2572.53362157516267   -6.97612e-02   1.04867e-04 DIIS/ADIIS
   @DF-RHF iter   4: -2572.53367936279255   -5.77876e-05   1.03145e-05 DIIS
   @DF-RHF iter   5: -2572.53368171401735   -2.35122e-06   2.77369e-06 DIIS
   @DF-RHF iter   6: -2572.53368188175409   -1.67737e-07   5.71381e-07 DIIS
   @DF-RHF iter   7: -2572.53368190128958   -1.95355e-08   3.16673e-08 DIIS
   @DF-RHF iter   8: -2572.53368190132232   -3.27418e-11   4.71891e-09 DIIS
  Energy and wave function converged.


  ==> Post-Iterations <==

    Orbital Energies [Eh]
    ---------------------

    Doubly Occupied:                                                      

       1A   -489.720804     2A    -64.860766     3A    -58.215254  
       4A    -58.215254     5A    -58.215252     6A     -9.532951  
       7A     -7.140295     8A     -7.140295     9A     -7.140289  
      10A     -2.881974    11A     -2.881974    12A     -2.881966  
      13A     -2.881965    14A     -2.881965    15A     -0.686000  
      16A     -0.139340    17A     -0.139340    18A     -0.139339  

    Virtual:                                                              

      19A      0.059276    20A      0.061046    21A      0.061046  
      22A      0.074749    23A      0.074749    24A      0.076073  
      25A      0.077518    26A      0.077518    27A      0.084271  
      28A      0.114119    29A      0.115879    30A      0.115879  
      31A      0.143148    32A      0.151925    33A      0.151925  
      34A      0.154946    35A      0.154946    36A      0.156622  
      37A      0.209292    38A      0.219062    39A      0.219062  
      40A      0.226614    41A      0.250715    42A      0.250715  
      43A      0.252442    44A      0.252442    45A      0.256705  
      46A      0.256705    47A      0.257168    48A      0.296278  
      49A      0.296278    50A      0.302528    51A      0.368046  
      52A      0.368046    53A      0.371693    54A      0.395120  
      55A      0.398935    56A      0.398935    57A      0.426366  
      58A      0.426366    59A      0.452645    60A      0.545639  
      61A      0.545639    62A      0.576689    63A      0.604899  
      64A      0.604899    65A      0.607026    66A      0.607026  
      67A      0.622540    68A      0.622801    69A      0.622801  
      70A      0.624049    71A      0.624049    72A      0.795033  
      73A      0.836548    74A      0.848641    75A      0.848641  
      76A      1.053428    77A      1.077179    78A      1.077179  
      79A      1.125993    80A      1.125993    81A      1.167886  
      82A      1.221140    83A      1.221140    84A      1.257571  
      85A      1.257571    86A      1.284753    87A      1.284753  
      88A      1.302444    89A      1.988008    90A      2.036152  
      91A      2.036152    92A      2.102436    93A      2.102436  
      94A      2.231797    95A      2.409330    96A      2.409330  
      97A      2.447192    98A      2.495347    99A      2.495347  
     100A      2.592780   101A      2.592780   102A      2.604251  
     103A      2.604251   104A      2.610753   105A      2.658480  
     106A      2.658480   107A      2.700314   108A      2.700314  
     109A      2.808707   110A      2.970048   111A      2.970048  
     112A      3.154603   113A      4.311328   114A     10.329183  
     115A     30.446540   116A     30.446540   117A     30.839434  
     118A    197.752687  

    Final Occupation by Irrep:
              A 
    DOCC [    18 ]
    NA   [    18 ]
    NB   [    18 ]

  @DF-RHF Final Energy: -2572.53368190132232

   => Energetics <=

    Nuclear Repulsion Energy =              0.0000000000000000
    One-Electron Energy =               -3593.6773155218384090
    Two-Electron Energy =                1021.1436336205158568
    Total Energy =                      -2572.5336819013227796

Computation Completed


Properties will be evaluated at   0.000000,   0.000000,   0.000000 [a0]

Properties computed using the SCF density matrix


 Multipole Moments:

 ------------------------------------------------------------------------------------
     Multipole            Electronic (a.u.)      Nuclear  (a.u.)        Total (a.u.)
 ------------------------------------------------------------------------------------

 L = 1.  Multiply by 2.5417464519 to convert [e a0] to [Debye]
 Dipole X            :       -170.7449333          166.0011963           -4.7437371
 Dipole Y            :          0.0000000            0.0000000            0.0000000
 Dipole Z            :          0.0000000            0.0000000            0.0000000
 Magnitude           :                                                    4.7437371

 ------------------------------------------------------------------------------------

*** tstop() called on moses-razer at Thu Dec 28 17:16:36 2023
Module time:
	user time   =      10.51 seconds =       0.18 minutes
	system time =       1.41 seconds =       0.02 minutes
	total time  =          7 seconds =       0.12 minutes
Total time:
	user time   =      37.86 seconds =       0.63 minutes
	system time =       6.14 seconds =       0.10 minutes
	total time  =         25 seconds =       0.42 minutes
  Constructing Basis Sets for SAPT...

   => Loading Basis Set <=

    Name: (AUG-CC-PVTZ AUX)
    Role: RIFIT
    Keyword: DF_BASIS_SAPT
    atoms 1 entry K          line  1282 file /home/kchung25/anaconda3/envs/p415env/share/psi4/basis/def2-qzvpp-ri.gbs 
    atoms 2 entry BR         line  1248 file /home/kchung25/anaconda3/envs/p415env/share/psi4/basis/aug-cc-pvtz-ri.gbs 

   => Loading Basis Set <=

    Name: (AUG-CC-PVTZ AUX)
    Role: JKFIT
    Keyword: DF_BASIS_ELST
    atoms 1 entry K          line  1152 file /home/kchung25/anaconda3/envs/p415env/share/psi4/basis/def2-universal-jkfit.gbs 
    atoms 2 entry BR         line  1492 file /home/kchung25/anaconda3/envs/p415env/share/psi4/basis/aug-cc-pvtz-jkfit.gbs 


  //>>>>>>>>>>>>>>>>>>>>>>>>>>>>>>>>>>>//
  //               SAPT2+              //
  //<<<<<<<<<<<<<<<<<<<<<<<<<<<<<<<<<<<//


*** tstart() called on moses-razer
*** at Thu Dec 28 17:16:36 2023

        SAPT2+  
    Ed Hohenstein
     6 June 2009

      Orbital Information
  --------------------------
    NSO        =       118
    NMO        =       118
    NRI        =       390
    NOCC A     =         9
    NOCC B     =        18
    FOCC A     =         0
    FOCC B     =         0
    NVIR A     =       109
    NVIR B     =       100

    Estimated memory usage: 129.5 MB

    Natural Orbital Cutoff:   1.000E-06
    Disp(T3) Truncation:            Yes
    CCD (vv|vv) Truncation:         Yes
    MBPT T2 Truncation:             Yes

    Monomer A: 83 virtual orbitals dropped
    Monomer B: 42 virtual orbitals dropped

    Elst10,r            =    -0.251009950092 [Eh]
    Exch10 (S^2)        =     0.124540539888 [Eh]
    Exch10              =     0.130903131261 [Eh]
    Ind20,r (A<-B)      =    -0.008591249262 [Eh]
    Ind20,r (B<-A)      =    -0.289352450128 [Eh]
    Ind20,r             =    -0.297943699390 [Eh]
    Exch-Ind20,r (A<-B) =     0.005776586162 [Eh]
    Exch-Ind20,r (B<-A) =     0.246655756171 [Eh]
    Exch-Ind20,r        =     0.252432342333 [Eh]
    Disp20              =    -0.014582380059 [Eh]
    Disp20 (NO)         =    -0.013584481343 [Eh]
    Exch-Disp20         =     0.004598847933 [Eh]
    Elst12,r            =    -0.002076840660 [Eh]
    Exch11              =    -0.002236068570 [Eh]
    Exch12              =     0.003359472972 [Eh]
    Ind22               =    -0.023305376046 [Eh]
    Disp21              =     0.002549823053 [Eh]
    Disp22 (SDQ)        =     0.000083287014 [Eh]

    (i =   1 of  18)          0 seconds
    (i =   2 of  18)          0 seconds
    (i =   3 of  18)          0 seconds
    (i =   4 of  18)          0 seconds
    (i =   5 of  18)          0 seconds
    (i =   6 of  18)          0 seconds
    (i =   7 of  18)          0 seconds
    (i =   8 of  18)          0 seconds
    (i =   9 of  18)          0 seconds
    (i =  10 of  18)          0 seconds
    (i =  11 of  18)          0 seconds
    (i =  12 of  18)          0 seconds
    (i =  13 of  18)          0 seconds
    (i =  14 of  18)          0 seconds
    (i =  15 of  18)          0 seconds
    (i =  16 of  18)          0 seconds
    (i =  17 of  18)          0 seconds
    (i =  18 of  18)          0 seconds

    Disp220 (T)         =    -0.000376804024 [Eh]

    (i =   1 of   9)          0 seconds
    (i =   2 of   9)          1 seconds
    (i =   3 of   9)          1 seconds
    (i =   4 of   9)          1 seconds
    (i =   5 of   9)          2 seconds
    (i =   6 of   9)          2 seconds
    (i =   7 of   9)          2 seconds
    (i =   8 of   9)          2 seconds
    (i =   9 of   9)          3 seconds

    Disp202 (T)         =    -0.000867097588 [Eh]

    Disp22 (T)          =    -0.001243901612 [Eh]

    Est. Disp220 (T)    =    -0.000404483568 [Eh]
    Est. Disp202 (T)    =    -0.000930793474 [Eh]

    Est. Disp22 (T)     =    -0.001335277042 [Eh]

    SAPT Results 
  --------------------------------------------------------------------------------------------------------
    Electrostatics               -253.08679075 [mEh]    -158.81435888 [kcal/mol]    -664.47927757 [kJ/mol]
      Elst10,r                   -251.00995009 [mEh]    -157.51112170 [kcal/mol]    -659.02653317 [kJ/mol]
      Elst12,r                     -2.07684066 [mEh]      -1.30323719 [kcal/mol]      -5.45274440 [kJ/mol]

    Exchange                      132.02653566 [mEh]      82.84790192 [kcal/mol]     346.63562163 [kJ/mol]
      Exch10                      130.90313126 [mEh]      82.14295501 [kcal/mol]     343.68612378 [kJ/mol]
      Exch10(S^2)                 124.54053989 [mEh]      78.15036865 [kcal/mol]     326.98114243 [kJ/mol]
      Exch11(S^2)                  -2.23606857 [mEh]      -1.40315421 [kcal/mol]      -5.87079722 [kJ/mol]
      Exch12(S^2)                   3.35947297 [mEh]       2.10810112 [kcal/mol]       8.82029507 [kJ/mol]

    Induction                     -33.89076654 [mEh]     -21.26677708 [kcal/mol]     -88.98019529 [kJ/mol]
      Ind20,r                    -297.94369939 [mEh]    -186.96249402 [kcal/mol]    -782.25107498 [kJ/mol]
      Ind22                       -23.30537605 [mEh]     -14.62434426 [kcal/mol]     -61.18825638 [kJ/mol]
      Exch-Ind20,r                252.43234233 [mEh]     158.40368630 [kcal/mol]     662.76102349 [kJ/mol]
      Exch-Ind22                   19.74544411 [mEh]      12.39045324 [kcal/mol]      51.84165637 [kJ/mol]
      delta HF,r (2)               15.18052245 [mEh]       9.52592166 [kcal/mol]      39.85645621 [kJ/mol]

    Dispersion                     -8.68569910 [mEh]      -5.45035847 [kcal/mol]     -22.80429985 [kJ/mol]
      Disp20                      -14.58238006 [mEh]      -9.15058164 [kcal/mol]     -38.28603357 [kJ/mol]
      Disp21                        2.54982305 [mEh]       1.60003812 [kcal/mol]       6.69455950 [kJ/mol]
      Disp22 (SDQ)                  0.08328701 [mEh]       0.05226339 [kcal/mol]       0.21867003 [kJ/mol]
      Disp22 (T)                   -1.24390161 [mEh]      -0.78056005 [kcal/mol]      -3.26586323 [kJ/mol]
      Est. Disp22 (T)              -1.33527704 [mEh]      -0.83789899 [kcal/mol]      -3.50576939 [kJ/mol]
      Exch-Disp20                   4.59884793 [mEh]       2.88582065 [kcal/mol]      12.07427358 [kJ/mol]

  Total HF                       -150.43765344 [mEh]     -94.40105274 [kcal/mol]    -394.97400468 [kJ/mol]
  Total SAPT0                    -160.42118556 [mEh]    -100.66581374 [kcal/mol]    -421.18576467 [kJ/mol]
  Total SAPT2                    -164.93455376 [mEh]    -103.49799504 [kcal/mol]    -433.03561123 [kJ/mol]
  Total SAPT2+                   -163.63672073 [mEh]    -102.68359252 [kcal/mol]    -429.62815109 [kJ/mol]

  Special recipe for scaled SAPT0 (see Manual):
    Electrostatics sSAPT0        -251.00995009 [mEh]    -157.51112170 [kcal/mol]    -659.02653317 [kJ/mol]
    Exchange sSAPT0               130.90313126 [mEh]      82.14295501 [kcal/mol]     343.68612378 [kJ/mol]
    Induction sSAPT0               10.36857965 [mEh]       6.50638196 [kcal/mol]      27.22270212 [kJ/mol]
    Dispersion sSAPT0              -9.24206447 [mEh]      -5.79948301 [kcal/mol]     -24.26503693 [kJ/mol]
  Total sSAPT0                   -118.98030365 [mEh]     -74.66126773 [kcal/mol]    -312.38274420 [kJ/mol]
  --------------------------------------------------------------------------------------------------------

*** tstop() called on moses-razer at Thu Dec 28 17:17:02 2023
Module time:
	user time   =      64.82 seconds =       1.08 minutes
	system time =       1.97 seconds =       0.03 minutes
	total time  =         26 seconds =       0.43 minutes
Total time:
	user time   =     103.29 seconds =       1.72 minutes
	system time =       8.12 seconds =       0.14 minutes
	total time  =         51 seconds =       0.85 minutes

    Psi4 stopped on: Thursday, 28 December 2023 05:17PM
    Psi4 wall time for execution: 0:00:50.89

*** Psi4 exiting successfully. Buy a developer a beer!
