
    -----------------------------------------------------------------------
          Psi4: An Open-Source Ab Initio Electronic Structure Package
                               Psi4 1.9 release

                         Git: Rev {} zzzzzzz 


    D. G. A. Smith, L. A. Burns, A. C. Simmonett, R. M. Parrish,
    M. C. Schieber, R. Galvelis, P. Kraus, H. Kruse, R. Di Remigio,
    A. Alenaizan, A. M. James, S. Lehtola, J. P. Misiewicz, M. Scheurer,
    R. A. Shaw, J. B. Schriber, Y. Xie, Z. L. Glick, D. A. Sirianni,
    J. S. O'Brien, J. M. Waldrop, A. Kumar, E. G. Hohenstein,
    B. P. Pritchard, B. R. Brooks, H. F. Schaefer III, A. Yu. Sokolov,
    K. Patkowski, A. E. DePrince III, U. Bozkaya, R. A. King,
    F. A. Evangelista, J. M. Turney, T. D. Crawford, C. D. Sherrill,
    J. Chem. Phys. 152(18) 184108 (2020). https://doi.org/10.1063/5.0006002

                            Additional Code Authors
    E. T. Seidl, C. L. Janssen, E. F. Valeev, M. L. Leininger,
    J. F. Gonthier, R. M. Richard, H. R. McAlexander, M. Saitow, X. Wang,
    P. Verma, M. H. Lechner, A. Jiang, S. Behnle, A. G. Heide,
    M. F. Herbst, and D. L. Poole

             Previous Authors, Complete List of Code Contributors,
                       and Citations for Specific Modules
    https://github.com/psi4/psi4/blob/master/codemeta.json
    https://github.com/psi4/psi4/graphs/contributors
    http://psicode.org/psi4manual/master/introduction.html#citing-psifour

    -----------------------------------------------------------------------


    Psi4 started on: Friday, 29 December 2023 05:24PM

    Process ID: 157118
    Host:       moses-razer
    PSIDATADIR: /home/kchung25/anaconda3/envs/psi4_19/share/psi4
    Memory:     500.0 MiB
    Threads:    6
    
  ==> Input File <==

--------------------------------------------------------------------------
MEMORY 60 GB

molecule dimer {
0 1
O      0.000000     0.000000     0.000000
H     -0.585743     0.764276     0.000000
H     -0.585743    -0.764276     0.000000
--
1 1
Li     1.828878     0.000000     0.000000

units ang
no_reorient
no_com
symmetry c1
}

set {
basis        aug-cc-pVTZ
scf_type     df
}

energy("sapt2+")
--------------------------------------------------------------------------

  Memory set to  55.879 GiB by Python driver.

Scratch directory: /scratch/
   => Loading Basis Set <=

    Name: AUG-CC-PVTZ
    Role: ORBITAL
    Keyword: BASIS
    atoms 1   entry O          line   331 file /home/kchung25/anaconda3/envs/p415env/share/psi4/basis/aug-cc-pvtz.gbs 
    atoms 2-3 entry H          line    40 file /home/kchung25/anaconda3/envs/p415env/share/psi4/basis/aug-cc-pvtz.gbs 
    atoms 4   entry LI         line    85 file /home/kchung25/anaconda3/envs/p415env/share/psi4/basis/aug-cc-pvtz.gbs 

   => Loading Basis Set <=

    Name: AUG-CC-PVTZ
    Role: ORBITAL
    Keyword: BASIS
    atoms 1   entry O          line   331 file /home/kchung25/anaconda3/envs/p415env/share/psi4/basis/aug-cc-pvtz.gbs 
    atoms 2-3 entry H          line    40 file /home/kchung25/anaconda3/envs/p415env/share/psi4/basis/aug-cc-pvtz.gbs 
    atoms 4   entry LI         line    85 file /home/kchung25/anaconda3/envs/p415env/share/psi4/basis/aug-cc-pvtz.gbs 


  //>>>>>>>>>>>>>>>>>>>>>>>>>>>>>>>>>>>//
  //              Dimer HF             //
  //<<<<<<<<<<<<<<<<<<<<<<<<<<<<<<<<<<<//

   => Libint2 <=

    Primary   basis highest AM E, G, H:  5, 4, 3
    Auxiliary basis highest AM E, G, H:  6, 5, 4
    Onebody   basis highest AM E, G, H:  6, 5, 4
    Solid Harmonics ordering:            gaussian

*** tstart() called on moses-razer
*** at Fri Dec 29 17:24:33 2023

   => Loading Basis Set <=

    Name: AUG-CC-PVTZ
    Role: ORBITAL
    Keyword: BASIS
    atoms 1   entry O          line   331 file /home/kchung25/anaconda3/envs/p415env/share/psi4/basis/aug-cc-pvtz.gbs 
    atoms 2-3 entry H          line    40 file /home/kchung25/anaconda3/envs/p415env/share/psi4/basis/aug-cc-pvtz.gbs 
    atoms 4   entry LI         line    85 file /home/kchung25/anaconda3/envs/p415env/share/psi4/basis/aug-cc-pvtz.gbs 


         ---------------------------------------------------------
                                   SCF
               by Justin Turney, Rob Parrish, Andy Simmonett
                          and Daniel G. A. Smith
                              RHF Reference
                        6 Threads,  57220 MiB Core
         ---------------------------------------------------------

  ==> Geometry <==

    Molecular point group: c1
    Full point group: C2v

    Geometry (in Angstrom), charge = 1, multiplicity = 1:

       Center              X                  Y                   Z               Mass       
    ------------   -----------------  -----------------  -----------------  -----------------
         O            0.000000000000     0.000000000000     0.000000000000    15.994914619570
         H           -0.585743000000     0.764276000000     0.000000000000     1.007825032230
         H           -0.585743000000    -0.764276000000     0.000000000000     1.007825032230
         LI           1.828878000000     0.000000000000     0.000000000000     7.016003436600

  Running in c1 symmetry.

  Rotational constants: A =     14.31795  B =      0.69779  C =      0.66536 [cm^-1]
  Rotational constants: A = 429241.41577  B =  20919.17376  C =  19947.04994 [MHz]
  Nuclear repulsion =   17.337001049660948

  Charge       = 1
  Multiplicity = 1
  Electrons    = 12
  Nalpha       = 6
  Nbeta        = 6

  ==> Algorithm <==

  SCF Algorithm Type is DF.
  DIIS enabled.
  MOM disabled.
  Fractional occupation disabled.
  Guess Type is SAD.
  Energy threshold   = 1.00e-08
  Density threshold  = 1.00e-08
  Integral threshold = 1.00e-12

  ==> Primary Basis <==

  Basis Set: AUG-CC-PVTZ
    Blend: AUG-CC-PVTZ
    Number of shells: 46
    Number of basis functions: 138
    Number of Cartesian functions: 160
    Spherical Harmonics?: true
    Max angular momentum: 3

   => Loading Basis Set <=

    Name: (AUG-CC-PVTZ AUX)
    Role: JKFIT
    Keyword: DF_BASIS_SCF
    atoms 1   entry O          line   286 file /home/kchung25/anaconda3/envs/p415env/share/psi4/basis/aug-cc-pvtz-jkfit.gbs 
    atoms 2-3 entry H          line    70 file /home/kchung25/anaconda3/envs/p415env/share/psi4/basis/aug-cc-pvtz-jkfit.gbs 
    atoms 4   entry LI         line    54 file /home/kchung25/anaconda3/envs/p415env/share/psi4/basis/def2-universal-jkfit.gbs 

  ==> Integral Setup <==

  ==> DiskDFJK: Density-Fitted J/K Matrices <==

    J tasked:                  Yes
    K tasked:                  Yes
    wK tasked:                  No
    OpenMP threads:              6
    Integrals threads:           6
    Memory [MiB]:            42915
    Algorithm:                Core
    Integral Cache:           SAVE
    Schwarz Cutoff:          1E-12
    Fitting Condition:       1E-10

   => Auxiliary Basis Set <=

  Basis Set: (AUG-CC-PVTZ AUX)
    Blend: AUG-CC-PVTZ-JKFIT + DEF2-UNIVERSAL-JKFIT
    Number of shells: 75
    Number of basis functions: 247
    Number of Cartesian functions: 301
    Spherical Harmonics?: true
    Max angular momentum: 4

  Minimum eigenvalue in the overlap matrix is 1.0201352530E-04.
  Reciprocal condition number of the overlap matrix is 1.1017105607E-05.
    Using symmetric orthogonalization.

  ==> Pre-Iterations <==

  SCF Guess: Superposition of Atomic Densities via on-the-fly atomic UHF (no occupation information).

   -------------------------
    Irrep   Nso     Nmo    
   -------------------------
     A        138     138 
   -------------------------
    Total     138     138
   -------------------------

  ==> Iterations <==

                           Total Energy        Delta E     RMS |[F,P]|

   @DF-RHF iter SAD:   -82.87903783745095   -8.28790e+01   0.00000e+00 
   @DF-RHF iter   1:   -83.27104209981189   -3.92004e-01   3.43494e-03 DIIS/ADIIS
   @DF-RHF iter   2:   -83.32610165133339   -5.50596e-02   2.16136e-03 DIIS/ADIIS
   @DF-RHF iter   3:   -83.35284339378599   -2.67417e-02   1.66176e-04 DIIS/ADIIS
   @DF-RHF iter   4:   -83.35323030596217   -3.86912e-04   3.57066e-05 DIIS
   @DF-RHF iter   5:   -83.35325039017015   -2.00842e-05   7.44118e-06 DIIS
   @DF-RHF iter   6:   -83.35325164875076   -1.25858e-06   1.38543e-06 DIIS
   @DF-RHF iter   7:   -83.35325169659657   -4.78458e-08   2.48466e-07 DIIS
   @DF-RHF iter   8:   -83.35325169794380   -1.34723e-09   3.60634e-08 DIIS
   @DF-RHF iter   9:   -83.35325169796366   -1.98526e-11   6.04618e-09 DIIS
  Energy and wave function converged.


  ==> Post-Iterations <==

    Orbital Energies [Eh]
    ---------------------

    Doubly Occupied:                                                      

       1A    -20.813274     2A     -2.701773     3A     -1.602204  
       4A     -0.963607     5A     -0.867653     6A     -0.764261  

    Virtual:                                                              

       7A     -0.153597     8A     -0.101778     9A     -0.101684  
      10A     -0.095659    11A     -0.061993    12A     -0.057613  
      13A     -0.049825    14A     -0.048078    15A     -0.044184  
      16A     -0.044025    17A     -0.021941    18A     -0.021673  
      19A     -0.017128    20A      0.002479    21A      0.006805  
      22A      0.016764    23A      0.017234    24A      0.023825  
      25A      0.038986    26A      0.051705    27A      0.055302  
      28A      0.068300    29A      0.100061    30A      0.113671  
      31A      0.138881    32A      0.141570    33A      0.154381  
      34A      0.155786    35A      0.169540    36A      0.171215  
      37A      0.185327    38A      0.190893    39A      0.193258  
      40A      0.214598    41A      0.216495    42A      0.221618  
      43A      0.232161    44A      0.238746    45A      0.254355  
      46A      0.259709    47A      0.289133    48A      0.292294  
      49A      0.307006    50A      0.322687    51A      0.340072  
      52A      0.372825    53A      0.510247    54A      0.514894  
      55A      0.544669    56A      0.565016    57A      0.565867  
      58A      0.573300    59A      0.582858    60A      0.597424  
      61A      0.599104    62A      0.605362    63A      0.618742  
      64A      0.623858    65A      0.657654    66A      0.665050  
      67A      0.719964    68A      0.759093    69A      0.774348  
      70A      0.795754    71A      0.804023    72A      0.851488  
      73A      0.873367    74A      0.877057    75A      0.910267  
      76A      0.949170    77A      0.952744    78A      0.986764  
      79A      1.007067    80A      1.104075    81A      1.135867  
      82A      1.137343    83A      1.289341    84A      1.355333  
      85A      1.441980    86A      1.460034    87A      1.490949  
      88A      1.638944    89A      1.736931    90A      1.818400  
      91A      1.918577    92A      2.059189    93A      2.083172  
      94A      2.197738    95A      2.222673    96A      2.240670  
      97A      2.324052    98A      2.477429    99A      2.512390  
     100A      2.575460   101A      2.579428   102A      2.624328  
     103A      2.651752   104A      3.479676   105A      3.568010  
     106A      3.612922   107A      3.809854   108A      3.959354  
     109A      4.062881   110A      4.090558   111A      4.120773  
     112A      4.292040   113A      4.295373   114A      4.323071  
     115A      4.330862   116A      4.624683   117A      4.626705  
     118A      4.916447   119A      4.924699   120A      5.023831  
     121A      5.161591   122A      5.283645   123A      5.664840  
     124A      6.040425   125A      6.360035   126A      6.502524  
     127A      6.749674   128A      6.905382   129A      7.056315  
     130A      7.089302   131A      7.098770   132A      7.137043  
     133A      7.204685   134A      7.367953   135A      7.666593  
     136A      7.686501   137A      8.579796   138A     15.667301  

    Final Occupation by Irrep:
              A 
    DOCC [     6 ]
    NA   [     6 ]
    NB   [     6 ]

  @DF-RHF Final Energy:   -83.35325169796366

   => Energetics <=

    Nuclear Repulsion Energy =             17.3370010496609481
    One-Electron Energy =                -145.9549587992743227
    Two-Electron Energy =                  45.2647060516497035
    Total Energy =                        -83.3532516979636569

Computation Completed


Properties will be evaluated at   0.000000,   0.000000,   0.000000 [a0]

Properties computed using the SCF density matrix


 Multipole Moments:

 ------------------------------------------------------------------------------------
     Multipole            Electronic (a.u.)      Nuclear  (a.u.)        Total (a.u.)
 ------------------------------------------------------------------------------------

 L = 1.  Multiply by 2.5417464519 to convert [e a0] to [Debye]
 Dipole X            :         -5.9423384            8.1544479            2.2121095
 Dipole Y            :          0.0000000            0.0000000            0.0000000
 Dipole Z            :          0.0000000            0.0000000            0.0000000
 Magnitude           :                                                    2.2121095

 ------------------------------------------------------------------------------------

*** tstop() called on moses-razer at Fri Dec 29 17:24:34 2023
Module time:
	user time   =       4.28 seconds =       0.07 minutes
	system time =       0.22 seconds =       0.00 minutes
	total time  =          1 seconds =       0.02 minutes
Total time:
	user time   =       4.28 seconds =       0.07 minutes
	system time =       0.22 seconds =       0.00 minutes
	total time  =          1 seconds =       0.02 minutes

  //>>>>>>>>>>>>>>>>>>>>>>>>>>>>>>>>>>>//
  //            Monomer A HF           //
  //<<<<<<<<<<<<<<<<<<<<<<<<<<<<<<<<<<<//

   => Libint2 <=

    Primary   basis highest AM E, G, H:  5, 4, 3
    Auxiliary basis highest AM E, G, H:  6, 5, 4
    Onebody   basis highest AM E, G, H:  6, 5, 4
    Solid Harmonics ordering:            gaussian

*** tstart() called on moses-razer
*** at Fri Dec 29 17:24:34 2023

   => Loading Basis Set <=

    Name: AUG-CC-PVTZ
    Role: ORBITAL
    Keyword: BASIS
    atoms 1   entry O          line   331 file /home/kchung25/anaconda3/envs/p415env/share/psi4/basis/aug-cc-pvtz.gbs 
    atoms 2-3 entry H          line    40 file /home/kchung25/anaconda3/envs/p415env/share/psi4/basis/aug-cc-pvtz.gbs 
    atoms 4   entry LI         line    85 file /home/kchung25/anaconda3/envs/p415env/share/psi4/basis/aug-cc-pvtz.gbs 


         ---------------------------------------------------------
                                   SCF
               by Justin Turney, Rob Parrish, Andy Simmonett
                          and Daniel G. A. Smith
                              RHF Reference
                        6 Threads,  57220 MiB Core
         ---------------------------------------------------------

  ==> Geometry <==

    Molecular point group: c1
    Full point group: C2v

    Geometry (in Angstrom), charge = 0, multiplicity = 1:

       Center              X                  Y                   Z               Mass       
    ------------   -----------------  -----------------  -----------------  -----------------
         O            0.000000000000     0.000000000000     0.000000000000    15.994914619570
         H           -0.585743000000     0.764276000000     0.000000000000     1.007825032230
         H           -0.585743000000    -0.764276000000     0.000000000000     1.007825032230
      Gh(LI)          1.828878000000     0.000000000000     0.000000000000     7.016003436600

  Running in c1 symmetry.

  Rotational constants: A =     14.31795  B =      0.69779  C =      0.66536 [cm^-1]
  Rotational constants: A = 429241.41577  B =  20919.17376  C =  19947.04994 [MHz]
  Nuclear repulsion =    9.139080998048936

  Charge       = 0
  Multiplicity = 1
  Electrons    = 10
  Nalpha       = 5
  Nbeta        = 5

  ==> Algorithm <==

  SCF Algorithm Type is DF.
  DIIS enabled.
  MOM disabled.
  Fractional occupation disabled.
  Guess Type is SAD.
  Energy threshold   = 1.00e-08
  Density threshold  = 1.00e-08
  Integral threshold = 1.00e-12

  ==> Primary Basis <==

  Basis Set: AUG-CC-PVTZ
    Blend: AUG-CC-PVTZ
    Number of shells: 46
    Number of basis functions: 138
    Number of Cartesian functions: 160
    Spherical Harmonics?: true
    Max angular momentum: 3

   => Loading Basis Set <=

    Name: (AUG-CC-PVTZ AUX)
    Role: JKFIT
    Keyword: DF_BASIS_SCF
    atoms 1   entry O          line   286 file /home/kchung25/anaconda3/envs/p415env/share/psi4/basis/aug-cc-pvtz-jkfit.gbs 
    atoms 2-3 entry H          line    70 file /home/kchung25/anaconda3/envs/p415env/share/psi4/basis/aug-cc-pvtz-jkfit.gbs 
    atoms 4   entry LI         line    54 file /home/kchung25/anaconda3/envs/p415env/share/psi4/basis/def2-universal-jkfit.gbs 

  ==> Integral Setup <==

  ==> DiskDFJK: Density-Fitted J/K Matrices <==

    J tasked:                  Yes
    K tasked:                  Yes
    wK tasked:                  No
    OpenMP threads:              6
    Integrals threads:           6
    Memory [MiB]:            42915
    Algorithm:                Core
    Integral Cache:           LOAD
    Schwarz Cutoff:          1E-12
    Fitting Condition:       1E-10

   => Auxiliary Basis Set <=

  Basis Set: (AUG-CC-PVTZ AUX)
    Blend: AUG-CC-PVTZ-JKFIT + DEF2-UNIVERSAL-JKFIT
    Number of shells: 75
    Number of basis functions: 247
    Number of Cartesian functions: 301
    Spherical Harmonics?: true
    Max angular momentum: 4

  Minimum eigenvalue in the overlap matrix is 1.0201352530E-04.
  Reciprocal condition number of the overlap matrix is 1.1017105607E-05.
    Using symmetric orthogonalization.

  ==> Pre-Iterations <==

  SCF Guess: Superposition of Atomic Densities via on-the-fly atomic UHF (no occupation information).

   -------------------------
    Irrep   Nso     Nmo    
   -------------------------
     A        138     138 
   -------------------------
    Total     138     138
   -------------------------

  ==> Iterations <==

                           Total Energy        Delta E     RMS |[F,P]|

   @DF-RHF iter SAD:   -75.47094779941047   -7.54709e+01   0.00000e+00 
   @DF-RHF iter   1:   -75.97583144220437   -5.04884e-01   3.39258e-03 DIIS/ADIIS
   @DF-RHF iter   2:   -76.02819401106552   -5.23626e-02   2.31996e-03 DIIS/ADIIS
   @DF-RHF iter   3:   -76.05983350278919   -3.16395e-02   1.59168e-04 DIIS/ADIIS
   @DF-RHF iter   4:   -76.06023181498817   -3.98312e-04   3.79135e-05 DIIS
   @DF-RHF iter   5:   -76.06025681626603   -2.50013e-05   8.66103e-06 DIIS
   @DF-RHF iter   6:   -76.06025888052206   -2.06426e-06   1.90299e-06 DIIS
   @DF-RHF iter   7:   -76.06025899022680   -1.09705e-07   3.45487e-07 DIIS
   @DF-RHF iter   8:   -76.06025899339475   -3.16795e-09   5.76597e-08 DIIS
   @DF-RHF iter   9:   -76.06025899346520   -7.04432e-11   1.44264e-08 DIIS
   @DF-RHF iter  10:   -76.06025899346959   -4.39115e-12   2.07111e-09 DIIS
  Energy and wave function converged.


  ==> Post-Iterations <==

    Orbital Energies [Eh]
    ---------------------

    Doubly Occupied:                                                      

       1A    -20.567837     2A     -1.350220     3A     -0.715733  
       4A     -0.582732     5A     -0.509687  

    Virtual:                                                              

       6A      0.010205     7A      0.018766     8A      0.019362  
       9A      0.020577    10A      0.049314    11A      0.060179  
      12A      0.068554    13A      0.074555    14A      0.077159  
      15A      0.077670    16A      0.124982    17A      0.125615  
      18A      0.127375    19A      0.154729    20A      0.159722  
      21A      0.173200    22A      0.184692    23A      0.190644  
      24A      0.193637    25A      0.221224    26A      0.232443  
      27A      0.233666    28A      0.282750    29A      0.284303  
      30A      0.310947    31A      0.315048    32A      0.351425  
      33A      0.355731    34A      0.359954    35A      0.363851  
      36A      0.365810    37A      0.380049    38A      0.382117  
      39A      0.383153    40A      0.393661    41A      0.401623  
      42A      0.402220    43A      0.423794    44A      0.446075  
      45A      0.462187    46A      0.474726    47A      0.498966  
      48A      0.500233    49A      0.614855    50A      0.680306  
      51A      0.692934    52A      0.734235    53A      0.751590  
      54A      0.771019    55A      0.827733    56A      0.828452  
      57A      0.829335    58A      0.840881    59A      0.864419  
      60A      0.875513    61A      0.896378    62A      0.918132  
      63A      0.924874    64A      0.954943    65A      0.962217  
      66A      0.966871    67A      0.985507    68A      0.996328  
      69A      1.063500    70A      1.065236    71A      1.071822  
      72A      1.084218    73A      1.099185    74A      1.152631  
      75A      1.181568    76A      1.196938    77A      1.206955  
      78A      1.211919    79A      1.322149    80A      1.404025  
      81A      1.521443    82A      1.529153    83A      1.657044  
      84A      1.789792    85A      1.793553    86A      1.815502  
      87A      1.885206    88A      1.913607    89A      2.089718  
      90A      2.166727    91A      2.210656    92A      2.326188  
      93A      2.351832    94A      2.524880    95A      2.529101  
      96A      2.563635    97A      2.746379    98A      2.768104  
      99A      2.808213   100A      2.832120   101A      2.897893  
     102A      2.904730   103A      2.986085   104A      3.813899  
     105A      3.828791   106A      4.036412   107A      4.199880  
     108A      4.283444   109A      4.292337   110A      4.323732  
     111A      4.494909   112A      4.519386   113A      4.561393  
     114A      4.575408   115A      4.834884   116A      4.857814  
     117A      5.146478   118A      5.164667   119A      5.291251  
     120A      5.380624   121A      5.520840   122A      5.901983  
     123A      6.290762   124A      6.607869   125A      6.772759  
     126A      6.980818   127A      7.160654   128A      7.314296  
     129A      7.343286   130A      7.355000   131A      7.384850  
     132A      7.458331   133A      7.616046   134A      7.926516  
     135A      7.937931   136A      8.827616   137A     11.300964  
     138A     15.944351  

    Final Occupation by Irrep:
              A 
    DOCC [     5 ]
    NA   [     5 ]
    NB   [     5 ]

  @DF-RHF Final Energy:   -76.06025899346959

   => Energetics <=

    Nuclear Repulsion Energy =              9.1390809980489358
    One-Electron Energy =                -122.9462643156795139
    Two-Electron Energy =                  37.7469243241609860
    Total Energy =                        -76.0602589934695885

Computation Completed


Properties will be evaluated at   0.000000,   0.000000,   0.000000 [a0]

Properties computed using the SCF density matrix


 Multipole Moments:

 ------------------------------------------------------------------------------------
     Multipole            Electronic (a.u.)      Nuclear  (a.u.)        Total (a.u.)
 ------------------------------------------------------------------------------------

 L = 1.  Multiply by 2.5417464519 to convert [e a0] to [Debye]
 Dipole X            :          1.4360613           -2.2137877           -0.7777264
 Dipole Y            :          0.0000000            0.0000000            0.0000000
 Dipole Z            :          0.0000000            0.0000000            0.0000000
 Magnitude           :                                                    0.7777264

 ------------------------------------------------------------------------------------

*** tstop() called on moses-razer at Fri Dec 29 17:24:34 2023
Module time:
	user time   =       3.07 seconds =       0.05 minutes
	system time =       0.05 seconds =       0.00 minutes
	total time  =          0 seconds =       0.00 minutes
Total time:
	user time   =       7.40 seconds =       0.12 minutes
	system time =       0.27 seconds =       0.00 minutes
	total time  =          1 seconds =       0.02 minutes

  //>>>>>>>>>>>>>>>>>>>>>>>>>>>>>>>>>>>//
  //            Monomer B HF           //
  //<<<<<<<<<<<<<<<<<<<<<<<<<<<<<<<<<<<//

   => Libint2 <=

    Primary   basis highest AM E, G, H:  5, 4, 3
    Auxiliary basis highest AM E, G, H:  6, 5, 4
    Onebody   basis highest AM E, G, H:  6, 5, 4
    Solid Harmonics ordering:            gaussian

*** tstart() called on moses-razer
*** at Fri Dec 29 17:24:34 2023

   => Loading Basis Set <=

    Name: AUG-CC-PVTZ
    Role: ORBITAL
    Keyword: BASIS
    atoms 1   entry O          line   331 file /home/kchung25/anaconda3/envs/p415env/share/psi4/basis/aug-cc-pvtz.gbs 
    atoms 2-3 entry H          line    40 file /home/kchung25/anaconda3/envs/p415env/share/psi4/basis/aug-cc-pvtz.gbs 
    atoms 4   entry LI         line    85 file /home/kchung25/anaconda3/envs/p415env/share/psi4/basis/aug-cc-pvtz.gbs 


         ---------------------------------------------------------
                                   SCF
               by Justin Turney, Rob Parrish, Andy Simmonett
                          and Daniel G. A. Smith
                              RHF Reference
                        6 Threads,  57220 MiB Core
         ---------------------------------------------------------

  ==> Geometry <==

    Molecular point group: c1
    Full point group: C2v

    Geometry (in Angstrom), charge = 1, multiplicity = 1:

       Center              X                  Y                   Z               Mass       
    ------------   -----------------  -----------------  -----------------  -----------------
      Gh(O)           0.000000000000     0.000000000000     0.000000000000    15.994914619570
      Gh(H)          -0.585743000000     0.764276000000     0.000000000000     1.007825032230
      Gh(H)          -0.585743000000    -0.764276000000     0.000000000000     1.007825032230
         LI           1.828878000000     0.000000000000     0.000000000000     7.016003436600

  Running in c1 symmetry.

  Rotational constants: A =     14.31795  B =      0.69779  C =      0.66536 [cm^-1]
  Rotational constants: A = 429241.41577  B =  20919.17376  C =  19947.04994 [MHz]
  Nuclear repulsion =    0.000000000000000

  Charge       = 1
  Multiplicity = 1
  Electrons    = 2
  Nalpha       = 1
  Nbeta        = 1

  ==> Algorithm <==

  SCF Algorithm Type is DF.
  DIIS enabled.
  MOM disabled.
  Fractional occupation disabled.
  Guess Type is SAD.
  Energy threshold   = 1.00e-08
  Density threshold  = 1.00e-08
  Integral threshold = 1.00e-12

  ==> Primary Basis <==

  Basis Set: AUG-CC-PVTZ
    Blend: AUG-CC-PVTZ
    Number of shells: 46
    Number of basis functions: 138
    Number of Cartesian functions: 160
    Spherical Harmonics?: true
    Max angular momentum: 3

   => Loading Basis Set <=

    Name: (AUG-CC-PVTZ AUX)
    Role: JKFIT
    Keyword: DF_BASIS_SCF
    atoms 1   entry O          line   286 file /home/kchung25/anaconda3/envs/p415env/share/psi4/basis/aug-cc-pvtz-jkfit.gbs 
    atoms 2-3 entry H          line    70 file /home/kchung25/anaconda3/envs/p415env/share/psi4/basis/aug-cc-pvtz-jkfit.gbs 
    atoms 4   entry LI         line    54 file /home/kchung25/anaconda3/envs/p415env/share/psi4/basis/def2-universal-jkfit.gbs 

  ==> Integral Setup <==

  ==> DiskDFJK: Density-Fitted J/K Matrices <==

    J tasked:                  Yes
    K tasked:                  Yes
    wK tasked:                  No
    OpenMP threads:              6
    Integrals threads:           6
    Memory [MiB]:            42915
    Algorithm:                Core
    Integral Cache:           LOAD
    Schwarz Cutoff:          1E-12
    Fitting Condition:       1E-10

   => Auxiliary Basis Set <=

  Basis Set: (AUG-CC-PVTZ AUX)
    Blend: AUG-CC-PVTZ-JKFIT + DEF2-UNIVERSAL-JKFIT
    Number of shells: 75
    Number of basis functions: 247
    Number of Cartesian functions: 301
    Spherical Harmonics?: true
    Max angular momentum: 4

  Minimum eigenvalue in the overlap matrix is 1.0201352530E-04.
  Reciprocal condition number of the overlap matrix is 1.1017105607E-05.
    Using symmetric orthogonalization.

  ==> Pre-Iterations <==

  SCF Guess: Superposition of Atomic Densities via on-the-fly atomic UHF (no occupation information).

   -------------------------
    Irrep   Nso     Nmo    
   -------------------------
     A        138     138 
   -------------------------
    Total     138     138
   -------------------------

  ==> Iterations <==

                           Total Energy        Delta E     RMS |[F,P]|

   @DF-RHF iter SAD:    -7.31447508570483   -7.31448e+00   0.00000e+00 
   @DF-RHF iter   1:    -7.23638167609896    7.80934e-02   1.64433e-05 DIIS
   @DF-RHF iter   2:    -7.23638354224460   -1.86615e-06   1.87391e-06 DIIS
   @DF-RHF iter   3:    -7.23638357028161   -2.80370e-08   9.51617e-08 DIIS
   @DF-RHF iter   4:    -7.23638357033763   -5.60174e-11   7.62034e-10 DIIS
  Energy and wave function converged.


  ==> Post-Iterations <==

    Orbital Energies [Eh]
    ---------------------

    Doubly Occupied:                                                      

       1A     -2.792368  

    Virtual:                                                              

       2A     -0.196298     3A     -0.128599     4A     -0.128595  
       5A     -0.128594     6A     -0.073714     7A     -0.056372  
       8A     -0.056353     9A     -0.056347    10A     -0.046988  
      11A     -0.046876    12A     -0.031706    13A     -0.031413  
      14A     -0.031340    15A     -0.010731    16A     -0.005980  
      17A     -0.004242    18A     -0.003921    19A      0.013377  
      20A      0.018734    21A      0.055426    22A      0.055845  
      23A      0.061676    24A      0.113536    25A      0.120395  
      26A      0.126238    27A      0.127461    28A      0.132388  
      29A      0.134471    30A      0.135298    31A      0.159510  
      32A      0.167744    33A      0.173206    34A      0.188898  
      35A      0.190942    36A      0.193846    37A      0.209651  
      38A      0.227008    39A      0.234649    40A      0.245428  
      41A      0.255985    42A      0.258262    43A      0.270780  
      44A      0.273884    45A      0.315218    46A      0.348087  
      47A      0.361445    48A      0.523753    49A      0.524191  
      50A      0.532852    51A      0.534012    52A      0.545439  
      53A      0.549022    54A      0.567584    55A      0.567642  
      56A      0.568473    57A      0.569775    58A      0.581304  
      59A      0.592953    60A      0.676779    61A      0.680144  
      62A      0.714415    63A      0.741503    64A      0.779019  
      65A      0.780017    66A      0.791519    67A      0.851771  
      68A      0.889090    69A      0.927450    70A      0.931493  
      71A      0.932660    72A      0.985798    73A      1.003836  
      74A      1.061982    75A      1.095497    76A      1.124494  
      77A      1.164742    78A      1.168234    79A      1.381357  
      80A      1.519169    81A      1.577742    82A      1.582347  
      83A      1.655520    84A      1.681517    85A      1.776917  
      86A      1.870485    87A      2.178823    88A      2.234038  
      89A      2.250348    90A      2.260162    91A      2.261342  
      92A      2.297498    93A      2.480481    94A      2.525498  
      95A      2.630907    96A      2.957849    97A      2.974156  
      98A      3.077680    99A      3.078046   100A      3.121210  
     101A      3.357012   102A      3.456786   103A      3.583453  
     104A      4.150486   105A      4.295249   106A      4.394314  
     107A      4.459019   108A      4.570366   109A      4.601565  
     110A      4.748003   111A      4.778640   112A      4.801504  
     113A      5.004237   114A      5.314473   115A      5.417694  
     116A      5.439430   117A      5.655464   118A      5.892085  
     119A      6.245837   120A      6.489964   121A      6.832748  
     122A      7.413429   123A      7.624025   124A      7.796401  
     125A      7.941721   126A      7.994014   127A      8.502559  
     128A      8.553725   129A      9.539918   130A      9.652097  
     131A      9.731032   132A      9.961828   133A     10.957958  
     134A     11.403748   135A     11.918220   136A     13.278720  
     137A     13.573566   138A     64.614310  

    Final Occupation by Irrep:
              A 
    DOCC [     1 ]
    NA   [     1 ]
    NB   [     1 ]

  @DF-RHF Final Energy:    -7.23638357033763

   => Energetics <=

    Nuclear Repulsion Energy =              0.0000000000000000
    One-Electron Energy =                  -8.8880314061471477
    Two-Electron Energy =                   1.6516478358095217
    Total Energy =                         -7.2363835703376260

Computation Completed


Properties will be evaluated at   0.000000,   0.000000,   0.000000 [a0]

Properties computed using the SCF density matrix


 Multipole Moments:

 ------------------------------------------------------------------------------------
     Multipole            Electronic (a.u.)      Nuclear  (a.u.)        Total (a.u.)
 ------------------------------------------------------------------------------------

 L = 1.  Multiply by 2.5417464519 to convert [e a0] to [Debye]
 Dipole X            :         -6.9121683           10.3682356            3.4560673
 Dipole Y            :          0.0000000            0.0000000            0.0000000
 Dipole Z            :          0.0000000            0.0000000            0.0000000
 Magnitude           :                                                    3.4560673

 ------------------------------------------------------------------------------------

*** tstop() called on moses-razer at Fri Dec 29 17:24:35 2023
Module time:
	user time   =       2.57 seconds =       0.04 minutes
	system time =       0.04 seconds =       0.00 minutes
	total time  =          1 seconds =       0.02 minutes
Total time:
	user time   =      10.01 seconds =       0.17 minutes
	system time =       0.31 seconds =       0.01 minutes
	total time  =          2 seconds =       0.03 minutes
  Constructing Basis Sets for SAPT...

   => Loading Basis Set <=

    Name: (AUG-CC-PVTZ AUX)
    Role: RIFIT
    Keyword: DF_BASIS_SAPT
    atoms 1   entry O          line   264 file /home/kchung25/anaconda3/envs/p415env/share/psi4/basis/aug-cc-pvtz-ri.gbs 
    atoms 2-3 entry H          line    30 file /home/kchung25/anaconda3/envs/p415env/share/psi4/basis/aug-cc-pvtz-ri.gbs 
    atoms 4   entry LI         line    90 file /home/kchung25/anaconda3/envs/p415env/share/psi4/basis/def2-qzvpp-ri.gbs 

   => Loading Basis Set <=

    Name: (AUG-CC-PVTZ AUX)
    Role: JKFIT
    Keyword: DF_BASIS_ELST
    atoms 1   entry O          line   286 file /home/kchung25/anaconda3/envs/p415env/share/psi4/basis/aug-cc-pvtz-jkfit.gbs 
    atoms 2-3 entry H          line    70 file /home/kchung25/anaconda3/envs/p415env/share/psi4/basis/aug-cc-pvtz-jkfit.gbs 
    atoms 4   entry LI         line    54 file /home/kchung25/anaconda3/envs/p415env/share/psi4/basis/def2-universal-jkfit.gbs 


  //>>>>>>>>>>>>>>>>>>>>>>>>>>>>>>>>>>>//
  //               SAPT2+              //
  //<<<<<<<<<<<<<<<<<<<<<<<<<<<<<<<<<<<//


*** tstart() called on moses-razer
*** at Fri Dec 29 17:24:35 2023

        SAPT2+  
    Ed Hohenstein
     6 June 2009

      Orbital Information
  --------------------------
    NSO        =       138
    NMO        =       138
    NRI        =       299
    NOCC A     =         5
    NOCC B     =         1
    FOCC A     =         0
    FOCC B     =         0
    NVIR A     =       133
    NVIR B     =       137

    Estimated memory usage: 56.2 MB

    Natural Orbital Cutoff:   1.000E-06
    Disp(T3) Truncation:            Yes
    CCD (vv|vv) Truncation:         Yes
    MBPT T2 Truncation:             Yes

    Monomer A: 52 virtual orbitals dropped
    Monomer B: 132 virtual orbitals dropped

    Elst10,r            =    -0.056257043659 [Eh]
    Exch10 (S^2)        =     0.019923084734 [Eh]
    Exch10              =     0.020027682029 [Eh]
    Ind20,r (A<-B)      =    -0.033317963831 [Eh]
    Ind20,r (B<-A)      =    -0.000051074452 [Eh]
    Ind20,r             =    -0.033369038283 [Eh]
    Exch-Ind20,r (A<-B) =     0.014431373969 [Eh]
    Exch-Ind20,r (B<-A) =    -0.000002541762 [Eh]
    Exch-Ind20,r        =     0.014428832207 [Eh]
    Disp20              =    -0.000929176208 [Eh]
    Disp20 (NO)         =    -0.000712997710 [Eh]
    Exch-Disp20         =     0.000103673681 [Eh]
    Elst12,r            =     0.004021902767 [Eh]
    Exch11              =    -0.000031981336 [Eh]
    Exch12              =     0.001210931277 [Eh]
    Ind22               =    -0.002701183756 [Eh]
    Disp21              =    -0.000043462107 [Eh]
    Disp22 (SDQ)        =    -0.000012011907 [Eh]

    (i =   1 of   1)          0 seconds

    Disp220 (T)         =    -0.000036672725 [Eh]

    (i =   1 of   5)          0 seconds
    (i =   2 of   5)          0 seconds
    (i =   3 of   5)          0 seconds
    (i =   4 of   5)          0 seconds
    (i =   5 of   5)          0 seconds

    Disp202 (T)         =    -0.000009097982 [Eh]

    Disp22 (T)          =    -0.000045770707 [Eh]

    Est. Disp220 (T)    =    -0.000047791772 [Eh]
    Est. Disp202 (T)    =    -0.000011856459 [Eh]

    Est. Disp22 (T)     =    -0.000059648231 [Eh]

    SAPT Results 
  --------------------------------------------------------------------------------------------------------
    Electrostatics                -52.23514089 [mEh]     -32.77804577 [kcal/mol]    -137.14334352 [kJ/mol]
      Elst10,r                    -56.25704366 [mEh]     -35.30182786 [kcal/mol]    -147.70284778 [kJ/mol]
      Elst12,r                      4.02190277 [mEh]       2.52378209 [kcal/mol]      10.55950426 [kJ/mol]

    Exchange                       21.20663197 [mEh]      13.30736247 [kcal/mol]      55.67800457 [kJ/mol]
      Exch10                       20.02768203 [mEh]      12.56756021 [kcal/mol]      52.58267192 [kJ/mol]
      Exch10(S^2)                  19.92308473 [mEh]      12.50192442 [kcal/mol]      52.30805176 [kJ/mol]
      Exch11(S^2)                  -0.03198134 [mEh]      -0.02006859 [kcal/mol]      -0.08396699 [kJ/mol]
      Exch12(S^2)                   1.21093128 [mEh]       0.75987085 [kcal/mol]       3.17929963 [kJ/mol]

    Induction                     -21.91295957 [mEh]     -13.75058973 [kcal/mol]     -57.53246741 [kJ/mol]
      Ind20,r                     -33.36903828 [mEh]     -20.93938765 [kcal/mol]     -87.61039794 [kJ/mol]
      Ind22                        -2.70118376 [mEh]      -1.69501840 [kcal/mol]      -7.09195697 [kJ/mol]
      Exch-Ind20,r                 14.42883221 [mEh]       9.05422891 [kcal/mol]      37.88289374 [kJ/mol]
      Exch-Ind22                    1.16799672 [mEh]       0.73292901 [kcal/mol]       3.06657496 [kJ/mol]
      delta HF,r (2)               -1.43956645 [mEh]      -0.90334159 [kcal/mol]      -3.77958120 [kJ/mol]

    Dispersion                     -0.94062477 [mEh]      -0.59025096 [kcal/mol]      -2.46961000 [kJ/mol]
      Disp20                       -0.92917621 [mEh]      -0.58306687 [kcal/mol]      -2.43955180 [kJ/mol]
      Disp21                       -0.04346211 [mEh]      -0.02727288 [kcal/mol]      -0.11410975 [kJ/mol]
      Disp22 (SDQ)                 -0.01201191 [mEh]      -0.00753759 [kcal/mol]      -0.03153726 [kJ/mol]
      Disp22 (T)                   -0.04577071 [mEh]      -0.02872155 [kcal/mol]      -0.12017098 [kJ/mol]
      Est. Disp22 (T)              -0.05964823 [mEh]      -0.03742983 [kcal/mol]      -0.15660641 [kJ/mol]
      Exch-Disp20                   0.10367368 [mEh]       0.06505622 [kcal/mol]       0.27219521 [kJ/mol]

  Total HF                        -56.60913416 [mEh]     -35.52276799 [kcal/mol]    -148.62726125 [kJ/mol]
  Total SAPT0                     -57.43463668 [mEh]     -36.04077864 [kcal/mol]    -150.79461784 [kJ/mol]
  Total SAPT2                     -53.76697101 [mEh]     -33.73928369 [kcal/mol]    -141.16516295 [kJ/mol]
  Total SAPT2+                    -53.88209326 [mEh]     -33.81152399 [kcal/mol]    -141.46741636 [kJ/mol]

  Special recipe for scaled SAPT0 (see Manual):
    Electrostatics sSAPT0         -56.25704366 [mEh]     -35.30182786 [kcal/mol]    -147.70284778 [kJ/mol]
    Exchange sSAPT0                20.02768203 [mEh]      12.56756021 [kcal/mol]      52.58267192 [kJ/mol]
    Induction sSAPT0              -20.15132083 [mEh]     -12.64514473 [kcal/mol]     -52.90728555 [kJ/mol]
    Dispersion sSAPT0              -0.82386106 [mEh]      -0.51698062 [kcal/mol]      -2.16304692 [kJ/mol]
  Total sSAPT0                    -57.20454352 [mEh]     -35.89639300 [kcal/mol]    -150.19050833 [kJ/mol]
  --------------------------------------------------------------------------------------------------------

*** tstop() called on moses-razer at Fri Dec 29 17:24:37 2023
Module time:
	user time   =      12.75 seconds =       0.21 minutes
	system time =       0.77 seconds =       0.01 minutes
	total time  =          2 seconds =       0.03 minutes
Total time:
	user time   =      23.31 seconds =       0.39 minutes
	system time =       1.09 seconds =       0.02 minutes
	total time  =          4 seconds =       0.07 minutes

    Psi4 stopped on: Friday, 29 December 2023 05:24PM
    Psi4 wall time for execution: 0:00:04.48

*** Psi4 exiting successfully. Buy a developer a beer!
