
    -----------------------------------------------------------------------
          Psi4: An Open-Source Ab Initio Electronic Structure Package
                               Psi4 1.9 release

                         Git: Rev {} zzzzzzz 


    D. G. A. Smith, L. A. Burns, A. C. Simmonett, R. M. Parrish,
    M. C. Schieber, R. Galvelis, P. Kraus, H. Kruse, R. Di Remigio,
    A. Alenaizan, A. M. James, S. Lehtola, J. P. Misiewicz, M. Scheurer,
    R. A. Shaw, J. B. Schriber, Y. Xie, Z. L. Glick, D. A. Sirianni,
    J. S. O'Brien, J. M. Waldrop, A. Kumar, E. G. Hohenstein,
    B. P. Pritchard, B. R. Brooks, H. F. Schaefer III, A. Yu. Sokolov,
    K. Patkowski, A. E. DePrince III, U. Bozkaya, R. A. King,
    F. A. Evangelista, J. M. Turney, T. D. Crawford, C. D. Sherrill,
    J. Chem. Phys. 152(18) 184108 (2020). https://doi.org/10.1063/5.0006002

                            Additional Code Authors
    E. T. Seidl, C. L. Janssen, E. F. Valeev, M. L. Leininger,
    J. F. Gonthier, R. M. Richard, H. R. McAlexander, M. Saitow, X. Wang,
    P. Verma, M. H. Lechner, A. Jiang, S. Behnle, A. G. Heide,
    M. F. Herbst, and D. L. Poole

             Previous Authors, Complete List of Code Contributors,
                       and Citations for Specific Modules
    https://github.com/psi4/psi4/blob/master/codemeta.json
    https://github.com/psi4/psi4/graphs/contributors
    http://psicode.org/psi4manual/master/introduction.html#citing-psifour

    -----------------------------------------------------------------------


    Psi4 started on: Friday, 29 December 2023 05:25PM

    Process ID: 157342
    Host:       moses-razer
    PSIDATADIR: /home/kchung25/anaconda3/envs/psi4_19/share/psi4
    Memory:     500.0 MiB
    Threads:    6
    
  ==> Input File <==

--------------------------------------------------------------------------
MEMORY 60 GB

molecule dimer {
0 1
O      0.000000     0.000000     0.000000
H     -0.588073     0.760558     0.000000
H     -0.588073    -0.760558     0.000000
--
1 1
Na     1.727152     0.000000     0.000000

units ang
no_reorient
no_com
symmetry c1
}

set {
basis        aug-cc-pVTZ
scf_type     df
}

energy("sapt2+")
--------------------------------------------------------------------------

  Memory set to  55.879 GiB by Python driver.

Scratch directory: /scratch/
   => Loading Basis Set <=

    Name: AUG-CC-PVTZ
    Role: ORBITAL
    Keyword: BASIS
    atoms 1   entry O          line   331 file /home/kchung25/anaconda3/envs/p415env/share/psi4/basis/aug-cc-pvtz.gbs 
    atoms 2-3 entry H          line    40 file /home/kchung25/anaconda3/envs/p415env/share/psi4/basis/aug-cc-pvtz.gbs 
    atoms 4   entry NA         line   469 file /home/kchung25/anaconda3/envs/p415env/share/psi4/basis/aug-cc-pvtz.gbs 

   => Loading Basis Set <=

    Name: AUG-CC-PVTZ
    Role: ORBITAL
    Keyword: BASIS
    atoms 1   entry O          line   331 file /home/kchung25/anaconda3/envs/p415env/share/psi4/basis/aug-cc-pvtz.gbs 
    atoms 2-3 entry H          line    40 file /home/kchung25/anaconda3/envs/p415env/share/psi4/basis/aug-cc-pvtz.gbs 
    atoms 4   entry NA         line   469 file /home/kchung25/anaconda3/envs/p415env/share/psi4/basis/aug-cc-pvtz.gbs 


  //>>>>>>>>>>>>>>>>>>>>>>>>>>>>>>>>>>>//
  //              Dimer HF             //
  //<<<<<<<<<<<<<<<<<<<<<<<<<<<<<<<<<<<//

   => Libint2 <=

    Primary   basis highest AM E, G, H:  5, 4, 3
    Auxiliary basis highest AM E, G, H:  6, 5, 4
    Onebody   basis highest AM E, G, H:  6, 5, 4
    Solid Harmonics ordering:            gaussian

*** tstart() called on moses-razer
*** at Fri Dec 29 17:25:10 2023

   => Loading Basis Set <=

    Name: AUG-CC-PVTZ
    Role: ORBITAL
    Keyword: BASIS
    atoms 1   entry O          line   331 file /home/kchung25/anaconda3/envs/p415env/share/psi4/basis/aug-cc-pvtz.gbs 
    atoms 2-3 entry H          line    40 file /home/kchung25/anaconda3/envs/p415env/share/psi4/basis/aug-cc-pvtz.gbs 
    atoms 4   entry NA         line   469 file /home/kchung25/anaconda3/envs/p415env/share/psi4/basis/aug-cc-pvtz.gbs 


         ---------------------------------------------------------
                                   SCF
               by Justin Turney, Rob Parrish, Andy Simmonett
                          and Daniel G. A. Smith
                              RHF Reference
                        6 Threads,  57220 MiB Core
         ---------------------------------------------------------

  ==> Geometry <==

    Molecular point group: c1
    Full point group: C2v

    Geometry (in Angstrom), charge = 1, multiplicity = 1:

       Center              X                  Y                   Z               Mass       
    ------------   -----------------  -----------------  -----------------  -----------------
         O            0.000000000000     0.000000000000     0.000000000000    15.994914619570
         H           -0.588073000000     0.760558000000     0.000000000000     1.007825032230
         H           -0.588073000000    -0.760558000000     0.000000000000     1.007825032230
         NA           1.727152000000     0.000000000000     0.000000000000    22.989769282000

  Running in c1 symmetry.

  Rotational constants: A =     14.45828  B =      0.24334  C =      0.23931 [cm^-1]
  Rotational constants: A = 433448.38071  B =   7295.06904  C =   7174.32298 [MHz]
  Nuclear repulsion =   40.894036209946627

  Charge       = 1
  Multiplicity = 1
  Electrons    = 20
  Nalpha       = 10
  Nbeta        = 10

  ==> Algorithm <==

  SCF Algorithm Type is DF.
  DIIS enabled.
  MOM disabled.
  Fractional occupation disabled.
  Guess Type is SAD.
  Energy threshold   = 1.00e-08
  Density threshold  = 1.00e-08
  Integral threshold = 1.00e-12

  ==> Primary Basis <==

  Basis Set: AUG-CC-PVTZ
    Blend: AUG-CC-PVTZ
    Number of shells: 48
    Number of basis functions: 142
    Number of Cartesian functions: 164
    Spherical Harmonics?: true
    Max angular momentum: 3

   => Loading Basis Set <=

    Name: (AUG-CC-PVTZ AUX)
    Role: JKFIT
    Keyword: DF_BASIS_SCF
    atoms 1   entry O          line   286 file /home/kchung25/anaconda3/envs/p415env/share/psi4/basis/aug-cc-pvtz-jkfit.gbs 
    atoms 2-3 entry H          line    70 file /home/kchung25/anaconda3/envs/p415env/share/psi4/basis/aug-cc-pvtz-jkfit.gbs 
    atoms 4   entry NA         line   498 file /home/kchung25/anaconda3/envs/p415env/share/psi4/basis/def2-universal-jkfit.gbs 

  ==> Integral Setup <==

  ==> DiskDFJK: Density-Fitted J/K Matrices <==

    J tasked:                  Yes
    K tasked:                  Yes
    wK tasked:                  No
    OpenMP threads:              6
    Integrals threads:           6
    Memory [MiB]:            42915
    Algorithm:                Core
    Integral Cache:           SAVE
    Schwarz Cutoff:          1E-12
    Fitting Condition:       1E-10

   => Auxiliary Basis Set <=

  Basis Set: (AUG-CC-PVTZ AUX)
    Blend: AUG-CC-PVTZ-JKFIT + DEF2-UNIVERSAL-JKFIT
    Number of shells: 92
    Number of basis functions: 308
    Number of Cartesian functions: 378
    Spherical Harmonics?: true
    Max angular momentum: 4

  Minimum eigenvalue in the overlap matrix is 3.3848360396E-05.
  Reciprocal condition number of the overlap matrix is 3.7723932912E-06.
    Using symmetric orthogonalization.

  ==> Pre-Iterations <==

  SCF Guess: Superposition of Atomic Densities via on-the-fly atomic UHF (no occupation information).

   -------------------------
    Irrep   Nso     Nmo    
   -------------------------
     A        142     142 
   -------------------------
    Total     142     142
   -------------------------

  ==> Iterations <==

                           Total Energy        Delta E     RMS |[F,P]|

   @DF-RHF iter SAD:  -237.38294759418960   -2.37383e+02   0.00000e+00 
   @DF-RHF iter   1:  -237.63951783248226   -2.56570e-01   3.62337e-03 ADIIS/DIIS
   @DF-RHF iter   2:  -237.70168580752221   -6.21680e-02   2.25016e-03 ADIIS/DIIS
   @DF-RHF iter   3:  -237.73233247833193   -3.06467e-02   1.58695e-04 ADIIS/DIIS
   @DF-RHF iter   4:  -237.73269841783031   -3.65939e-04   3.40097e-05 DIIS
   @DF-RHF iter   5:  -237.73271778832995   -1.93705e-05   7.33504e-06 DIIS
   @DF-RHF iter   6:  -237.73271909022577   -1.30190e-06   1.26370e-06 DIIS
   @DF-RHF iter   7:  -237.73271913136853   -4.11428e-08   2.22802e-07 DIIS
   @DF-RHF iter   8:  -237.73271913249545   -1.12692e-09   3.97356e-08 DIIS
   @DF-RHF iter   9:  -237.73271913251972   -2.42721e-11   5.81113e-09 DIIS
  Energy and wave function converged.


  ==> Post-Iterations <==

    Orbital Energies [Eh]
    ---------------------

    Doubly Occupied:                                                      

       1A    -40.655519     2A    -20.794262     3A     -2.991771  
       4A     -1.736912     5A     -1.713230     6A     -1.712699  
       7A     -1.585552     8A     -0.960484     9A     -0.852867  
      10A     -0.762502  

    Virtual:                                                              

      11A     -0.144425    12A     -0.096781    13A     -0.094009  
      14A     -0.088795    15A     -0.060306    16A     -0.053596  
      17A     -0.051210    18A     -0.046824    19A     -0.045869  
      20A     -0.044930    21A     -0.042338    22A     -0.041021  
      23A     -0.038839    24A     -0.013177    25A     -0.011557  
      26A      0.005061    27A      0.008506    28A      0.009885  
      29A      0.031706    30A      0.052101    31A      0.053971  
      32A      0.064856    33A      0.067728    34A      0.070605  
      35A      0.089900    36A      0.090413    37A      0.103527  
      38A      0.105482    39A      0.115631    40A      0.116598  
      41A      0.124427    42A      0.136360    43A      0.162667  
      44A      0.163730    45A      0.178809    46A      0.180912  
      47A      0.207177    48A      0.208517    49A      0.225442  
      50A      0.260325    51A      0.275784    52A      0.297280  
      53A      0.300357    54A      0.309425    55A      0.352911  
      56A      0.391410    57A      0.396417    58A      0.401454  
      59A      0.419883    60A      0.428371    61A      0.485605  
      62A      0.508973    63A      0.521674    64A      0.521852  
      65A      0.538883    66A      0.565183    67A      0.584458  
      68A      0.609847    69A      0.631719    70A      0.643727  
      71A      0.658821    72A      0.667144    73A      0.737401  
      74A      0.769288    75A      0.809869    76A      0.850896  
      77A      0.878499    78A      0.885786    79A      0.901883  
      80A      0.945265    81A      0.983224    82A      1.004310  
      83A      1.009819    84A      1.080682    85A      1.083738  
      86A      1.127436    87A      1.150495    88A      1.322238  
      89A      1.452318    90A      1.460386    91A      1.520100  
      92A      1.644836    93A      1.760018    94A      1.807960  
      95A      1.928095    96A      2.054104    97A      2.070469  
      98A      2.094338    99A      2.134865   100A      2.140533  
     101A      2.303869   102A      2.350127   103A      2.478751  
     104A      2.535139   105A      2.582709   106A      2.585010  
     107A      2.600310   108A      2.645143   109A      3.516735  
     110A      3.576784   111A      3.819284   112A      4.025445  
     113A      4.042447   114A      4.057228   115A      4.076214  
     116A      4.260268   117A      4.301428   118A      4.314084  
     119A      4.364130   120A      4.573913   121A      4.659736  
     122A      4.918119   123A      4.934245   124A      5.019293  
     125A      5.152738   126A      5.298303   127A      5.605819  
     128A      6.037146   129A      6.353235   130A      6.462970  
     131A      6.697009   132A      6.911625   133A      7.058178  
     134A      7.086041   135A      7.125049   136A      7.146111  
     137A      7.189344   138A      7.390180   139A      7.687435  
     140A      7.701322   141A      8.582607   142A     15.682721  

    Final Occupation by Irrep:
              A 
    DOCC [    10 ]
    NA   [    10 ]
    NB   [    10 ]

  @DF-RHF Final Energy:  -237.73271913251972

   => Energetics <=

    Nuclear Repulsion Energy =             40.8940362099466270
    One-Electron Energy =                -409.7219136915739455
    Two-Electron Energy =                 131.0951583491075780
    Total Energy =                       -237.7327191325197191

Computation Completed


Properties will be evaluated at   0.000000,   0.000000,   0.000000 [a0]

Properties computed using the SCF density matrix


 Multipole Moments:

 ------------------------------------------------------------------------------------
     Multipole            Electronic (a.u.)      Nuclear  (a.u.)        Total (a.u.)
 ------------------------------------------------------------------------------------

 L = 1.  Multiply by 2.5417464519 to convert [e a0] to [Debye]
 Dipole X            :        -31.5222674           33.6796930            2.1574256
 Dipole Y            :         -0.0000000            0.0000000           -0.0000000
 Dipole Z            :         -0.0000000            0.0000000           -0.0000000
 Magnitude           :                                                    2.1574256

 ------------------------------------------------------------------------------------

*** tstop() called on moses-razer at Fri Dec 29 17:25:12 2023
Module time:
	user time   =       6.38 seconds =       0.11 minutes
	system time =       0.72 seconds =       0.01 minutes
	total time  =          2 seconds =       0.03 minutes
Total time:
	user time   =       6.38 seconds =       0.11 minutes
	system time =       0.72 seconds =       0.01 minutes
	total time  =          2 seconds =       0.03 minutes

  //>>>>>>>>>>>>>>>>>>>>>>>>>>>>>>>>>>>//
  //            Monomer A HF           //
  //<<<<<<<<<<<<<<<<<<<<<<<<<<<<<<<<<<<//

   => Libint2 <=

    Primary   basis highest AM E, G, H:  5, 4, 3
    Auxiliary basis highest AM E, G, H:  6, 5, 4
    Onebody   basis highest AM E, G, H:  6, 5, 4
    Solid Harmonics ordering:            gaussian

*** tstart() called on moses-razer
*** at Fri Dec 29 17:25:12 2023

   => Loading Basis Set <=

    Name: AUG-CC-PVTZ
    Role: ORBITAL
    Keyword: BASIS
    atoms 1   entry O          line   331 file /home/kchung25/anaconda3/envs/p415env/share/psi4/basis/aug-cc-pvtz.gbs 
    atoms 2-3 entry H          line    40 file /home/kchung25/anaconda3/envs/p415env/share/psi4/basis/aug-cc-pvtz.gbs 
    atoms 4   entry NA         line   469 file /home/kchung25/anaconda3/envs/p415env/share/psi4/basis/aug-cc-pvtz.gbs 


         ---------------------------------------------------------
                                   SCF
               by Justin Turney, Rob Parrish, Andy Simmonett
                          and Daniel G. A. Smith
                              RHF Reference
                        6 Threads,  57220 MiB Core
         ---------------------------------------------------------

  ==> Geometry <==

    Molecular point group: c1
    Full point group: C2v

    Geometry (in Angstrom), charge = 0, multiplicity = 1:

       Center              X                  Y                   Z               Mass       
    ------------   -----------------  -----------------  -----------------  -----------------
         O            0.000000000000     0.000000000000     0.000000000000    15.994914619570
         H           -0.588073000000     0.760558000000     0.000000000000     1.007825032230
         H           -0.588073000000    -0.760558000000     0.000000000000     1.007825032230
      Gh(NA)          1.727152000000     0.000000000000     0.000000000000    22.989769282000

  Running in c1 symmetry.

  Rotational constants: A =     14.45828  B =      0.24334  C =      0.23931 [cm^-1]
  Rotational constants: A = 433448.38071  B =   7295.06904  C =   7174.32298 [MHz]
  Nuclear repulsion =    9.154719872559765

  Charge       = 0
  Multiplicity = 1
  Electrons    = 10
  Nalpha       = 5
  Nbeta        = 5

  ==> Algorithm <==

  SCF Algorithm Type is DF.
  DIIS enabled.
  MOM disabled.
  Fractional occupation disabled.
  Guess Type is SAD.
  Energy threshold   = 1.00e-08
  Density threshold  = 1.00e-08
  Integral threshold = 1.00e-12

  ==> Primary Basis <==

  Basis Set: AUG-CC-PVTZ
    Blend: AUG-CC-PVTZ
    Number of shells: 48
    Number of basis functions: 142
    Number of Cartesian functions: 164
    Spherical Harmonics?: true
    Max angular momentum: 3

   => Loading Basis Set <=

    Name: (AUG-CC-PVTZ AUX)
    Role: JKFIT
    Keyword: DF_BASIS_SCF
    atoms 1   entry O          line   286 file /home/kchung25/anaconda3/envs/p415env/share/psi4/basis/aug-cc-pvtz-jkfit.gbs 
    atoms 2-3 entry H          line    70 file /home/kchung25/anaconda3/envs/p415env/share/psi4/basis/aug-cc-pvtz-jkfit.gbs 
    atoms 4   entry NA         line   498 file /home/kchung25/anaconda3/envs/p415env/share/psi4/basis/def2-universal-jkfit.gbs 

  ==> Integral Setup <==

  ==> DiskDFJK: Density-Fitted J/K Matrices <==

    J tasked:                  Yes
    K tasked:                  Yes
    wK tasked:                  No
    OpenMP threads:              6
    Integrals threads:           6
    Memory [MiB]:            42915
    Algorithm:                Core
    Integral Cache:           LOAD
    Schwarz Cutoff:          1E-12
    Fitting Condition:       1E-10

   => Auxiliary Basis Set <=

  Basis Set: (AUG-CC-PVTZ AUX)
    Blend: AUG-CC-PVTZ-JKFIT + DEF2-UNIVERSAL-JKFIT
    Number of shells: 92
    Number of basis functions: 308
    Number of Cartesian functions: 378
    Spherical Harmonics?: true
    Max angular momentum: 4

  Minimum eigenvalue in the overlap matrix is 3.3848360396E-05.
  Reciprocal condition number of the overlap matrix is 3.7723932912E-06.
    Using symmetric orthogonalization.

  ==> Pre-Iterations <==

  SCF Guess: Superposition of Atomic Densities via on-the-fly atomic UHF (no occupation information).

   -------------------------
    Irrep   Nso     Nmo    
   -------------------------
     A        142     142 
   -------------------------
    Total     142     142
   -------------------------

  ==> Iterations <==

                           Total Energy        Delta E     RMS |[F,P]|

   @DF-RHF iter SAD:   -75.47320750225339   -7.54732e+01   0.00000e+00 
   @DF-RHF iter   1:   -75.97597600208636   -5.02768e-01   3.29812e-03 ADIIS/DIIS
   @DF-RHF iter   2:   -76.02841044333077   -5.24344e-02   2.25238e-03 ADIIS/DIIS
   @DF-RHF iter   3:   -76.05996651083565   -3.15561e-02   1.54411e-04 ADIIS/DIIS
   @DF-RHF iter   4:   -76.06036214438427   -3.95634e-04   3.66786e-05 DIIS
   @DF-RHF iter   5:   -76.06038683097464   -2.46866e-05   8.37455e-06 DIIS
   @DF-RHF iter   6:   -76.06038886465576   -2.03368e-06   1.83687e-06 DIIS
   @DF-RHF iter   7:   -76.06038897233441   -1.07679e-07   3.32129e-07 DIIS
   @DF-RHF iter   8:   -76.06038897541964   -3.08523e-09   5.53400e-08 DIIS
   @DF-RHF iter   9:   -76.06038897548771   -6.80700e-11   1.37626e-08 DIIS
   @DF-RHF iter  10:   -76.06038897549186   -4.14957e-12   1.99355e-09 DIIS
  Energy and wave function converged.


  ==> Post-Iterations <==

    Orbital Energies [Eh]
    ---------------------

    Doubly Occupied:                                                      

       1A    -20.567721     2A     -1.351310     3A     -0.715592  
       4A     -0.583946     5A     -0.509949  

    Virtual:                                                              

       6A      0.008753     7A      0.017122     8A      0.017631  
       9A      0.019091    10A      0.047044    11A      0.057389  
      12A      0.059556    13A      0.062776    14A      0.063853  
      15A      0.069600    16A      0.072390    17A      0.074546  
      18A      0.074745    19A      0.095161    20A      0.104128  
      21A      0.148272    22A      0.151208    23A      0.159170  
      24A      0.168828    25A      0.196813    26A      0.208505  
      27A      0.232510    28A      0.238825    29A      0.255381  
      30A      0.266670    31A      0.272329    32A      0.274375  
      33A      0.282990    34A      0.284855    35A      0.289390  
      36A      0.302146    37A      0.319541    38A      0.338533  
      39A      0.339388    40A      0.344575    41A      0.348668  
      42A      0.362969    43A      0.386281    44A      0.387185  
      45A      0.416231    46A      0.444185    47A      0.471974  
      48A      0.494007    49A      0.509234    50A      0.557929  
      51A      0.644685    52A      0.674304    53A      0.705591  
      54A      0.730996    55A      0.742002    56A      0.750859  
      57A      0.764401    58A      0.784277    59A      0.785581  
      60A      0.786670    61A      0.805478    62A      0.825628  
      63A      0.827371    64A      0.855518    65A      0.858410  
      66A      0.859737    67A      0.863894    68A      0.941072  
      69A      0.948683    70A      0.996843    71A      1.024873  
      72A      1.057086    73A      1.073935    74A      1.093850  
      75A      1.132965    76A      1.157108    77A      1.192492  
      78A      1.204206    79A      1.285074    80A      1.312898  
      81A      1.383697    82A      1.389179    83A      1.470167  
      84A      1.574837    85A      1.653084    86A      1.674994  
      87A      1.817307    88A      1.850097    89A      2.021636  
      90A      2.027499    91A      2.216476    92A      2.336482  
      93A      2.339077    94A      2.430962    95A      2.437394  
      96A      2.579836    97A      2.588817    98A      2.735034  
      99A      2.770362   100A      2.821272   101A      2.835041  
     102A      2.896373   103A      2.910793   104A      3.729671  
     105A      3.821817   106A      4.043226   107A      4.246942  
     108A      4.253727   109A      4.280441   110A      4.304371  
     111A      4.449931   112A      4.464116   113A      4.532503  
     114A      4.535436   115A      4.732255   116A      4.843160  
     117A      4.884782   118A      5.155924   119A      5.158650  
     120A      5.279568   121A      5.377632   122A      5.531970  
     123A      5.787491   124A      6.291688   125A      6.555277  
     126A      6.576887   127A      6.860557   128A      6.962606  
     129A      7.168051   130A      7.197905   131A      7.316873  
     132A      7.387479   133A      7.397935   134A      7.449299  
     135A      7.450215   136A      7.633019   137A      7.913921  
     138A      7.985806   139A      8.842523   140A      9.206157  
     141A     15.970719   142A     64.771128  

    Final Occupation by Irrep:
              A 
    DOCC [     5 ]
    NA   [     5 ]
    NB   [     5 ]

  @DF-RHF Final Energy:   -76.06038897549186

   => Energetics <=

    Nuclear Repulsion Energy =              9.1547198725597649
    One-Electron Energy =                -122.9731816870435210
    Two-Electron Energy =                  37.7580728389919003
    Total Energy =                        -76.0603889754918612

Computation Completed


Properties will be evaluated at   0.000000,   0.000000,   0.000000 [a0]

Properties computed using the SCF density matrix


 Multipole Moments:

 ------------------------------------------------------------------------------------
     Multipole            Electronic (a.u.)      Nuclear  (a.u.)        Total (a.u.)
 ------------------------------------------------------------------------------------

 L = 1.  Multiply by 2.5417464519 to convert [e a0] to [Debye]
 Dipole X            :          1.4426338           -2.2225938           -0.7799600
 Dipole Y            :         -0.0000000            0.0000000           -0.0000000
 Dipole Z            :         -0.0000000            0.0000000           -0.0000000
 Magnitude           :                                                    0.7799600

 ------------------------------------------------------------------------------------

*** tstop() called on moses-razer at Fri Dec 29 17:25:13 2023
Module time:
	user time   =       3.75 seconds =       0.06 minutes
	system time =       0.29 seconds =       0.00 minutes
	total time  =          1 seconds =       0.02 minutes
Total time:
	user time   =      10.16 seconds =       0.17 minutes
	system time =       1.01 seconds =       0.02 minutes
	total time  =          3 seconds =       0.05 minutes

  //>>>>>>>>>>>>>>>>>>>>>>>>>>>>>>>>>>>//
  //            Monomer B HF           //
  //<<<<<<<<<<<<<<<<<<<<<<<<<<<<<<<<<<<//

   => Libint2 <=

    Primary   basis highest AM E, G, H:  5, 4, 3
    Auxiliary basis highest AM E, G, H:  6, 5, 4
    Onebody   basis highest AM E, G, H:  6, 5, 4
    Solid Harmonics ordering:            gaussian

*** tstart() called on moses-razer
*** at Fri Dec 29 17:25:13 2023

   => Loading Basis Set <=

    Name: AUG-CC-PVTZ
    Role: ORBITAL
    Keyword: BASIS
    atoms 1   entry O          line   331 file /home/kchung25/anaconda3/envs/p415env/share/psi4/basis/aug-cc-pvtz.gbs 
    atoms 2-3 entry H          line    40 file /home/kchung25/anaconda3/envs/p415env/share/psi4/basis/aug-cc-pvtz.gbs 
    atoms 4   entry NA         line   469 file /home/kchung25/anaconda3/envs/p415env/share/psi4/basis/aug-cc-pvtz.gbs 


         ---------------------------------------------------------
                                   SCF
               by Justin Turney, Rob Parrish, Andy Simmonett
                          and Daniel G. A. Smith
                              RHF Reference
                        6 Threads,  57220 MiB Core
         ---------------------------------------------------------

  ==> Geometry <==

    Molecular point group: c1
    Full point group: C2v

    Geometry (in Angstrom), charge = 1, multiplicity = 1:

       Center              X                  Y                   Z               Mass       
    ------------   -----------------  -----------------  -----------------  -----------------
      Gh(O)           0.000000000000     0.000000000000     0.000000000000    15.994914619570
      Gh(H)          -0.588073000000     0.760558000000     0.000000000000     1.007825032230
      Gh(H)          -0.588073000000    -0.760558000000     0.000000000000     1.007825032230
         NA           1.727152000000     0.000000000000     0.000000000000    22.989769282000

  Running in c1 symmetry.

  Rotational constants: A =     14.45828  B =      0.24334  C =      0.23931 [cm^-1]
  Rotational constants: A = 433448.38071  B =   7295.06904  C =   7174.32298 [MHz]
  Nuclear repulsion =    0.000000000000000

  Charge       = 1
  Multiplicity = 1
  Electrons    = 10
  Nalpha       = 5
  Nbeta        = 5

  ==> Algorithm <==

  SCF Algorithm Type is DF.
  DIIS enabled.
  MOM disabled.
  Fractional occupation disabled.
  Guess Type is SAD.
  Energy threshold   = 1.00e-08
  Density threshold  = 1.00e-08
  Integral threshold = 1.00e-12

  ==> Primary Basis <==

  Basis Set: AUG-CC-PVTZ
    Blend: AUG-CC-PVTZ
    Number of shells: 48
    Number of basis functions: 142
    Number of Cartesian functions: 164
    Spherical Harmonics?: true
    Max angular momentum: 3

   => Loading Basis Set <=

    Name: (AUG-CC-PVTZ AUX)
    Role: JKFIT
    Keyword: DF_BASIS_SCF
    atoms 1   entry O          line   286 file /home/kchung25/anaconda3/envs/p415env/share/psi4/basis/aug-cc-pvtz-jkfit.gbs 
    atoms 2-3 entry H          line    70 file /home/kchung25/anaconda3/envs/p415env/share/psi4/basis/aug-cc-pvtz-jkfit.gbs 
    atoms 4   entry NA         line   498 file /home/kchung25/anaconda3/envs/p415env/share/psi4/basis/def2-universal-jkfit.gbs 

  ==> Integral Setup <==

  ==> DiskDFJK: Density-Fitted J/K Matrices <==

    J tasked:                  Yes
    K tasked:                  Yes
    wK tasked:                  No
    OpenMP threads:              6
    Integrals threads:           6
    Memory [MiB]:            42915
    Algorithm:                Core
    Integral Cache:           LOAD
    Schwarz Cutoff:          1E-12
    Fitting Condition:       1E-10

   => Auxiliary Basis Set <=

  Basis Set: (AUG-CC-PVTZ AUX)
    Blend: AUG-CC-PVTZ-JKFIT + DEF2-UNIVERSAL-JKFIT
    Number of shells: 92
    Number of basis functions: 308
    Number of Cartesian functions: 378
    Spherical Harmonics?: true
    Max angular momentum: 4

  Minimum eigenvalue in the overlap matrix is 3.3848360396E-05.
  Reciprocal condition number of the overlap matrix is 3.7723932912E-06.
    Using symmetric orthogonalization.

  ==> Pre-Iterations <==

  SCF Guess: Superposition of Atomic Densities via on-the-fly atomic UHF (no occupation information).

   -------------------------
    Irrep   Nso     Nmo    
   -------------------------
     A        142     142 
   -------------------------
    Total     142     142
   -------------------------

  ==> Iterations <==

                           Total Energy        Delta E     RMS |[F,P]|

   @DF-RHF iter SAD:  -161.74560825640225   -1.61746e+02   0.00000e+00 
   @DF-RHF iter   1:  -161.67604705390599    6.95612e-02   4.35457e-05 DIIS
   @DF-RHF iter   2:  -161.67606511455082   -1.80606e-05   8.00414e-06 DIIS
   @DF-RHF iter   3:  -161.67606562244063   -5.07890e-07   3.82101e-07 DIIS
   @DF-RHF iter   4:  -161.67606562329007   -8.49440e-10   5.37437e-08 DIIS
   @DF-RHF iter   5:  -161.67606562330886   -1.87867e-11   3.57444e-09 DIIS
  Energy and wave function converged.


  ==> Post-Iterations <==

    Orbital Energies [Eh]
    ---------------------

    Doubly Occupied:                                                      

       1A    -40.760854     2A     -3.074095     3A     -1.797474  
       4A     -1.797385     5A     -1.797335  

    Virtual:                                                              

       6A     -0.181816     7A     -0.109437     8A     -0.109437  
       9A     -0.109431    10A     -0.069992    11A     -0.050748  
      12A     -0.050721    13A     -0.050438    14A     -0.050241  
      15A     -0.050233    16A     -0.049074    17A     -0.049045  
      18A     -0.048967    19A     -0.020970    20A     -0.007000  
      21A     -0.001084    22A     -0.000375    23A      0.000284  
      24A      0.013235    25A      0.039995    26A      0.040552  
      27A      0.041720    28A      0.058273    29A      0.058656  
      30A      0.076943    31A      0.092052    32A      0.103601  
      33A      0.104685    34A      0.105260    35A      0.110545  
      36A      0.116099    37A      0.129004    38A      0.136169  
      39A      0.148903    40A      0.175211    41A      0.197777  
      42A      0.199450    43A      0.214506    44A      0.223461  
      45A      0.247190    46A      0.257699    47A      0.258588  
      48A      0.286493    49A      0.302079    50A      0.350949  
      51A      0.368079    52A      0.372717    53A      0.385906  
      54A      0.387297    55A      0.435851    56A      0.453672  
      57A      0.487940    58A      0.494107    59A      0.494514  
      60A      0.507086    61A      0.517733    62A      0.547947  
      63A      0.564367    64A      0.673486    65A      0.679890  
      66A      0.716368    67A      0.743291    68A      0.764278  
      69A      0.774019    70A      0.785295    71A      0.838886  
      72A      0.875141    73A      0.884094    74A      0.894194  
      75A      0.942095    76A      0.972922    77A      0.997718  
      78A      1.040144    79A      1.056088    80A      1.082893  
      81A      1.091085    82A      1.207748    83A      1.353699  
      84A      1.440835    85A      1.553369    86A      1.597278  
      87A      1.655960    88A      1.667029    89A      1.764057  
      90A      1.872468    91A      2.046220    92A      2.183095  
      93A      2.189780    94A      2.220240    95A      2.268003  
      96A      2.335136    97A      2.344212    98A      2.482009  
      99A      2.589486   100A      2.596821   101A      2.927190  
     102A      2.975914   103A      3.067889   104A      3.070743  
     105A      3.120644   106A      3.339528   107A      3.448181  
     108A      4.149869   109A      4.305269   110A      4.355186  
     111A      4.399538   112A      4.489113   113A      4.546885  
     114A      4.711537   115A      4.812066   116A      4.826909  
     117A      4.993929   118A      5.319898   119A      5.413963  
     120A      5.423021   121A      5.654794   122A      5.877171  
     123A      6.225154   124A      6.452891   125A      6.819879  
     126A      7.365216   127A      7.564401   128A      7.783543  
     129A      7.921863   130A      7.980235   131A      8.496637  
     132A      8.565907   133A      9.494774   134A      9.666041  
     135A      9.717955   136A      9.951557   137A     10.949962  
     138A     11.438843   139A     11.881138   140A     13.276415  
     141A     13.555402   142A     64.681389  

    Final Occupation by Irrep:
              A 
    DOCC [     5 ]
    NA   [     5 ]
    NB   [     5 ]

  @DF-RHF Final Energy:  -161.67606562330886

   => Energetics <=

    Nuclear Repulsion Energy =              0.0000000000000000
    One-Electron Energy =                -224.8978439550028838
    Two-Electron Energy =                  63.2217783316940469
    Total Energy =                       -161.6760656233088298

Computation Completed


Properties will be evaluated at   0.000000,   0.000000,   0.000000 [a0]

Properties computed using the SCF density matrix


 Multipole Moments:

 ------------------------------------------------------------------------------------
     Multipole            Electronic (a.u.)      Nuclear  (a.u.)        Total (a.u.)
 ------------------------------------------------------------------------------------

 L = 1.  Multiply by 2.5417464519 to convert [e a0] to [Debye]
 Dipole X            :        -32.6386814           35.9022868            3.2636054
 Dipole Y            :          0.0000000            0.0000000            0.0000000
 Dipole Z            :          0.0000000            0.0000000            0.0000000
 Magnitude           :                                                    3.2636054

 ------------------------------------------------------------------------------------

*** tstop() called on moses-razer at Fri Dec 29 17:25:14 2023
Module time:
	user time   =       4.70 seconds =       0.08 minutes
	system time =       0.60 seconds =       0.01 minutes
	total time  =          1 seconds =       0.02 minutes
Total time:
	user time   =      14.89 seconds =       0.25 minutes
	system time =       1.61 seconds =       0.03 minutes
	total time  =          4 seconds =       0.07 minutes
  Constructing Basis Sets for SAPT...

   => Loading Basis Set <=

    Name: (AUG-CC-PVTZ AUX)
    Role: RIFIT
    Keyword: DF_BASIS_SAPT
    atoms 1   entry O          line   264 file /home/kchung25/anaconda3/envs/p415env/share/psi4/basis/aug-cc-pvtz-ri.gbs 
    atoms 2-3 entry H          line    30 file /home/kchung25/anaconda3/envs/p415env/share/psi4/basis/aug-cc-pvtz-ri.gbs 
    atoms 4   entry NA         line   610 file /home/kchung25/anaconda3/envs/p415env/share/psi4/basis/def2-qzvpp-ri.gbs 

   => Loading Basis Set <=

    Name: (AUG-CC-PVTZ AUX)
    Role: JKFIT
    Keyword: DF_BASIS_ELST
    atoms 1   entry O          line   286 file /home/kchung25/anaconda3/envs/p415env/share/psi4/basis/aug-cc-pvtz-jkfit.gbs 
    atoms 2-3 entry H          line    70 file /home/kchung25/anaconda3/envs/p415env/share/psi4/basis/aug-cc-pvtz-jkfit.gbs 
    atoms 4   entry NA         line   498 file /home/kchung25/anaconda3/envs/p415env/share/psi4/basis/def2-universal-jkfit.gbs 


  //>>>>>>>>>>>>>>>>>>>>>>>>>>>>>>>>>>>//
  //               SAPT2+              //
  //<<<<<<<<<<<<<<<<<<<<<<<<<<<<<<<<<<<//


*** tstart() called on moses-razer
*** at Fri Dec 29 17:25:14 2023

        SAPT2+  
    Ed Hohenstein
     6 June 2009

      Orbital Information
  --------------------------
    NSO        =       142
    NMO        =       142
    NRI        =       364
    NOCC A     =         5
    NOCC B     =         5
    FOCC A     =         0
    FOCC B     =         0
    NVIR A     =       137
    NVIR B     =       137

    Estimated memory usage: 65.9 MB

    Natural Orbital Cutoff:   1.000E-06
    Disp(T3) Truncation:            Yes
    CCD (vv|vv) Truncation:         Yes
    MBPT T2 Truncation:             Yes

    Monomer A: 55 virtual orbitals dropped
    Monomer B: 120 virtual orbitals dropped

    Elst10,r            =    -0.084855915884 [Eh]
    Exch10 (S^2)        =     0.100638625987 [Eh]
    Exch10              =     0.103209605216 [Eh]
    Ind20,r (A<-B)      =    -0.110607592511 [Eh]
    Ind20,r (B<-A)      =    -0.002066788011 [Eh]
    Ind20,r             =    -0.112674380521 [Eh]
    Exch-Ind20,r (A<-B) =     0.089445222700 [Eh]
    Exch-Ind20,r (B<-A) =     0.001689097001 [Eh]
    Exch-Ind20,r        =     0.091134319701 [Eh]
    Disp20              =    -0.004031040305 [Eh]
    Disp20 (NO)         =    -0.003535852695 [Eh]
    Exch-Disp20         =     0.001239783967 [Eh]
    Elst12,r            =     0.003082785196 [Eh]
    Exch11              =    -0.001151460811 [Eh]
    Exch12              =     0.004302589062 [Eh]
    Ind22               =    -0.009131197412 [Eh]
    Disp21              =     0.000110676707 [Eh]
    Disp22 (SDQ)        =    -0.000224323512 [Eh]

    (i =   1 of   5)          0 seconds
    (i =   2 of   5)          0 seconds
    (i =   3 of   5)          0 seconds
    (i =   4 of   5)          0 seconds
    (i =   5 of   5)          0 seconds

    Disp220 (T)         =    -0.000169953231 [Eh]

    (i =   1 of   5)          0 seconds
    (i =   2 of   5)          0 seconds
    (i =   3 of   5)          0 seconds
    (i =   4 of   5)          0 seconds
    (i =   5 of   5)          0 seconds

    Disp202 (T)         =    -0.000119687336 [Eh]

    Disp22 (T)          =    -0.000289640566 [Eh]

    Est. Disp220 (T)    =    -0.000193754769 [Eh]
    Est. Disp202 (T)    =    -0.000136449257 [Eh]

    Est. Disp22 (T)     =    -0.000330204026 [Eh]

    SAPT Results 
  --------------------------------------------------------------------------------------------------------
    Electrostatics                -81.77313069 [mEh]     -51.31341421 [kcal/mol]    -214.69532504 [kJ/mol]
      Elst10,r                    -84.85591588 [mEh]     -53.24789112 [kcal/mol]    -222.78917646 [kJ/mol]
      Elst12,r                      3.08278520 [mEh]       1.93447692 [kcal/mol]       8.09385142 [kJ/mol]

    Exchange                      106.36073347 [mEh]      66.74236789 [kcal/mol]     279.25006724 [kJ/mol]
      Exch10                      103.20960522 [mEh]      64.76500506 [kcal/mol]     270.97678116 [kJ/mol]
      Exch10(S^2)                 100.63862599 [mEh]      63.15169123 [kcal/mol]     264.22667613 [kJ/mol]
      Exch11(S^2)                  -1.15146081 [mEh]      -0.72255257 [kcal/mol]      -3.02315994 [kJ/mol]
      Exch12(S^2)                   4.30258906 [mEh]       2.69991540 [kcal/mol]      11.29644602 [kJ/mol]

    Induction                     -16.36384212 [mEh]     -10.26846596 [kcal/mol]     -42.96326158 [kJ/mol]
      Ind20,r                    -112.67438052 [mEh]     -70.70424123 [kcal/mol]    -295.82654530 [kJ/mol]
      Ind22                        -9.13119741 [mEh]      -5.72991288 [kcal/mol]     -23.97395550 [kJ/mol]
      Exch-Ind20,r                 91.13431970 [mEh]      57.18764900 [kcal/mol]     239.27312341 [kJ/mol]
      Exch-Ind22                    7.38557834 [mEh]       4.63452038 [kcal/mol]      19.39083326 [kJ/mol]
      delta HF,r (2)                6.92183777 [mEh]       4.34351878 [kcal/mol]      18.17328256 [kJ/mol]

    Dispersion                     -3.23510717 [mEh]      -2.03006040 [kcal/mol]      -8.49377270 [kJ/mol]
      Disp20                       -4.03104031 [mEh]      -2.52951598 [kcal/mol]     -10.58349486 [kJ/mol]
      Disp21                        0.11067671 [mEh]       0.06945068 [kcal/mol]       0.29058165 [kJ/mol]
      Disp22 (SDQ)                 -0.22432351 [mEh]      -0.14076513 [kcal/mol]      -0.58896130 [kJ/mol]
      Disp22 (T)                   -0.28964057 [mEh]      -0.18175220 [kcal/mol]      -0.76045120 [kJ/mol]
      Est. Disp22 (T)              -0.33020403 [mEh]      -0.20720615 [kcal/mol]      -0.86695055 [kJ/mol]
      Exch-Disp20                   1.23978397 [mEh]       0.77797618 [kcal/mol]       3.25505236 [kJ/mol]

  Total HF                          3.73546628 [mEh]       2.34404048 [kcal/mol]       9.80746537 [kJ/mol]
  Total SAPT0                       0.94420994 [mEh]       0.59250068 [kcal/mol]       2.47902286 [kJ/mol]
  Total SAPT2                       5.43250432 [mEh]       3.40894793 [kcal/mol]      14.26303812 [kJ/mol]
  Total SAPT2+                      4.98865349 [mEh]       3.13042732 [kcal/mol]      13.09770792 [kJ/mol]

  Special recipe for scaled SAPT0 (see Manual):
    Electrostatics sSAPT0         -84.85591588 [mEh]     -53.24789112 [kcal/mol]    -222.78917646 [kJ/mol]
    Exchange sSAPT0               103.20960522 [mEh]      64.76500506 [kcal/mol]     270.97678116 [kJ/mol]
    Induction sSAPT0               -7.45374407 [mEh]      -4.67729502 [kcal/mol]     -19.56980236 [kJ/mol]
    Dispersion sSAPT0              -2.69379134 [mEh]      -1.69037959 [kcal/mol]      -7.07254819 [kJ/mol]
  Total sSAPT0                      8.20615392 [mEh]       5.14943933 [kcal/mol]      21.54525415 [kJ/mol]
  --------------------------------------------------------------------------------------------------------

*** tstop() called on moses-razer at Fri Dec 29 17:25:19 2023
Module time:
	user time   =      21.47 seconds =       0.36 minutes
	system time =       1.80 seconds =       0.03 minutes
	total time  =          5 seconds =       0.08 minutes
Total time:
	user time   =      36.89 seconds =       0.61 minutes
	system time =       3.42 seconds =       0.06 minutes
	total time  =          9 seconds =       0.15 minutes

    Psi4 stopped on: Friday, 29 December 2023 05:25PM
    Psi4 wall time for execution: 0:00:09.16

*** Psi4 exiting successfully. Buy a developer a beer!
