
    -----------------------------------------------------------------------
          Psi4: An Open-Source Ab Initio Electronic Structure Package
                               Psi4 1.9 release

                         Git: Rev {} zzzzzzz 


    D. G. A. Smith, L. A. Burns, A. C. Simmonett, R. M. Parrish,
    M. C. Schieber, R. Galvelis, P. Kraus, H. Kruse, R. Di Remigio,
    A. Alenaizan, A. M. James, S. Lehtola, J. P. Misiewicz, M. Scheurer,
    R. A. Shaw, J. B. Schriber, Y. Xie, Z. L. Glick, D. A. Sirianni,
    J. S. O'Brien, J. M. Waldrop, A. Kumar, E. G. Hohenstein,
    B. P. Pritchard, B. R. Brooks, H. F. Schaefer III, A. Yu. Sokolov,
    K. Patkowski, A. E. DePrince III, U. Bozkaya, R. A. King,
    F. A. Evangelista, J. M. Turney, T. D. Crawford, C. D. Sherrill,
    J. Chem. Phys. 152(18) 184108 (2020). https://doi.org/10.1063/5.0006002

                            Additional Code Authors
    E. T. Seidl, C. L. Janssen, E. F. Valeev, M. L. Leininger,
    J. F. Gonthier, R. M. Richard, H. R. McAlexander, M. Saitow, X. Wang,
    P. Verma, M. H. Lechner, A. Jiang, S. Behnle, A. G. Heide,
    M. F. Herbst, and D. L. Poole

             Previous Authors, Complete List of Code Contributors,
                       and Citations for Specific Modules
    https://github.com/psi4/psi4/blob/master/codemeta.json
    https://github.com/psi4/psi4/graphs/contributors
    http://psicode.org/psi4manual/master/introduction.html#citing-psifour

    -----------------------------------------------------------------------


    Psi4 started on: Friday, 29 December 2023 05:27PM

    Process ID: 157987
    Host:       moses-razer
    PSIDATADIR: /home/kchung25/anaconda3/envs/psi4_19/share/psi4
    Memory:     500.0 MiB
    Threads:    6
    
  ==> Input File <==

--------------------------------------------------------------------------
MEMORY 60 GB

molecule dimer {
0 1
O      0.000000     0.000000     0.000000
H     -0.591931     0.756733     0.000000
H     -0.591931    -0.756733     0.000000
--
1 1
K      2.342911     0.000000     0.000000

units ang
no_reorient
no_com
symmetry c1
}

set {
basis        aug-cc-pVTZ
scf_type     df
}

energy("sapt2+")
--------------------------------------------------------------------------

  Memory set to  55.879 GiB by Python driver.

Scratch directory: /scratch/
   => Loading Basis Set <=

    Name: AUG-CC-PVTZ
    Role: ORBITAL
    Keyword: BASIS
    atoms 1   entry O          line   331 file /home/kchung25/anaconda3/envs/p415env/share/psi4/basis/aug-cc-pvtz.gbs 
    atoms 2-3 entry H          line    40 file /home/kchung25/anaconda3/envs/p415env/share/psi4/basis/aug-cc-pvtz.gbs 
    atoms 4   entry K          line  1152 file /home/kchung25/anaconda3/envs/p415env/share/psi4/basis/aug-cc-pvtz.gbs 

   => Loading Basis Set <=

    Name: AUG-CC-PVTZ
    Role: ORBITAL
    Keyword: BASIS
    atoms 1   entry O          line   331 file /home/kchung25/anaconda3/envs/p415env/share/psi4/basis/aug-cc-pvtz.gbs 
    atoms 2-3 entry H          line    40 file /home/kchung25/anaconda3/envs/p415env/share/psi4/basis/aug-cc-pvtz.gbs 
    atoms 4   entry K          line  1152 file /home/kchung25/anaconda3/envs/p415env/share/psi4/basis/aug-cc-pvtz.gbs 


  //>>>>>>>>>>>>>>>>>>>>>>>>>>>>>>>>>>>//
  //              Dimer HF             //
  //<<<<<<<<<<<<<<<<<<<<<<<<<<<<<<<<<<<//

   => Libint2 <=

    Primary   basis highest AM E, G, H:  5, 4, 3
    Auxiliary basis highest AM E, G, H:  6, 5, 4
    Onebody   basis highest AM E, G, H:  6, 5, 4
    Solid Harmonics ordering:            gaussian

*** tstart() called on moses-razer
*** at Fri Dec 29 17:27:55 2023

   => Loading Basis Set <=

    Name: AUG-CC-PVTZ
    Role: ORBITAL
    Keyword: BASIS
    atoms 1   entry O          line   331 file /home/kchung25/anaconda3/envs/p415env/share/psi4/basis/aug-cc-pvtz.gbs 
    atoms 2-3 entry H          line    40 file /home/kchung25/anaconda3/envs/p415env/share/psi4/basis/aug-cc-pvtz.gbs 
    atoms 4   entry K          line  1152 file /home/kchung25/anaconda3/envs/p415env/share/psi4/basis/aug-cc-pvtz.gbs 


         ---------------------------------------------------------
                                   SCF
               by Justin Turney, Rob Parrish, Andy Simmonett
                          and Daniel G. A. Smith
                              RHF Reference
                        6 Threads,  57220 MiB Core
         ---------------------------------------------------------

  ==> Geometry <==

    Molecular point group: c1
    Full point group: C2v

    Geometry (in Angstrom), charge = 1, multiplicity = 1:

       Center              X                  Y                   Z               Mass       
    ------------   -----------------  -----------------  -----------------  -----------------
         O            0.000000000000     0.000000000000     0.000000000000    15.994914619570
         H           -0.591931000000     0.756733000000     0.000000000000     1.007825032230
         H           -0.591931000000    -0.756733000000     0.000000000000     1.007825032230
         K            2.342911000000     0.000000000000     0.000000000000    38.963706486400

  Running in c1 symmetry.

  Rotational constants: A =     14.60481  B =      0.07856  C =      0.07814 [cm^-1]
  Rotational constants: A = 437841.29126  B =   2355.12329  C =   2342.52300 [MHz]
  Nuclear repulsion =   50.128365044380587

  Charge       = 1
  Multiplicity = 1
  Electrons    = 28
  Nalpha       = 14
  Nbeta        = 14

  ==> Algorithm <==

  SCF Algorithm Type is DF.
  DIIS enabled.
  MOM disabled.
  Fractional occupation disabled.
  Guess Type is SAD.
  Energy threshold   = 1.00e-08
  Density threshold  = 1.00e-08
  Integral threshold = 1.00e-12

  ==> Primary Basis <==

  Basis Set: AUG-CC-PVTZ
    Blend: AUG-CC-PVTZ
    Number of shells: 51
    Number of basis functions: 151
    Number of Cartesian functions: 174
    Spherical Harmonics?: true
    Max angular momentum: 3

   => Loading Basis Set <=

    Name: (AUG-CC-PVTZ AUX)
    Role: JKFIT
    Keyword: DF_BASIS_SCF
    atoms 1   entry O          line   286 file /home/kchung25/anaconda3/envs/p415env/share/psi4/basis/aug-cc-pvtz-jkfit.gbs 
    atoms 2-3 entry H          line    70 file /home/kchung25/anaconda3/envs/p415env/share/psi4/basis/aug-cc-pvtz-jkfit.gbs 
    atoms 4   entry K          line  1152 file /home/kchung25/anaconda3/envs/p415env/share/psi4/basis/def2-universal-jkfit.gbs 

  ==> Integral Setup <==

  ==> DiskDFJK: Density-Fitted J/K Matrices <==

    J tasked:                  Yes
    K tasked:                  Yes
    wK tasked:                  No
    OpenMP threads:              6
    Integrals threads:           6
    Memory [MiB]:            42915
    Algorithm:                Core
    Integral Cache:           SAVE
    Schwarz Cutoff:          1E-12
    Fitting Condition:       1E-10

   => Auxiliary Basis Set <=

  Basis Set: (AUG-CC-PVTZ AUX)
    Blend: AUG-CC-PVTZ-JKFIT + DEF2-UNIVERSAL-JKFIT
    Number of shells: 102
    Number of basis functions: 356
    Number of Cartesian functions: 444
    Spherical Harmonics?: true
    Max angular momentum: 4

  Minimum eigenvalue in the overlap matrix is 1.8032644052E-04.
  Reciprocal condition number of the overlap matrix is 2.0236559279E-05.
    Using symmetric orthogonalization.

  ==> Pre-Iterations <==

  SCF Guess: Superposition of Atomic Densities via on-the-fly atomic UHF (no occupation information).

   -------------------------
    Irrep   Nso     Nmo    
   -------------------------
     A        151     151 
   -------------------------
    Total     151     151
   -------------------------

  ==> Iterations <==

                           Total Energy        Delta E     RMS |[F,P]|

   @DF-RHF iter SAD:  -674.59881434666397   -6.74599e+02   0.00000e+00 
   @DF-RHF iter   1:  -675.00899868309602   -4.10184e-01   3.26225e-03 ADIIS/DIIS
   @DF-RHF iter   2:  -675.06662832229074   -5.76296e-02   2.12438e-03 ADIIS/DIIS
   @DF-RHF iter   3:  -675.09811821063431   -3.14899e-02   1.46653e-04 ADIIS/DIIS
   @DF-RHF iter   4:  -675.09848826830978   -3.70058e-04   3.32944e-05 DIIS
   @DF-RHF iter   5:  -675.09850926685192   -2.09985e-05   7.36968e-06 DIIS
   @DF-RHF iter   6:  -675.09851076151858   -1.49467e-06   1.51588e-06 DIIS
   @DF-RHF iter   7:  -675.09851082714658   -6.56280e-08   3.72932e-07 DIIS
   @DF-RHF iter   8:  -675.09851083084720   -3.70062e-09   7.76549e-08 DIIS
   @DF-RHF iter   9:  -675.09851083099056   -1.43359e-10   9.75620e-09 DIIS
  Energy and wave function converged.


  ==> Post-Iterations <==

    Orbital Energies [Eh]
    ---------------------

    Doubly Occupied:                                                      

       1A   -133.694328     2A    -20.764113     3A    -14.651979  
       4A    -11.681899     5A    -11.681852     6A    -11.681746  
       7A     -1.914040     8A     -1.557983     9A     -1.125006  
      10A     -1.122836    11A     -1.122008    12A     -0.917041  
      13A     -0.799735    14A     -0.716932  

    Virtual:                                                              

      15A     -0.124449    16A     -0.087440    17A     -0.085984  
      18A     -0.082700    19A     -0.058569    20A     -0.055406  
      21A     -0.052841    22A     -0.052660    23A     -0.052500  
      24A     -0.052076    25A     -0.042439    26A     -0.041801  
      27A     -0.041302    28A     -0.028790    29A     -0.027772  
      30A     -0.027762    31A     -0.027738    32A     -0.025813  
      33A     -0.014621    34A     -0.013455    35A     -0.011703  
      36A     -0.009840    37A     -0.007038    38A     -0.003904  
      39A      0.018026    40A      0.018156    41A      0.019601  
      42A      0.023151    43A      0.023173    44A      0.031026  
      45A      0.032720    46A      0.035216    47A      0.035745  
      48A      0.053101    49A      0.068636    50A      0.077165  
      51A      0.083893    52A      0.107138    53A      0.114463  
      54A      0.115363    55A      0.115660    56A      0.122178  
      57A      0.138905    58A      0.173537    59A      0.184505  
      60A      0.228849    61A      0.230621    62A      0.236300  
      63A      0.247468    64A      0.256449    65A      0.257199  
      66A      0.257398    67A      0.257589    68A      0.264384  
      69A      0.264912    70A      0.277225    71A      0.281350  
      72A      0.281502    73A      0.305246    74A      0.335749  
      75A      0.337163    76A      0.346270    77A      0.403760  
      78A      0.532009    79A      0.541736    80A      0.588163  
      81A      0.636420    82A      0.674515    83A      0.737437  
      84A      0.741136    85A      0.812354    86A      0.831273  
      87A      0.873049    88A      0.898874    89A      0.900444  
      90A      0.905747    91A      0.913687    92A      0.918410  
      93A      0.970057    94A      1.008089    95A      1.015692  
      96A      1.053814    97A      1.158986    98A      1.209077  
      99A      1.376763   100A      1.443994   101A      1.462625  
     102A      1.671544   103A      1.673312   104A      1.810277  
     105A      1.930154   106A      2.090678   107A      2.108660  
     108A      2.146083   109A      2.193686   110A      2.267267  
     111A      2.315861   112A      2.425585   113A      2.512722  
     114A      2.562834   115A      2.601282   116A      2.621698  
     117A      2.696130   118A      3.541266   119A      3.574946  
     120A      3.839660   121A      3.941104   122A      4.017183  
     123A      4.077279   124A      4.100471   125A      4.229647  
     126A      4.253664   127A      4.257320   128A      4.336586  
     129A      4.579490   130A      4.669544   131A      4.955075  
     132A      4.967201   133A      5.043569   134A      5.152002  
     135A      5.331884   136A      5.512321   137A      6.034509  
     138A      6.362015   139A      6.506396   140A      6.717901  
     141A      6.945670   142A      7.106066   143A      7.113644  
     144A      7.116376   145A      7.171641   146A      7.194188  
     147A      7.350641   148A      7.708314   149A      7.724355  
     150A      8.625583   151A     15.622941  

    Final Occupation by Irrep:
              A 
    DOCC [    14 ]
    NA   [    14 ]
    NB   [    14 ]

  @DF-RHF Final Energy:  -675.09851083099056

   => Energetics <=

    Nuclear Repulsion Energy =             50.1283650443805868
    One-Electron Energy =               -1023.5907527688993923
    Two-Electron Energy =                 298.3638768935282997
    Total Energy =                       -675.0985108309904490

Computation Completed


Properties will be evaluated at   0.000000,   0.000000,   0.000000 [a0]

Properties computed using the SCF density matrix


 Multipole Moments:

 ------------------------------------------------------------------------------------
     Multipole            Electronic (a.u.)      Nuclear  (a.u.)        Total (a.u.)
 ------------------------------------------------------------------------------------

 L = 1.  Multiply by 2.5417464519 to convert [e a0] to [Debye]
 Dipole X            :        -78.6566591           81.8845674            3.2279083
 Dipole Y            :         -0.0000000            0.0000000           -0.0000000
 Dipole Z            :          0.0000000            0.0000000            0.0000000
 Magnitude           :                                                    3.2279083

 ------------------------------------------------------------------------------------

*** tstop() called on moses-razer at Fri Dec 29 17:28:02 2023
Module time:
	user time   =      11.39 seconds =       0.19 minutes
	system time =       2.38 seconds =       0.04 minutes
	total time  =          7 seconds =       0.12 minutes
Total time:
	user time   =      11.39 seconds =       0.19 minutes
	system time =       2.38 seconds =       0.04 minutes
	total time  =          7 seconds =       0.12 minutes

  //>>>>>>>>>>>>>>>>>>>>>>>>>>>>>>>>>>>//
  //            Monomer A HF           //
  //<<<<<<<<<<<<<<<<<<<<<<<<<<<<<<<<<<<//

   => Libint2 <=

    Primary   basis highest AM E, G, H:  5, 4, 3
    Auxiliary basis highest AM E, G, H:  6, 5, 4
    Onebody   basis highest AM E, G, H:  6, 5, 4
    Solid Harmonics ordering:            gaussian

*** tstart() called on moses-razer
*** at Fri Dec 29 17:28:02 2023

   => Loading Basis Set <=

    Name: AUG-CC-PVTZ
    Role: ORBITAL
    Keyword: BASIS
    atoms 1   entry O          line   331 file /home/kchung25/anaconda3/envs/p415env/share/psi4/basis/aug-cc-pvtz.gbs 
    atoms 2-3 entry H          line    40 file /home/kchung25/anaconda3/envs/p415env/share/psi4/basis/aug-cc-pvtz.gbs 
    atoms 4   entry K          line  1152 file /home/kchung25/anaconda3/envs/p415env/share/psi4/basis/aug-cc-pvtz.gbs 


         ---------------------------------------------------------
                                   SCF
               by Justin Turney, Rob Parrish, Andy Simmonett
                          and Daniel G. A. Smith
                              RHF Reference
                        6 Threads,  57220 MiB Core
         ---------------------------------------------------------

  ==> Geometry <==

    Molecular point group: c1
    Full point group: C2v

    Geometry (in Angstrom), charge = 0, multiplicity = 1:

       Center              X                  Y                   Z               Mass       
    ------------   -----------------  -----------------  -----------------  -----------------
         O            0.000000000000     0.000000000000     0.000000000000    15.994914619570
         H           -0.591931000000     0.756733000000     0.000000000000     1.007825032230
         H           -0.591931000000    -0.756733000000     0.000000000000     1.007825032230
      Gh(K)           2.342911000000     0.000000000000     0.000000000000    38.963706486400

  Running in c1 symmetry.

  Rotational constants: A =     14.60481  B =      0.07856  C =      0.07814 [cm^-1]
  Rotational constants: A = 437841.29126  B =   2355.12329  C =   2342.52300 [MHz]
  Nuclear repulsion =    9.162445214196101

  Charge       = 0
  Multiplicity = 1
  Electrons    = 10
  Nalpha       = 5
  Nbeta        = 5

  ==> Algorithm <==

  SCF Algorithm Type is DF.
  DIIS enabled.
  MOM disabled.
  Fractional occupation disabled.
  Guess Type is SAD.
  Energy threshold   = 1.00e-08
  Density threshold  = 1.00e-08
  Integral threshold = 1.00e-12

  ==> Primary Basis <==

  Basis Set: AUG-CC-PVTZ
    Blend: AUG-CC-PVTZ
    Number of shells: 51
    Number of basis functions: 151
    Number of Cartesian functions: 174
    Spherical Harmonics?: true
    Max angular momentum: 3

   => Loading Basis Set <=

    Name: (AUG-CC-PVTZ AUX)
    Role: JKFIT
    Keyword: DF_BASIS_SCF
    atoms 1   entry O          line   286 file /home/kchung25/anaconda3/envs/p415env/share/psi4/basis/aug-cc-pvtz-jkfit.gbs 
    atoms 2-3 entry H          line    70 file /home/kchung25/anaconda3/envs/p415env/share/psi4/basis/aug-cc-pvtz-jkfit.gbs 
    atoms 4   entry K          line  1152 file /home/kchung25/anaconda3/envs/p415env/share/psi4/basis/def2-universal-jkfit.gbs 

  ==> Integral Setup <==

  ==> DiskDFJK: Density-Fitted J/K Matrices <==

    J tasked:                  Yes
    K tasked:                  Yes
    wK tasked:                  No
    OpenMP threads:              6
    Integrals threads:           6
    Memory [MiB]:            42915
    Algorithm:                Core
    Integral Cache:           LOAD
    Schwarz Cutoff:          1E-12
    Fitting Condition:       1E-10

   => Auxiliary Basis Set <=

  Basis Set: (AUG-CC-PVTZ AUX)
    Blend: AUG-CC-PVTZ-JKFIT + DEF2-UNIVERSAL-JKFIT
    Number of shells: 102
    Number of basis functions: 356
    Number of Cartesian functions: 444
    Spherical Harmonics?: true
    Max angular momentum: 4

  Minimum eigenvalue in the overlap matrix is 1.8032644052E-04.
  Reciprocal condition number of the overlap matrix is 2.0236559279E-05.
    Using symmetric orthogonalization.

  ==> Pre-Iterations <==

  SCF Guess: Superposition of Atomic Densities via on-the-fly atomic UHF (no occupation information).

   -------------------------
    Irrep   Nso     Nmo    
   -------------------------
     A        151     151 
   -------------------------
    Total     151     151
   -------------------------

  ==> Iterations <==

                           Total Energy        Delta E     RMS |[F,P]|

   @DF-RHF iter SAD:   -75.47462065811268   -7.54746e+01   0.00000e+00 
   @DF-RHF iter   1:   -75.97587944775852   -5.01259e-01   3.10196e-03 ADIIS/DIIS
   @DF-RHF iter   2:   -76.02835065518363   -5.24712e-02   2.11847e-03 ADIIS/DIIS
   @DF-RHF iter   3:   -76.05991857232604   -3.15679e-02   1.44974e-04 ADIIS/DIIS
   @DF-RHF iter   4:   -76.06031214535346   -3.93573e-04   3.44163e-05 DIIS
   @DF-RHF iter   5:   -76.06033665392982   -2.45086e-05   7.86217e-06 DIIS
   @DF-RHF iter   6:   -76.06033867154585   -2.01762e-06   1.71914e-06 DIIS
   @DF-RHF iter   7:   -76.06033877755395   -1.06008e-07   3.08525e-07 DIIS
   @DF-RHF iter   8:   -76.06033878054114   -2.98719e-09   5.13565e-08 DIIS
   @DF-RHF iter   9:   -76.06033878060688   -6.57394e-11   1.26962e-08 DIIS
   @DF-RHF iter  10:   -76.06033878061062   -3.73745e-12   1.86381e-09 DIIS
  Energy and wave function converged.


  ==> Post-Iterations <==

    Orbital Energies [Eh]
    ---------------------

    Doubly Occupied:                                                      

       1A    -20.568042     2A     -1.352196     3A     -0.714785  
       4A     -0.585399     5A     -0.510228  

    Virtual:                                                              

       6A      0.006936     7A      0.009914     8A      0.010508  
       9A      0.011092    10A      0.018471    11A      0.018580  
      12A      0.019198    13A      0.019641    14A      0.019650  
      15A      0.034013    16A      0.037249    17A      0.039165  
      18A      0.041796    19A      0.062099    20A      0.063107  
      21A      0.066412    22A      0.067717    23A      0.067755  
      24A      0.078503    25A      0.079458    26A      0.105344  
      27A      0.109731    28A      0.111688    29A      0.118917  
      30A      0.142345    31A      0.143570    32A      0.144342  
      33A      0.147537    34A      0.147580    35A      0.166583  
      36A      0.167748    37A      0.203088    38A      0.206382  
      39A      0.223696    40A      0.231033    41A      0.237422  
      42A      0.237534    43A      0.261905    44A      0.268854  
      45A      0.270034    46A      0.272375    47A      0.288950  
      48A      0.291706    49A      0.322577    50A      0.360560  
      51A      0.388682    52A      0.408137    53A      0.409013  
      54A      0.426003    55A      0.461395    56A      0.471311  
      57A      0.472121    58A      0.474794    59A      0.483829  
      60A      0.484873    61A      0.489056    62A      0.517543  
      63A      0.528276    64A      0.649445    65A      0.658335  
      66A      0.708489    67A      0.760127    68A      0.781855  
      69A      0.834431    70A      0.889514    71A      0.919839  
      72A      0.967761    73A      0.971519    74A      1.000862  
      75A      1.036362    76A      1.052750    77A      1.062634  
      78A      1.079236    79A      1.083811    80A      1.127156  
      81A      1.134973    82A      1.182155    83A      1.212999  
      84A      1.292791    85A      1.533614    86A      1.563250  
      87A      1.583533    88A      1.839063    89A      1.840382  
      90A      1.874406    91A      1.899017    92A      1.987516  
      93A      1.991333    94A      2.016718    95A      2.021374  
      96A      2.152190    97A      2.202743    98A      2.278404  
      99A      2.322382   100A      2.330048   101A      2.388462  
     102A      2.402557   103A      2.496406   104A      2.533492  
     105A      2.616846   106A      2.625031   107A      2.787868  
     108A      2.794369   109A      2.804768   110A      2.901105  
     111A      2.972890   112A      3.265967   113A      3.750941  
     114A      3.782031   115A      4.027738   116A      4.141857  
     117A      4.229237   118A      4.276419   119A      4.297571  
     120A      4.421270   121A      4.453721   122A      4.465527  
     123A      4.530293   124A      4.787402   125A      4.860521  
     126A      5.153379   127A      5.157391   128A      5.258797  
     129A      5.355040   130A      5.527551   131A      5.742496  
     132A      6.245016   133A      6.571932   134A      6.722678  
     135A      6.938865   136A      7.154793   137A      7.312702  
     138A      7.323088   139A      7.327068   140A      7.373096  
     141A      7.409932   142A      7.556703   143A      7.914545  
     144A      7.934729   145A      8.827528   146A     10.317994  
     147A     15.820795   148A     30.263237   149A     30.352456  
     150A     30.967926   151A    197.850436  

    Final Occupation by Irrep:
              A 
    DOCC [     5 ]
    NA   [     5 ]
    NB   [     5 ]

  @DF-RHF Final Energy:   -76.06033878061062

   => Energetics <=

    Nuclear Repulsion Energy =              9.1624452141961008
    One-Electron Energy =                -122.9842672000903008
    Two-Electron Energy =                  37.7614832052835894
    Total Energy =                        -76.0603387806106070

Computation Completed


Properties will be evaluated at   0.000000,   0.000000,   0.000000 [a0]

Properties computed using the SCF density matrix


 Multipole Moments:

 ------------------------------------------------------------------------------------
     Multipole            Electronic (a.u.)      Nuclear  (a.u.)        Total (a.u.)
 ------------------------------------------------------------------------------------

 L = 1.  Multiply by 2.5417464519 to convert [e a0] to [Debye]
 Dipole X            :          1.4523384           -2.2371750           -0.7848365
 Dipole Y            :         -0.0000000            0.0000000           -0.0000000
 Dipole Z            :         -0.0000000            0.0000000           -0.0000000
 Magnitude           :                                                    0.7848365

 ------------------------------------------------------------------------------------

*** tstop() called on moses-razer at Fri Dec 29 17:28:05 2023
Module time:
	user time   =       6.19 seconds =       0.10 minutes
	system time =       0.94 seconds =       0.02 minutes
	total time  =          3 seconds =       0.05 minutes
Total time:
	user time   =      17.61 seconds =       0.29 minutes
	system time =       3.32 seconds =       0.06 minutes
	total time  =         10 seconds =       0.17 minutes

  //>>>>>>>>>>>>>>>>>>>>>>>>>>>>>>>>>>>//
  //            Monomer B HF           //
  //<<<<<<<<<<<<<<<<<<<<<<<<<<<<<<<<<<<//

   => Libint2 <=

    Primary   basis highest AM E, G, H:  5, 4, 3
    Auxiliary basis highest AM E, G, H:  6, 5, 4
    Onebody   basis highest AM E, G, H:  6, 5, 4
    Solid Harmonics ordering:            gaussian

*** tstart() called on moses-razer
*** at Fri Dec 29 17:28:06 2023

   => Loading Basis Set <=

    Name: AUG-CC-PVTZ
    Role: ORBITAL
    Keyword: BASIS
    atoms 1   entry O          line   331 file /home/kchung25/anaconda3/envs/p415env/share/psi4/basis/aug-cc-pvtz.gbs 
    atoms 2-3 entry H          line    40 file /home/kchung25/anaconda3/envs/p415env/share/psi4/basis/aug-cc-pvtz.gbs 
    atoms 4   entry K          line  1152 file /home/kchung25/anaconda3/envs/p415env/share/psi4/basis/aug-cc-pvtz.gbs 


         ---------------------------------------------------------
                                   SCF
               by Justin Turney, Rob Parrish, Andy Simmonett
                          and Daniel G. A. Smith
                              RHF Reference
                        6 Threads,  57220 MiB Core
         ---------------------------------------------------------

  ==> Geometry <==

    Molecular point group: c1
    Full point group: C2v

    Geometry (in Angstrom), charge = 1, multiplicity = 1:

       Center              X                  Y                   Z               Mass       
    ------------   -----------------  -----------------  -----------------  -----------------
      Gh(O)           0.000000000000     0.000000000000     0.000000000000    15.994914619570
      Gh(H)          -0.591931000000     0.756733000000     0.000000000000     1.007825032230
      Gh(H)          -0.591931000000    -0.756733000000     0.000000000000     1.007825032230
         K            2.342911000000     0.000000000000     0.000000000000    38.963706486400

  Running in c1 symmetry.

  Rotational constants: A =     14.60481  B =      0.07856  C =      0.07814 [cm^-1]
  Rotational constants: A = 437841.29126  B =   2355.12329  C =   2342.52300 [MHz]
  Nuclear repulsion =    0.000000000000000

  Charge       = 1
  Multiplicity = 1
  Electrons    = 18
  Nalpha       = 9
  Nbeta        = 9

  ==> Algorithm <==

  SCF Algorithm Type is DF.
  DIIS enabled.
  MOM disabled.
  Fractional occupation disabled.
  Guess Type is SAD.
  Energy threshold   = 1.00e-08
  Density threshold  = 1.00e-08
  Integral threshold = 1.00e-12

  ==> Primary Basis <==

  Basis Set: AUG-CC-PVTZ
    Blend: AUG-CC-PVTZ
    Number of shells: 51
    Number of basis functions: 151
    Number of Cartesian functions: 174
    Spherical Harmonics?: true
    Max angular momentum: 3

   => Loading Basis Set <=

    Name: (AUG-CC-PVTZ AUX)
    Role: JKFIT
    Keyword: DF_BASIS_SCF
    atoms 1   entry O          line   286 file /home/kchung25/anaconda3/envs/p415env/share/psi4/basis/aug-cc-pvtz-jkfit.gbs 
    atoms 2-3 entry H          line    70 file /home/kchung25/anaconda3/envs/p415env/share/psi4/basis/aug-cc-pvtz-jkfit.gbs 
    atoms 4   entry K          line  1152 file /home/kchung25/anaconda3/envs/p415env/share/psi4/basis/def2-universal-jkfit.gbs 

  ==> Integral Setup <==

  ==> DiskDFJK: Density-Fitted J/K Matrices <==

    J tasked:                  Yes
    K tasked:                  Yes
    wK tasked:                  No
    OpenMP threads:              6
    Integrals threads:           6
    Memory [MiB]:            42915
    Algorithm:                Core
    Integral Cache:           LOAD
    Schwarz Cutoff:          1E-12
    Fitting Condition:       1E-10

   => Auxiliary Basis Set <=

  Basis Set: (AUG-CC-PVTZ AUX)
    Blend: AUG-CC-PVTZ-JKFIT + DEF2-UNIVERSAL-JKFIT
    Number of shells: 102
    Number of basis functions: 356
    Number of Cartesian functions: 444
    Spherical Harmonics?: true
    Max angular momentum: 4

  Minimum eigenvalue in the overlap matrix is 1.8032644052E-04.
  Reciprocal condition number of the overlap matrix is 2.0236559279E-05.
    Using symmetric orthogonalization.

  ==> Pre-Iterations <==

  SCF Guess: Superposition of Atomic Densities via on-the-fly atomic UHF (no occupation information).

   -------------------------
    Irrep   Nso     Nmo    
   -------------------------
     A        151     151 
   -------------------------
    Total     151     151
   -------------------------

  ==> Iterations <==

                           Total Energy        Delta E     RMS |[F,P]|

   @DF-RHF iter SAD:  -599.05185032476368   -5.99052e+02   0.00000e+00 
   @DF-RHF iter   1:  -599.01748125796223    3.43691e-02   4.73877e-05 DIIS
   @DF-RHF iter   2:  -599.01750844819310   -2.71902e-05   6.76487e-06 DIIS
   @DF-RHF iter   3:  -599.01750920613244   -7.57939e-07   5.12122e-07 DIIS
   @DF-RHF iter   4:  -599.01750921000087   -3.86842e-09   4.70573e-08 DIIS
   @DF-RHF iter   5:  -599.01750921003418   -3.33102e-11   8.71732e-09 DIIS
  Energy and wave function converged.


  ==> Post-Iterations <==

    Orbital Energies [Eh]
    ---------------------

    Doubly Occupied:                                                      

       1A   -133.753641     2A    -14.709106     3A    -11.739181  
       4A    -11.739175     5A    -11.739175     6A     -1.964296  
       7A     -1.170969     8A     -1.170897     9A     -1.170886  

    Virtual:                                                              

      10A     -0.146971    11A     -0.095563    12A     -0.095552  
      13A     -0.095551    14A     -0.060634    15A     -0.057867  
      16A     -0.057819    17A     -0.057781    18A     -0.057721  
      19A     -0.057721    20A     -0.045541    21A     -0.045535  
      22A     -0.045535    23A     -0.031273    24A     -0.031245  
      25A     -0.031227    26A     -0.031207    27A     -0.031207  
      28A     -0.018070    29A     -0.016779    30A     -0.016230  
      31A     -0.015548    32A     -0.007115    33A     -0.003745  
      34A      0.013219    35A      0.014212    36A      0.014971  
      37A      0.016397    38A      0.016409    39A      0.016897  
      40A      0.016920    41A      0.018361    42A      0.019700  
      43A      0.019724    44A      0.055731    45A      0.056497  
      46A      0.088088    47A      0.095443    48A      0.095562  
      49A      0.099073    50A      0.117070    51A      0.117428  
      52A      0.122540    53A      0.182413    54A      0.193611  
      55A      0.208997    56A      0.212542    57A      0.219811  
      58A      0.225584    59A      0.228265    60A      0.237110  
      61A      0.238569    62A      0.241326    63A      0.249846  
      64A      0.252212    65A      0.261925    66A      0.267222  
      67A      0.274213    68A      0.296601    69A      0.300253  
      70A      0.330222    71A      0.343557    72A      0.343790  
      73A      0.569760    74A      0.610062    75A      0.635290  
      76A      0.671802    77A      0.675787    78A      0.716399  
      79A      0.732468    80A      0.782681    81A      0.789951  
      82A      0.806216    83A      0.861463    84A      0.896829  
      85A      0.908352    86A      0.948108    87A      0.975848  
      88A      1.017843    89A      1.056293    90A      1.061221  
      91A      1.063270    92A      1.188399    93A      1.319146  
      94A      1.368308    95A      1.556966    96A      1.557969  
      97A      1.593973    98A      1.675398    99A      1.743332  
     100A      1.908089   101A      2.163177   102A      2.214695  
     103A      2.295623   104A      2.304766   105A      2.306841  
     106A      2.338236   107A      2.395192   108A      2.519247  
     109A      2.649756   110A      2.977476   111A      3.004521  
     112A      3.056277   113A      3.118892   114A      3.144389  
     115A      3.344318   116A      3.486006   117A      4.184398  
     118A      4.314500   119A      4.342264   120A      4.429543  
     121A      4.509674   122A      4.518609   123A      4.734498  
     124A      4.740758   125A      4.752955   126A      5.031009  
     127A      5.360463   128A      5.433752   129A      5.455852  
     130A      5.646070   131A      5.904685   132A      6.233270  
     133A      6.431619   134A      6.867310   135A      7.438144  
     136A      7.612277   137A      7.841577   138A      7.955699  
     139A      8.063236   140A      8.521227   141A      8.615356  
     142A      9.488376   143A      9.674126   144A      9.778021  
     145A     10.010678   146A     11.022665   147A     11.416043  
     148A     11.889079   149A     13.304544   150A     13.604553  
     151A     64.422627  

    Final Occupation by Irrep:
              A 
    DOCC [     9 ]
    NA   [     9 ]
    NB   [     9 ]

  @DF-RHF Final Energy:  -599.01750921003418

   => Energetics <=

    Nuclear Repulsion Energy =              0.0000000000000000
    One-Electron Energy =                -819.7203683303454227
    Two-Electron Energy =                 220.7028591203112455
    Total Energy =                       -599.0175092100341772

Computation Completed


Properties will be evaluated at   0.000000,   0.000000,   0.000000 [a0]

Properties computed using the SCF density matrix


 Multipole Moments:

 ------------------------------------------------------------------------------------
     Multipole            Electronic (a.u.)      Nuclear  (a.u.)        Total (a.u.)
 ------------------------------------------------------------------------------------

 L = 1.  Multiply by 2.5417464519 to convert [e a0] to [Debye]
 Dipole X            :        -79.6947472           84.1217424            4.4269952
 Dipole Y            :          0.0000000            0.0000000            0.0000000
 Dipole Z            :         -0.0000000            0.0000000           -0.0000000
 Magnitude           :                                                    4.4269952

 ------------------------------------------------------------------------------------

*** tstop() called on moses-razer at Fri Dec 29 17:28:11 2023
Module time:
	user time   =       9.31 seconds =       0.16 minutes
	system time =       2.24 seconds =       0.04 minutes
	total time  =          5 seconds =       0.08 minutes
Total time:
	user time   =      26.95 seconds =       0.45 minutes
	system time =       5.56 seconds =       0.09 minutes
	total time  =         16 seconds =       0.27 minutes
  Constructing Basis Sets for SAPT...

   => Loading Basis Set <=

    Name: (AUG-CC-PVTZ AUX)
    Role: RIFIT
    Keyword: DF_BASIS_SAPT
    atoms 1   entry O          line   264 file /home/kchung25/anaconda3/envs/p415env/share/psi4/basis/aug-cc-pvtz-ri.gbs 
    atoms 2-3 entry H          line    30 file /home/kchung25/anaconda3/envs/p415env/share/psi4/basis/aug-cc-pvtz-ri.gbs 
    atoms 4   entry K          line  1282 file /home/kchung25/anaconda3/envs/p415env/share/psi4/basis/def2-qzvpp-ri.gbs 

   => Loading Basis Set <=

    Name: (AUG-CC-PVTZ AUX)
    Role: JKFIT
    Keyword: DF_BASIS_ELST
    atoms 1   entry O          line   286 file /home/kchung25/anaconda3/envs/p415env/share/psi4/basis/aug-cc-pvtz-jkfit.gbs 
    atoms 2-3 entry H          line    70 file /home/kchung25/anaconda3/envs/p415env/share/psi4/basis/aug-cc-pvtz-jkfit.gbs 
    atoms 4   entry K          line  1152 file /home/kchung25/anaconda3/envs/p415env/share/psi4/basis/def2-universal-jkfit.gbs 


  //>>>>>>>>>>>>>>>>>>>>>>>>>>>>>>>>>>>//
  //               SAPT2+              //
  //<<<<<<<<<<<<<<<<<<<<<<<<<<<<<<<<<<<//


*** tstart() called on moses-razer
*** at Fri Dec 29 17:28:11 2023

        SAPT2+  
    Ed Hohenstein
     6 June 2009

      Orbital Information
  --------------------------
    NSO        =       151
    NMO        =       151
    NRI        =       397
    NOCC A     =         5
    NOCC B     =         9
    FOCC A     =         0
    FOCC B     =         0
    NVIR A     =       146
    NVIR B     =       142

    Estimated memory usage: 109.1 MB

    Natural Orbital Cutoff:   1.000E-06
    Disp(T3) Truncation:            Yes
    CCD (vv|vv) Truncation:         Yes
    MBPT T2 Truncation:             Yes

    Monomer A: 68 virtual orbitals dropped
    Monomer B: 114 virtual orbitals dropped

    Elst10,r            =    -0.044735298014 [Eh]
    Exch10 (S^2)        =     0.033818094143 [Eh]
    Exch10              =     0.034336803074 [Eh]
    Ind20,r (A<-B)      =    -0.035581592403 [Eh]
    Ind20,r (B<-A)      =    -0.001815907889 [Eh]
    Ind20,r             =    -0.037397500292 [Eh]
    Exch-Ind20,r (A<-B) =     0.026557994831 [Eh]
    Exch-Ind20,r (B<-A) =     0.001282050073 [Eh]
    Exch-Ind20,r        =     0.027840044904 [Eh]
    Disp20              =    -0.005762755620 [Eh]
    Disp20 (NO)         =    -0.005102697192 [Eh]
    Exch-Disp20         =     0.001067136933 [Eh]
    Elst12,r            =     0.001191888712 [Eh]
    Exch11              =     0.000127469227 [Eh]
    Exch12              =     0.002220392501 [Eh]
    Ind22               =    -0.004944000815 [Eh]
    Disp21              =     0.000703743556 [Eh]
    Disp22 (SDQ)        =    -0.000040245618 [Eh]

    (i =   1 of   9)          0 seconds
    (i =   2 of   9)          0 seconds
    (i =   3 of   9)          0 seconds
    (i =   4 of   9)          0 seconds
    (i =   5 of   9)          0 seconds
    (i =   6 of   9)          0 seconds
    (i =   7 of   9)          0 seconds
    (i =   8 of   9)          0 seconds
    (i =   9 of   9)          0 seconds

    Disp220 (T)         =    -0.000366900908 [Eh]

    (i =   1 of   5)          1 seconds
    (i =   2 of   5)          1 seconds
    (i =   3 of   5)          1 seconds
    (i =   4 of   5)          1 seconds
    (i =   5 of   5)          1 seconds

    Disp202 (T)         =    -0.000140176931 [Eh]

    Disp22 (T)          =    -0.000507077839 [Eh]

    Est. Disp220 (T)    =    -0.000414361306 [Eh]
    Est. Disp202 (T)    =    -0.000158309491 [Eh]

    Est. Disp22 (T)     =    -0.000572670797 [Eh]

    SAPT Results 
  --------------------------------------------------------------------------------------------------------
    Electrostatics                -43.54340930 [mEh]     -27.32390186 [kcal/mol]    -114.32320537 [kJ/mol]
      Elst10,r                    -44.73529801 [mEh]     -28.07182332 [kcal/mol]    -117.45250876 [kJ/mol]
      Elst12,r                      1.19188871 [mEh]       0.74792146 [kcal/mol]       3.12930338 [kJ/mol]

    Exchange                       36.68466480 [mEh]      23.01997471 [kcal/mol]      96.31557417 [kJ/mol]
      Exch10                       34.33680307 [mEh]      21.54666923 [kcal/mol]      90.15126405 [kJ/mol]
      Exch10(S^2)                  33.81809414 [mEh]      21.22117446 [kcal/mol]      88.78939394 [kJ/mol]
      Exch11(S^2)                   0.12746923 [mEh]       0.07998815 [kcal/mol]       0.33467041 [kJ/mol]
      Exch12(S^2)                   2.22039250 [mEh]       1.39331733 [kcal/mol]       5.82963971 [kJ/mol]

    Induction                     -11.52785411 [mEh]      -7.23383767 [kcal/mol]     -30.26637680 [kJ/mol]
      Ind20,r                     -37.39750029 [mEh]     -23.46728573 [kcal/mol]     -98.18712349 [kJ/mol]
      Ind22                        -4.94400082 [mEh]      -3.10240735 [kcal/mol]     -12.98047235 [kJ/mol]
      Exch-Ind20,r                 27.84004490 [mEh]      17.46989193 [kcal/mol]      73.09402782 [kJ/mol]
      Exch-Ind22                    3.68049211 [mEh]       2.30954367 [kcal/mol]       9.66313070 [kJ/mol]
      delta HF,r (2)               -0.70689002 [mEh]      -0.44358018 [kcal/mol]      -1.85593949 [kJ/mol]

    Dispersion                     -4.60479155 [mEh]      -2.88955032 [kcal/mol]     -12.08987854 [kJ/mol]
      Disp20                       -5.76275562 [mEh]      -3.61618375 [kcal/mol]     -15.13011280 [kJ/mol]
      Disp21                        0.70374356 [mEh]       0.44160575 [kcal/mol]       1.84767845 [kJ/mol]
      Disp22 (SDQ)                 -0.04024562 [mEh]      -0.02525451 [kcal/mol]      -0.10566486 [kJ/mol]
      Disp22 (T)                   -0.50707784 [mEh]      -0.31819615 [kcal/mol]      -1.33133268 [kJ/mol]
      Est. Disp22 (T)              -0.57267080 [mEh]      -0.35935635 [kcal/mol]      -1.50354697 [kJ/mol]
      Exch-Disp20                   1.06713693 [mEh]       0.66963854 [kcal/mol]       2.80176763 [kJ/mol]

  Total HF                        -20.66284035 [mEh]     -12.96612807 [kcal/mol]     -54.25027985 [kJ/mol]
  Total SAPT0                     -25.35845903 [mEh]     -15.91267328 [kcal/mol]     -66.57862502 [kJ/mol]
  Total SAPT2                     -23.08221730 [mEh]     -14.48431003 [kcal/mol]     -60.60235317 [kJ/mol]
  Total SAPT2+                    -22.99139016 [mEh]     -14.42731514 [kcal/mol]     -60.36388655 [kJ/mol]

  Special recipe for scaled SAPT0 (see Manual):
    Electrostatics sSAPT0         -44.73529801 [mEh]     -28.07182332 [kcal/mol]    -117.45250876 [kJ/mol]
    Exchange sSAPT0                34.33680307 [mEh]      21.54666923 [kcal/mol]      90.15126405 [kJ/mol]
    Induction sSAPT0               -8.96354683 [mEh]      -5.62471055 [kcal/mol]     -23.53378895 [kJ/mol]
    Dispersion sSAPT0              -4.64575777 [mEh]      -2.91525701 [kcal/mol]     -12.19743534 [kJ/mol]
  Total sSAPT0                    -24.00779953 [mEh]     -15.06512165 [kcal/mol]     -63.03246899 [kJ/mol]
  --------------------------------------------------------------------------------------------------------

*** tstop() called on moses-razer at Fri Dec 29 17:28:26 2023
Module time:
	user time   =      39.21 seconds =       0.65 minutes
	system time =       2.84 seconds =       0.05 minutes
	total time  =         15 seconds =       0.25 minutes
Total time:
	user time   =      66.57 seconds =       1.11 minutes
	system time =       8.41 seconds =       0.14 minutes
	total time  =         31 seconds =       0.52 minutes

    Psi4 stopped on: Friday, 29 December 2023 05:28PM
    Psi4 wall time for execution: 0:00:30.45

*** Psi4 exiting successfully. Buy a developer a beer!
