
    -----------------------------------------------------------------------
          Psi4: An Open-Source Ab Initio Electronic Structure Package
                               Psi4 1.9 release

                         Git: Rev {} zzzzzzz 


    D. G. A. Smith, L. A. Burns, A. C. Simmonett, R. M. Parrish,
    M. C. Schieber, R. Galvelis, P. Kraus, H. Kruse, R. Di Remigio,
    A. Alenaizan, A. M. James, S. Lehtola, J. P. Misiewicz, M. Scheurer,
    R. A. Shaw, J. B. Schriber, Y. Xie, Z. L. Glick, D. A. Sirianni,
    J. S. O'Brien, J. M. Waldrop, A. Kumar, E. G. Hohenstein,
    B. P. Pritchard, B. R. Brooks, H. F. Schaefer III, A. Yu. Sokolov,
    K. Patkowski, A. E. DePrince III, U. Bozkaya, R. A. King,
    F. A. Evangelista, J. M. Turney, T. D. Crawford, C. D. Sherrill,
    J. Chem. Phys. 152(18) 184108 (2020). https://doi.org/10.1063/5.0006002

                            Additional Code Authors
    E. T. Seidl, C. L. Janssen, E. F. Valeev, M. L. Leininger,
    J. F. Gonthier, R. M. Richard, H. R. McAlexander, M. Saitow, X. Wang,
    P. Verma, M. H. Lechner, A. Jiang, S. Behnle, A. G. Heide,
    M. F. Herbst, and D. L. Poole

             Previous Authors, Complete List of Code Contributors,
                       and Citations for Specific Modules
    https://github.com/psi4/psi4/blob/master/codemeta.json
    https://github.com/psi4/psi4/graphs/contributors
    http://psicode.org/psi4manual/master/introduction.html#citing-psifour

    -----------------------------------------------------------------------


    Psi4 started on: Friday, 29 December 2023 05:29PM

    Process ID: 158262
    Host:       moses-razer
    PSIDATADIR: /home/kchung25/anaconda3/envs/psi4_19/share/psi4
    Memory:     500.0 MiB
    Threads:    6
    
  ==> Input File <==

--------------------------------------------------------------------------
MEMORY 60 GB

molecule dimer {
0 1
O      0.000000     0.000000     0.000000
H     -0.591931     0.756733     0.000000
H     -0.591931    -0.756733     0.000000
--
1 1
K      2.959466     0.000000     0.000000

units ang
no_reorient
no_com
symmetry c1
}

set {
basis        aug-cc-pVTZ
scf_type     df
}

energy("sapt2+")
--------------------------------------------------------------------------

  Memory set to  55.879 GiB by Python driver.

Scratch directory: /scratch/
   => Loading Basis Set <=

    Name: AUG-CC-PVTZ
    Role: ORBITAL
    Keyword: BASIS
    atoms 1   entry O          line   331 file /home/kchung25/anaconda3/envs/p415env/share/psi4/basis/aug-cc-pvtz.gbs 
    atoms 2-3 entry H          line    40 file /home/kchung25/anaconda3/envs/p415env/share/psi4/basis/aug-cc-pvtz.gbs 
    atoms 4   entry K          line  1152 file /home/kchung25/anaconda3/envs/p415env/share/psi4/basis/aug-cc-pvtz.gbs 

   => Loading Basis Set <=

    Name: AUG-CC-PVTZ
    Role: ORBITAL
    Keyword: BASIS
    atoms 1   entry O          line   331 file /home/kchung25/anaconda3/envs/p415env/share/psi4/basis/aug-cc-pvtz.gbs 
    atoms 2-3 entry H          line    40 file /home/kchung25/anaconda3/envs/p415env/share/psi4/basis/aug-cc-pvtz.gbs 
    atoms 4   entry K          line  1152 file /home/kchung25/anaconda3/envs/p415env/share/psi4/basis/aug-cc-pvtz.gbs 


  //>>>>>>>>>>>>>>>>>>>>>>>>>>>>>>>>>>>//
  //              Dimer HF             //
  //<<<<<<<<<<<<<<<<<<<<<<<<<<<<<<<<<<<//

   => Libint2 <=

    Primary   basis highest AM E, G, H:  5, 4, 3
    Auxiliary basis highest AM E, G, H:  6, 5, 4
    Onebody   basis highest AM E, G, H:  6, 5, 4
    Solid Harmonics ordering:            gaussian

*** tstart() called on moses-razer
*** at Fri Dec 29 17:29:59 2023

   => Loading Basis Set <=

    Name: AUG-CC-PVTZ
    Role: ORBITAL
    Keyword: BASIS
    atoms 1   entry O          line   331 file /home/kchung25/anaconda3/envs/p415env/share/psi4/basis/aug-cc-pvtz.gbs 
    atoms 2-3 entry H          line    40 file /home/kchung25/anaconda3/envs/p415env/share/psi4/basis/aug-cc-pvtz.gbs 
    atoms 4   entry K          line  1152 file /home/kchung25/anaconda3/envs/p415env/share/psi4/basis/aug-cc-pvtz.gbs 


         ---------------------------------------------------------
                                   SCF
               by Justin Turney, Rob Parrish, Andy Simmonett
                          and Daniel G. A. Smith
                              RHF Reference
                        6 Threads,  57220 MiB Core
         ---------------------------------------------------------

  ==> Geometry <==

    Molecular point group: c1
    Full point group: C2v

    Geometry (in Angstrom), charge = 1, multiplicity = 1:

       Center              X                  Y                   Z               Mass       
    ------------   -----------------  -----------------  -----------------  -----------------
         O            0.000000000000     0.000000000000     0.000000000000    15.994914619570
         H           -0.591931000000     0.756733000000     0.000000000000     1.007825032230
         H           -0.591931000000    -0.756733000000     0.000000000000     1.007825032230
         K            2.959466000000     0.000000000000     0.000000000000    38.963706486400

  Running in c1 symmetry.

  Rotational constants: A =     14.60481  B =      0.04930  C =      0.04913 [cm^-1]
  Rotational constants: A = 437841.29126  B =   1477.85686  C =   1472.88539 [MHz]
  Nuclear repulsion =   41.879193849800970

  Charge       = 1
  Multiplicity = 1
  Electrons    = 28
  Nalpha       = 14
  Nbeta        = 14

  ==> Algorithm <==

  SCF Algorithm Type is DF.
  DIIS enabled.
  MOM disabled.
  Fractional occupation disabled.
  Guess Type is SAD.
  Energy threshold   = 1.00e-08
  Density threshold  = 1.00e-08
  Integral threshold = 1.00e-12

  ==> Primary Basis <==

  Basis Set: AUG-CC-PVTZ
    Blend: AUG-CC-PVTZ
    Number of shells: 51
    Number of basis functions: 151
    Number of Cartesian functions: 174
    Spherical Harmonics?: true
    Max angular momentum: 3

   => Loading Basis Set <=

    Name: (AUG-CC-PVTZ AUX)
    Role: JKFIT
    Keyword: DF_BASIS_SCF
    atoms 1   entry O          line   286 file /home/kchung25/anaconda3/envs/p415env/share/psi4/basis/aug-cc-pvtz-jkfit.gbs 
    atoms 2-3 entry H          line    70 file /home/kchung25/anaconda3/envs/p415env/share/psi4/basis/aug-cc-pvtz-jkfit.gbs 
    atoms 4   entry K          line  1152 file /home/kchung25/anaconda3/envs/p415env/share/psi4/basis/def2-universal-jkfit.gbs 

  ==> Integral Setup <==

  ==> DiskDFJK: Density-Fitted J/K Matrices <==

    J tasked:                  Yes
    K tasked:                  Yes
    wK tasked:                  No
    OpenMP threads:              6
    Integrals threads:           6
    Memory [MiB]:            42915
    Algorithm:                Core
    Integral Cache:           SAVE
    Schwarz Cutoff:          1E-12
    Fitting Condition:       1E-10

   => Auxiliary Basis Set <=

  Basis Set: (AUG-CC-PVTZ AUX)
    Blend: AUG-CC-PVTZ-JKFIT + DEF2-UNIVERSAL-JKFIT
    Number of shells: 102
    Number of basis functions: 356
    Number of Cartesian functions: 444
    Spherical Harmonics?: true
    Max angular momentum: 4

  Minimum eigenvalue in the overlap matrix is 1.6838676486E-04.
  Reciprocal condition number of the overlap matrix is 1.9381470723E-05.
    Using symmetric orthogonalization.

  ==> Pre-Iterations <==

  SCF Guess: Superposition of Atomic Densities via on-the-fly atomic UHF (no occupation information).

   -------------------------
    Irrep   Nso     Nmo    
   -------------------------
     A        151     151 
   -------------------------
    Total     151     151
   -------------------------

  ==> Iterations <==

                           Total Energy        Delta E     RMS |[F,P]|

   @DF-RHF iter SAD:  -674.55067658908729   -6.74551e+02   0.00000e+00 
   @DF-RHF iter   1:  -675.01790726478168   -4.67231e-01   3.14417e-03 DIIS/ADIIS
   @DF-RHF iter   2:  -675.07199832060269   -5.40911e-02   2.08895e-03 DIIS/ADIIS
   @DF-RHF iter   3:  -675.10243146840423   -3.04331e-02   1.45650e-04 DIIS/ADIIS
   @DF-RHF iter   4:  -675.10280800871465   -3.76540e-04   3.36764e-05 DIIS
   @DF-RHF iter   5:  -675.10282996770172   -2.19590e-05   7.37826e-06 DIIS
   @DF-RHF iter   6:  -675.10283156783953   -1.60014e-06   1.55239e-06 DIIS
   @DF-RHF iter   7:  -675.10283164471184   -7.68723e-08   3.26047e-07 DIIS
   @DF-RHF iter   8:  -675.10283164763018   -2.91834e-09   7.05130e-08 DIIS
   @DF-RHF iter   9:  -675.10283164774717   -1.16984e-10   1.06305e-08 DIIS
   @DF-RHF iter  10:  -675.10283164774978   -2.61480e-12   2.87461e-09 DIIS
  Energy and wave function converged.


  ==> Post-Iterations <==

    Orbital Energies [Eh]
    ---------------------

    Doubly Occupied:                                                      

       1A   -133.721626     2A    -20.733817     3A    -14.677305  
       4A    -11.707391     5A    -11.707376     6A    -11.707269  
       7A     -1.933236     8A     -1.519299     9A     -1.141058  
      10A     -1.140742    11A     -1.138520    12A     -0.881134  
      13A     -0.763618    14A     -0.679412  

    Virtual:                                                              

      15A     -0.127684    16A     -0.086389    17A     -0.084191  
      18A     -0.083819    19A     -0.058960    20A     -0.054498  
      21A     -0.053047    22A     -0.052575    23A     -0.052557  
      24A     -0.051513    25A     -0.042785    26A     -0.041942  
      27A     -0.040608    28A     -0.028085    29A     -0.027881  
      30A     -0.027751    31A     -0.027581    32A     -0.026108  
      33A     -0.016011    34A     -0.015694    35A     -0.012221  
      36A     -0.011358    37A     -0.008666    38A     -0.003385  
      39A      0.020137    40A      0.021270    41A      0.021278  
      42A      0.023333    43A      0.023339    44A      0.029442  
      45A      0.032220    46A      0.032447    47A      0.035619  
      48A      0.043552    49A      0.056183    50A      0.070897  
      51A      0.092047    52A      0.100929    53A      0.113736  
      54A      0.116362    55A      0.118505    56A      0.127415  
      57A      0.151766    58A      0.172661    59A      0.188888  
      60A      0.203834    61A      0.230024    62A      0.238570  
      63A      0.247052    64A      0.247831    65A      0.251948  
      66A      0.253675    67A      0.255590    68A      0.256643  
      69A      0.263280    70A      0.264096    71A      0.274314  
      72A      0.274577    73A      0.311037    74A      0.322771  
      75A      0.339111    76A      0.351386    77A      0.353823  
      78A      0.511470    79A      0.544298    80A      0.596750  
      81A      0.633176    82A      0.688629    83A      0.713205  
      84A      0.725441    85A      0.817839    86A      0.823066  
      87A      0.834577    88A      0.866255    89A      0.877759  
      90A      0.882521    91A      0.918673    92A      0.926915  
      93A      0.985625    94A      1.001737    95A      1.036058  
      96A      1.039605    97A      1.078359    98A      1.146086  
      99A      1.385286   100A      1.453982   101A      1.456249  
     102A      1.692527   103A      1.720201   104A      1.836312  
     105A      1.969100   106A      2.119381   107A      2.145830  
     108A      2.192572   109A      2.245272   110A      2.302076  
     111A      2.341401   112A      2.391248   113A      2.537868  
     114A      2.575698   115A      2.632812   116A      2.677651  
     117A      2.729812   118A      3.558501   119A      3.601713  
     120A      3.865519   121A      3.951642   122A      4.023309  
     123A      4.098272   124A      4.128344   125A      4.243384  
     126A      4.247262   127A      4.273724   128A      4.369743  
     129A      4.613551   130A      4.695834   131A      4.988726  
     132A      4.997611   133A      5.089424   134A      5.173919  
     135A      5.364656   136A      5.537114   137A      6.061022  
     138A      6.391215   139A      6.543823   140A      6.741562  
     141A      6.981474   142A      7.134574   143A      7.140364  
     144A      7.150395   145A      7.200702   146A      7.218528  
     147A      7.385440   148A      7.742605   149A      7.761675  
     150A      8.656733   151A     15.638793  

    Final Occupation by Irrep:
              A 
    DOCC [    14 ]
    NA   [    14 ]
    NB   [    14 ]

  @DF-RHF Final Energy:  -675.10283164774978

   => Energetics <=

    Nuclear Repulsion Energy =             41.8791938498009699
    One-Electron Energy =               -1007.0604409035843219
    Two-Electron Energy =                 290.0784154060336846
    Total Energy =                       -675.1028316477497810

Computation Completed


Properties will be evaluated at   0.000000,   0.000000,   0.000000 [a0]

Properties computed using the SCF density matrix


 Multipole Moments:

 ------------------------------------------------------------------------------------
     Multipole            Electronic (a.u.)      Nuclear  (a.u.)        Total (a.u.)
 ------------------------------------------------------------------------------------

 L = 1.  Multiply by 2.5417464519 to convert [e a0] to [Debye]
 Dipole X            :        -99.5067058          104.0218492            4.5151434
 Dipole Y            :         -0.0000000            0.0000000           -0.0000000
 Dipole Z            :         -0.0000000            0.0000000           -0.0000000
 Magnitude           :                                                    4.5151434

 ------------------------------------------------------------------------------------

*** tstop() called on moses-razer at Fri Dec 29 17:30:06 2023
Module time:
	user time   =      11.65 seconds =       0.19 minutes
	system time =       2.46 seconds =       0.04 minutes
	total time  =          7 seconds =       0.12 minutes
Total time:
	user time   =      11.65 seconds =       0.19 minutes
	system time =       2.46 seconds =       0.04 minutes
	total time  =          7 seconds =       0.12 minutes

  //>>>>>>>>>>>>>>>>>>>>>>>>>>>>>>>>>>>//
  //            Monomer A HF           //
  //<<<<<<<<<<<<<<<<<<<<<<<<<<<<<<<<<<<//

   => Libint2 <=

    Primary   basis highest AM E, G, H:  5, 4, 3
    Auxiliary basis highest AM E, G, H:  6, 5, 4
    Onebody   basis highest AM E, G, H:  6, 5, 4
    Solid Harmonics ordering:            gaussian

*** tstart() called on moses-razer
*** at Fri Dec 29 17:30:06 2023

   => Loading Basis Set <=

    Name: AUG-CC-PVTZ
    Role: ORBITAL
    Keyword: BASIS
    atoms 1   entry O          line   331 file /home/kchung25/anaconda3/envs/p415env/share/psi4/basis/aug-cc-pvtz.gbs 
    atoms 2-3 entry H          line    40 file /home/kchung25/anaconda3/envs/p415env/share/psi4/basis/aug-cc-pvtz.gbs 
    atoms 4   entry K          line  1152 file /home/kchung25/anaconda3/envs/p415env/share/psi4/basis/aug-cc-pvtz.gbs 


         ---------------------------------------------------------
                                   SCF
               by Justin Turney, Rob Parrish, Andy Simmonett
                          and Daniel G. A. Smith
                              RHF Reference
                        6 Threads,  57220 MiB Core
         ---------------------------------------------------------

  ==> Geometry <==

    Molecular point group: c1
    Full point group: C2v

    Geometry (in Angstrom), charge = 0, multiplicity = 1:

       Center              X                  Y                   Z               Mass       
    ------------   -----------------  -----------------  -----------------  -----------------
         O            0.000000000000     0.000000000000     0.000000000000    15.994914619570
         H           -0.591931000000     0.756733000000     0.000000000000     1.007825032230
         H           -0.591931000000    -0.756733000000     0.000000000000     1.007825032230
      Gh(K)           2.959466000000     0.000000000000     0.000000000000    38.963706486400

  Running in c1 symmetry.

  Rotational constants: A =     14.60481  B =      0.04930  C =      0.04913 [cm^-1]
  Rotational constants: A = 437841.29126  B =   1477.85686  C =   1472.88539 [MHz]
  Nuclear repulsion =    9.162445214196101

  Charge       = 0
  Multiplicity = 1
  Electrons    = 10
  Nalpha       = 5
  Nbeta        = 5

  ==> Algorithm <==

  SCF Algorithm Type is DF.
  DIIS enabled.
  MOM disabled.
  Fractional occupation disabled.
  Guess Type is SAD.
  Energy threshold   = 1.00e-08
  Density threshold  = 1.00e-08
  Integral threshold = 1.00e-12

  ==> Primary Basis <==

  Basis Set: AUG-CC-PVTZ
    Blend: AUG-CC-PVTZ
    Number of shells: 51
    Number of basis functions: 151
    Number of Cartesian functions: 174
    Spherical Harmonics?: true
    Max angular momentum: 3

   => Loading Basis Set <=

    Name: (AUG-CC-PVTZ AUX)
    Role: JKFIT
    Keyword: DF_BASIS_SCF
    atoms 1   entry O          line   286 file /home/kchung25/anaconda3/envs/p415env/share/psi4/basis/aug-cc-pvtz-jkfit.gbs 
    atoms 2-3 entry H          line    70 file /home/kchung25/anaconda3/envs/p415env/share/psi4/basis/aug-cc-pvtz-jkfit.gbs 
    atoms 4   entry K          line  1152 file /home/kchung25/anaconda3/envs/p415env/share/psi4/basis/def2-universal-jkfit.gbs 

  ==> Integral Setup <==

  ==> DiskDFJK: Density-Fitted J/K Matrices <==

    J tasked:                  Yes
    K tasked:                  Yes
    wK tasked:                  No
    OpenMP threads:              6
    Integrals threads:           6
    Memory [MiB]:            42915
    Algorithm:                Core
    Integral Cache:           LOAD
    Schwarz Cutoff:          1E-12
    Fitting Condition:       1E-10

   => Auxiliary Basis Set <=

  Basis Set: (AUG-CC-PVTZ AUX)
    Blend: AUG-CC-PVTZ-JKFIT + DEF2-UNIVERSAL-JKFIT
    Number of shells: 102
    Number of basis functions: 356
    Number of Cartesian functions: 444
    Spherical Harmonics?: true
    Max angular momentum: 4

  Minimum eigenvalue in the overlap matrix is 1.6838676486E-04.
  Reciprocal condition number of the overlap matrix is 1.9381470723E-05.
    Using symmetric orthogonalization.

  ==> Pre-Iterations <==

  SCF Guess: Superposition of Atomic Densities via on-the-fly atomic UHF (no occupation information).

   -------------------------
    Irrep   Nso     Nmo    
   -------------------------
     A        151     151 
   -------------------------
    Total     151     151
   -------------------------

  ==> Iterations <==

                           Total Energy        Delta E     RMS |[F,P]|

   @DF-RHF iter SAD:   -75.47462076442631   -7.54746e+01   0.00000e+00 
   @DF-RHF iter   1:   -75.97586886118793   -5.01248e-01   3.10191e-03 DIIS/ADIIS
   @DF-RHF iter   2:   -76.02833826046256   -5.24694e-02   2.11843e-03 DIIS/ADIIS
   @DF-RHF iter   3:   -76.05990565015934   -3.15674e-02   1.44970e-04 DIIS/ADIIS
   @DF-RHF iter   4:   -76.06029920804988   -3.93558e-04   3.44158e-05 DIIS
   @DF-RHF iter   5:   -76.06032371325799   -2.45052e-05   7.86141e-06 DIIS
   @DF-RHF iter   6:   -76.06032573016392   -2.01691e-06   1.71862e-06 DIIS
   @DF-RHF iter   7:   -76.06032583609272   -1.05929e-07   3.08278e-07 DIIS
   @DF-RHF iter   8:   -76.06032583907475   -2.98203e-09   5.13316e-08 DIIS
   @DF-RHF iter   9:   -76.06032583914038   -6.56257e-11   1.26877e-08 DIIS
   @DF-RHF iter  10:   -76.06032583914433   -3.95062e-12   1.86423e-09 DIIS
  Energy and wave function converged.


  ==> Post-Iterations <==

    Orbital Energies [Eh]
    ---------------------

    Doubly Occupied:                                                      

       1A    -20.568067     2A     -1.352213     3A     -0.714802  
       4A     -0.585411     5A     -0.510236  

    Virtual:                                                              

       6A      0.007390     7A      0.010090     8A      0.010628  
       9A      0.011305    10A      0.018497    11A      0.018702  
      12A      0.019228    13A      0.019749    14A      0.019762  
      15A      0.035654    16A      0.037949    17A      0.039381  
      18A      0.043931    19A      0.063621    20A      0.064458  
      21A      0.067580    22A      0.068184    23A      0.068184  
      24A      0.071598    25A      0.074991    26A      0.108695  
      27A      0.110667    28A      0.110962    29A      0.117324  
      30A      0.144642    31A      0.146266    32A      0.147457  
      33A      0.147980    34A      0.148004    35A      0.168671  
      36A      0.171990    37A      0.187934    38A      0.200061  
      39A      0.222831    40A      0.236029    41A      0.238036  
      42A      0.245048    43A      0.257158    44A      0.264579  
      45A      0.268451    46A      0.270384    47A      0.275693  
      48A      0.303066    49A      0.310835    50A      0.330378  
      51A      0.376838    52A      0.385862    53A      0.392732  
      54A      0.408944    55A      0.464205    56A      0.469123  
      57A      0.469387    58A      0.470492    59A      0.482628  
      60A      0.488021    61A      0.489352    62A      0.517344  
      63A      0.526199    64A      0.644917    65A      0.660079  
      66A      0.696973    67A      0.746913    68A      0.786307  
      69A      0.832438    70A      0.860244    71A      0.880019  
      72A      0.960997    73A      0.961410    74A      0.972141  
      75A      0.996023    76A      1.030560    77A      1.046258  
      78A      1.058574    79A      1.066396    80A      1.127654  
      81A      1.133907    82A      1.184904    83A      1.199652  
      84A      1.275919    85A      1.528858    86A      1.538757  
      87A      1.585390    88A      1.832072    89A      1.837257  
      90A      1.853323    91A      1.858902    92A      1.891247  
      93A      1.927332    94A      1.939533    95A      1.988257  
      96A      2.042630    97A      2.043811    98A      2.124667  
      99A      2.136552   100A      2.226948   101A      2.308390  
     102A      2.321758   103A      2.402103   104A      2.428579  
     105A      2.499055   106A      2.546119   107A      2.723713  
     108A      2.745937   109A      2.763962   110A      2.806129  
     111A      2.895555   112A      2.896042   113A      3.718830  
     114A      3.771491   115A      4.021982   116A      4.114783  
     117A      4.184627   118A      4.258934   119A      4.289154  
     120A      4.400482   121A      4.411906   122A      4.435279  
     123A      4.530158   124A      4.777364   125A      4.854896  
     126A      5.151333   127A      5.155373   128A      5.259684  
     129A      5.338687   130A      5.526515   131A      5.710383  
     132A      6.230788   133A      6.562249   134A      6.715767  
     135A      6.912401   136A      7.151969   137A      7.304730  
     138A      7.309184   139A      7.320701   140A      7.367046  
     141A      7.393933   142A      7.553838   143A      7.911523  
     144A      7.932324   145A      8.822223   146A     10.016567  
     147A     15.803379   148A     30.237003   149A     30.247156  
     150A     30.427849   151A    197.425298  

    Final Occupation by Irrep:
              A 
    DOCC [     5 ]
    NA   [     5 ]
    NB   [     5 ]

  @DF-RHF Final Energy:   -76.06032583914433

   => Energetics <=

    Nuclear Repulsion Energy =              9.1624452141961008
    One-Electron Energy =                -122.9840845224020285
    Two-Electron Energy =                  37.7613134690615979
    Total Energy =                        -76.0603258391443262

Computation Completed


Properties will be evaluated at   0.000000,   0.000000,   0.000000 [a0]

Properties computed using the SCF density matrix


 Multipole Moments:

 ------------------------------------------------------------------------------------
     Multipole            Electronic (a.u.)      Nuclear  (a.u.)        Total (a.u.)
 ------------------------------------------------------------------------------------

 L = 1.  Multiply by 2.5417464519 to convert [e a0] to [Debye]
 Dipole X            :          1.4520899           -2.2371750           -0.7850850
 Dipole Y            :         -0.0000000            0.0000000           -0.0000000
 Dipole Z            :          0.0000000            0.0000000            0.0000000
 Magnitude           :                                                    0.7850850

 ------------------------------------------------------------------------------------

*** tstop() called on moses-razer at Fri Dec 29 17:30:10 2023
Module time:
	user time   =       6.25 seconds =       0.10 minutes
	system time =       0.97 seconds =       0.02 minutes
	total time  =          4 seconds =       0.07 minutes
Total time:
	user time   =      17.93 seconds =       0.30 minutes
	system time =       3.43 seconds =       0.06 minutes
	total time  =         11 seconds =       0.18 minutes

  //>>>>>>>>>>>>>>>>>>>>>>>>>>>>>>>>>>>//
  //            Monomer B HF           //
  //<<<<<<<<<<<<<<<<<<<<<<<<<<<<<<<<<<<//

   => Libint2 <=

    Primary   basis highest AM E, G, H:  5, 4, 3
    Auxiliary basis highest AM E, G, H:  6, 5, 4
    Onebody   basis highest AM E, G, H:  6, 5, 4
    Solid Harmonics ordering:            gaussian

*** tstart() called on moses-razer
*** at Fri Dec 29 17:30:10 2023

   => Loading Basis Set <=

    Name: AUG-CC-PVTZ
    Role: ORBITAL
    Keyword: BASIS
    atoms 1   entry O          line   331 file /home/kchung25/anaconda3/envs/p415env/share/psi4/basis/aug-cc-pvtz.gbs 
    atoms 2-3 entry H          line    40 file /home/kchung25/anaconda3/envs/p415env/share/psi4/basis/aug-cc-pvtz.gbs 
    atoms 4   entry K          line  1152 file /home/kchung25/anaconda3/envs/p415env/share/psi4/basis/aug-cc-pvtz.gbs 


         ---------------------------------------------------------
                                   SCF
               by Justin Turney, Rob Parrish, Andy Simmonett
                          and Daniel G. A. Smith
                              RHF Reference
                        6 Threads,  57220 MiB Core
         ---------------------------------------------------------

  ==> Geometry <==

    Molecular point group: c1
    Full point group: C2v

    Geometry (in Angstrom), charge = 1, multiplicity = 1:

       Center              X                  Y                   Z               Mass       
    ------------   -----------------  -----------------  -----------------  -----------------
      Gh(O)           0.000000000000     0.000000000000     0.000000000000    15.994914619570
      Gh(H)          -0.591931000000     0.756733000000     0.000000000000     1.007825032230
      Gh(H)          -0.591931000000    -0.756733000000     0.000000000000     1.007825032230
         K            2.959466000000     0.000000000000     0.000000000000    38.963706486400

  Running in c1 symmetry.

  Rotational constants: A =     14.60481  B =      0.04930  C =      0.04913 [cm^-1]
  Rotational constants: A = 437841.29126  B =   1477.85686  C =   1472.88539 [MHz]
  Nuclear repulsion =    0.000000000000000

  Charge       = 1
  Multiplicity = 1
  Electrons    = 18
  Nalpha       = 9
  Nbeta        = 9

  ==> Algorithm <==

  SCF Algorithm Type is DF.
  DIIS enabled.
  MOM disabled.
  Fractional occupation disabled.
  Guess Type is SAD.
  Energy threshold   = 1.00e-08
  Density threshold  = 1.00e-08
  Integral threshold = 1.00e-12

  ==> Primary Basis <==

  Basis Set: AUG-CC-PVTZ
    Blend: AUG-CC-PVTZ
    Number of shells: 51
    Number of basis functions: 151
    Number of Cartesian functions: 174
    Spherical Harmonics?: true
    Max angular momentum: 3

   => Loading Basis Set <=

    Name: (AUG-CC-PVTZ AUX)
    Role: JKFIT
    Keyword: DF_BASIS_SCF
    atoms 1   entry O          line   286 file /home/kchung25/anaconda3/envs/p415env/share/psi4/basis/aug-cc-pvtz-jkfit.gbs 
    atoms 2-3 entry H          line    70 file /home/kchung25/anaconda3/envs/p415env/share/psi4/basis/aug-cc-pvtz-jkfit.gbs 
    atoms 4   entry K          line  1152 file /home/kchung25/anaconda3/envs/p415env/share/psi4/basis/def2-universal-jkfit.gbs 

  ==> Integral Setup <==

  ==> DiskDFJK: Density-Fitted J/K Matrices <==

    J tasked:                  Yes
    K tasked:                  Yes
    wK tasked:                  No
    OpenMP threads:              6
    Integrals threads:           6
    Memory [MiB]:            42915
    Algorithm:                Core
    Integral Cache:           LOAD
    Schwarz Cutoff:          1E-12
    Fitting Condition:       1E-10

   => Auxiliary Basis Set <=

  Basis Set: (AUG-CC-PVTZ AUX)
    Blend: AUG-CC-PVTZ-JKFIT + DEF2-UNIVERSAL-JKFIT
    Number of shells: 102
    Number of basis functions: 356
    Number of Cartesian functions: 444
    Spherical Harmonics?: true
    Max angular momentum: 4

  Minimum eigenvalue in the overlap matrix is 1.6838676486E-04.
  Reciprocal condition number of the overlap matrix is 1.9381470723E-05.
    Using symmetric orthogonalization.

  ==> Pre-Iterations <==

  SCF Guess: Superposition of Atomic Densities via on-the-fly atomic UHF (no occupation information).

   -------------------------
    Irrep   Nso     Nmo    
   -------------------------
     A        151     151 
   -------------------------
    Total     151     151
   -------------------------

  ==> Iterations <==

                           Total Energy        Delta E     RMS |[F,P]|

   @DF-RHF iter SAD:  -599.05183508644609   -5.99052e+02   0.00000e+00 
   @DF-RHF iter   1:  -599.01748762865145    3.43475e-02   3.68351e-05 DIIS
   @DF-RHF iter   2:  -599.01750729956245   -1.96709e-05   5.51382e-06 DIIS
   @DF-RHF iter   3:  -599.01750780648695   -5.06924e-07   2.58419e-07 DIIS
   @DF-RHF iter   4:  -599.01750780752127   -1.03432e-09   3.15869e-08 DIIS
   @DF-RHF iter   5:  -599.01750780753866   -1.73941e-11   8.00422e-09 DIIS
  Energy and wave function converged.


  ==> Post-Iterations <==

    Orbital Energies [Eh]
    ---------------------

    Doubly Occupied:                                                      

       1A   -133.753843     2A    -14.709269     3A    -11.739336  
       4A    -11.739334     5A    -11.739333     6A     -1.964379  
       7A     -1.170995     8A     -1.170951     9A     -1.170949  

    Virtual:                                                              

      10A     -0.146973    11A     -0.095560    12A     -0.095554  
      13A     -0.095554    14A     -0.060565    15A     -0.057834  
      16A     -0.057787    17A     -0.057774    18A     -0.057721  
      19A     -0.057721    20A     -0.045539    21A     -0.045535  
      22A     -0.045535    23A     -0.031252    24A     -0.031231  
      25A     -0.031223    26A     -0.031208    27A     -0.031208  
      28A     -0.017986    29A     -0.016518    30A     -0.016203  
      31A     -0.014359    32A     -0.009324    33A     -0.009125  
      34A      0.014301    35A      0.015609    36A      0.016358  
      37A      0.016394    38A      0.016803    39A      0.016934  
      40A      0.016935    41A      0.018049    42A      0.019722  
      43A      0.019727    44A      0.050696    45A      0.052251  
      46A      0.084131    47A      0.095192    48A      0.097726  
      49A      0.100820    50A      0.106199    51A      0.106235  
      52A      0.174629    53A      0.190065    54A      0.192929  
      55A      0.220264    56A      0.222576    57A      0.225847  
      58A      0.226256    59A      0.236403    60A      0.238231  
      61A      0.238512    62A      0.238834    63A      0.241505  
      64A      0.241817    65A      0.244631    66A      0.250005  
      67A      0.281355    68A      0.294202    69A      0.299440  
      70A      0.306564    71A      0.324529    72A      0.332001  
      73A      0.542018    74A      0.583180    75A      0.625861  
      76A      0.660587    77A      0.675523    78A      0.707463  
      79A      0.734172    80A      0.781400    81A      0.783896  
      82A      0.788768    83A      0.829704    84A      0.880987  
      85A      0.916617    86A      0.916833    87A      0.954440  
      88A      1.022911    89A      1.050937    90A      1.054781  
      91A      1.082483    92A      1.101920    93A      1.316762  
      94A      1.349774    95A      1.563265    96A      1.573352  
      97A      1.602703    98A      1.704634    99A      1.742362  
     100A      1.927685   101A      2.193248   102A      2.234939  
     103A      2.345947   104A      2.349628   105A      2.365019  
     106A      2.367496   107A      2.404610   108A      2.567852  
     109A      2.689618   110A      3.020063   111A      3.025640  
     112A      3.059971   113A      3.150667   114A      3.176028  
     115A      3.383889   116A      3.517894   117A      4.208892  
     118A      4.331270   119A      4.333886   120A      4.450722  
     121A      4.526189   122A      4.530449   123A      4.744856  
     124A      4.746605   125A      4.751623   126A      5.056910  
     127A      5.395539   128A      5.459425   129A      5.489884  
     130A      5.680580   131A      5.937540   132A      6.234413  
     133A      6.465491   134A      6.907226   135A      7.484250  
     136A      7.642442   137A      7.883286   138A      7.987786  
     139A      8.106081   140A      8.560544   141A      8.656405  
     142A      9.531954   143A      9.696292   144A      9.816631  
     145A     10.046345   146A     11.063868   147A     11.444700  
     148A     11.939455   149A     13.340255   150A     13.641292  
     151A     64.436419  

    Final Occupation by Irrep:
              A 
    DOCC [     9 ]
    NA   [     9 ]
    NB   [     9 ]

  @DF-RHF Final Energy:  -599.01750780753866

   => Energetics <=

    Nuclear Repulsion Energy =              0.0000000000000000
    One-Electron Energy =                -819.7182382118658097
    Two-Electron Energy =                 220.7007304043271745
    Total Energy =                       -599.0175078075386637

Computation Completed


Properties will be evaluated at   0.000000,   0.000000,   0.000000 [a0]

Properties computed using the SCF density matrix


 Multipole Moments:

 ------------------------------------------------------------------------------------
     Multipole            Electronic (a.u.)      Nuclear  (a.u.)        Total (a.u.)
 ------------------------------------------------------------------------------------

 L = 1.  Multiply by 2.5417464519 to convert [e a0] to [Debye]
 Dipole X            :       -100.6666979          106.2590241            5.5923262
 Dipole Y            :          0.0000000            0.0000000            0.0000000
 Dipole Z            :         -0.0000000            0.0000000           -0.0000000
 Magnitude           :                                                    5.5923262

 ------------------------------------------------------------------------------------

*** tstop() called on moses-razer at Fri Dec 29 17:30:16 2023
Module time:
	user time   =       9.53 seconds =       0.16 minutes
	system time =       2.09 seconds =       0.03 minutes
	total time  =          6 seconds =       0.10 minutes
Total time:
	user time   =      27.50 seconds =       0.46 minutes
	system time =       5.52 seconds =       0.09 minutes
	total time  =         17 seconds =       0.28 minutes
  Constructing Basis Sets for SAPT...

   => Loading Basis Set <=

    Name: (AUG-CC-PVTZ AUX)
    Role: RIFIT
    Keyword: DF_BASIS_SAPT
    atoms 1   entry O          line   264 file /home/kchung25/anaconda3/envs/p415env/share/psi4/basis/aug-cc-pvtz-ri.gbs 
    atoms 2-3 entry H          line    30 file /home/kchung25/anaconda3/envs/p415env/share/psi4/basis/aug-cc-pvtz-ri.gbs 
    atoms 4   entry K          line  1282 file /home/kchung25/anaconda3/envs/p415env/share/psi4/basis/def2-qzvpp-ri.gbs 

   => Loading Basis Set <=

    Name: (AUG-CC-PVTZ AUX)
    Role: JKFIT
    Keyword: DF_BASIS_ELST
    atoms 1   entry O          line   286 file /home/kchung25/anaconda3/envs/p415env/share/psi4/basis/aug-cc-pvtz-jkfit.gbs 
    atoms 2-3 entry H          line    70 file /home/kchung25/anaconda3/envs/p415env/share/psi4/basis/aug-cc-pvtz-jkfit.gbs 
    atoms 4   entry K          line  1152 file /home/kchung25/anaconda3/envs/p415env/share/psi4/basis/def2-universal-jkfit.gbs 


  //>>>>>>>>>>>>>>>>>>>>>>>>>>>>>>>>>>>//
  //               SAPT2+              //
  //<<<<<<<<<<<<<<<<<<<<<<<<<<<<<<<<<<<//


*** tstart() called on moses-razer
*** at Fri Dec 29 17:30:16 2023

        SAPT2+  
    Ed Hohenstein
     6 June 2009

      Orbital Information
  --------------------------
    NSO        =       151
    NMO        =       151
    NRI        =       397
    NOCC A     =         5
    NOCC B     =         9
    FOCC A     =         0
    FOCC B     =         0
    NVIR A     =       146
    NVIR B     =       142

    Estimated memory usage: 109.1 MB

    Natural Orbital Cutoff:   1.000E-06
    Disp(T3) Truncation:            Yes
    CCD (vv|vv) Truncation:         Yes
    MBPT T2 Truncation:             Yes

    Monomer A: 68 virtual orbitals dropped
    Monomer B: 117 virtual orbitals dropped

    Elst10,r            =    -0.023868493770 [Eh]
    Exch10 (S^2)        =     0.003047004566 [Eh]
    Exch10              =     0.003052290524 [Eh]
    Ind20,r (A<-B)      =    -0.006157578838 [Eh]
    Ind20,r (B<-A)      =    -0.000192577406 [Eh]
    Ind20,r             =    -0.006350156244 [Eh]
    Exch-Ind20,r (A<-B) =     0.002324252034 [Eh]
    Exch-Ind20,r (B<-A) =     0.000028526174 [Eh]
    Exch-Ind20,r        =     0.002352778208 [Eh]
    Disp20              =    -0.001296186810 [Eh]
    Disp20 (NO)         =    -0.001174158635 [Eh]
    Exch-Disp20         =     0.000108382040 [Eh]
    Elst12,r            =     0.001245352063 [Eh]
    Exch11              =     0.000018378411 [Eh]
    Exch12              =     0.000415113566 [Eh]
    Ind22               =    -0.000888392209 [Eh]
    Disp21              =     0.000164040543 [Eh]
    Disp22 (SDQ)        =    -0.000010489626 [Eh]

    (i =   1 of   9)          0 seconds
    (i =   2 of   9)          0 seconds
    (i =   3 of   9)          0 seconds
    (i =   4 of   9)          0 seconds
    (i =   5 of   9)          0 seconds
    (i =   6 of   9)          0 seconds
    (i =   7 of   9)          0 seconds
    (i =   8 of   9)          0 seconds
    (i =   9 of   9)          0 seconds

    Disp220 (T)         =    -0.000095910204 [Eh]

    (i =   1 of   5)          0 seconds
    (i =   2 of   5)          0 seconds
    (i =   3 of   5)          1 seconds
    (i =   4 of   5)          1 seconds
    (i =   5 of   5)          1 seconds

    Disp202 (T)         =    -0.000030411483 [Eh]

    Disp22 (T)          =    -0.000126321687 [Eh]

    Est. Disp220 (T)    =    -0.000105877977 [Eh]
    Est. Disp202 (T)    =    -0.000033572094 [Eh]

    Est. Disp22 (T)     =    -0.000139450070 [Eh]

    SAPT Results 
  --------------------------------------------------------------------------------------------------------
    Electrostatics                -22.62314171 [mEh]     -14.19623575 [kcal/mol]     -59.39705037 [kJ/mol]
      Elst10,r                    -23.86849377 [mEh]     -14.97770597 [kcal/mol]     -62.66672176 [kJ/mol]
      Elst12,r                      1.24535206 [mEh]       0.78147022 [kcal/mol]       3.26967139 [kJ/mol]

    Exchange                        3.48578250 [mEh]       2.18736154 [kcal/mol]       9.15192069 [kJ/mol]
      Exch10                        3.05229052 [mEh]       1.91534122 [kcal/mol]       8.01378767 [kJ/mol]
      Exch10(S^2)                   3.04700457 [mEh]       1.91202423 [kcal/mol]       7.99990939 [kJ/mol]
      Exch11(S^2)                   0.01837841 [mEh]       0.01153263 [kcal/mol]       0.04825251 [kJ/mol]
      Exch12(S^2)                   0.41511357 [mEh]       0.26048770 [kcal/mol]       1.08988052 [kJ/mol]

    Induction                      -4.74103438 [mEh]      -2.97504399 [kcal/mol]     -12.44758404 [kJ/mol]
      Ind20,r                      -6.35015624 [mEh]      -3.98478320 [kcal/mol]     -16.67233292 [kJ/mol]
      Ind22                        -0.88839221 [mEh]      -0.55747453 [kcal/mol]      -2.33247342 [kJ/mol]
      Exch-Ind20,r                  2.35277821 [mEh]       1.47639061 [kcal/mol]       6.17721833 [kJ/mol]
      Exch-Ind22                    0.32915565 [mEh]       0.20654829 [kcal/mol]       0.86419805 [kJ/mol]
      delta HF,r (2)               -0.18441978 [mEh]      -0.11572516 [kcal/mol]      -0.48419408 [kJ/mol]

    Dispersion                     -1.17370392 [mEh]      -0.73651033 [kcal/mol]      -3.08155922 [kJ/mol]
      Disp20                       -1.29618681 [mEh]      -0.81336950 [kcal/mol]      -3.40313800 [kJ/mol]
      Disp21                        0.16404054 [mEh]       0.10293699 [kcal/mol]       0.43068839 [kJ/mol]
      Disp22 (SDQ)                 -0.01048963 [mEh]      -0.00658234 [kcal/mol]      -0.02754051 [kJ/mol]
      Disp22 (T)                   -0.12632169 [mEh]      -0.07926806 [kcal/mol]      -0.33165754 [kJ/mol]
      Est. Disp22 (T)              -0.13945007 [mEh]      -0.08750624 [kcal/mol]      -0.36612611 [kJ/mol]
      Exch-Disp20                   0.10838204 [mEh]       0.06801076 [kcal/mol]       0.28455701 [kJ/mol]

  Total HF                        -24.99800107 [mEh]     -15.68648249 [kcal/mol]     -65.63224276 [kJ/mol]
  Total SAPT0                     -26.18580584 [mEh]     -16.43184124 [kcal/mol]     -68.75082375 [kJ/mol]
  Total SAPT2                     -25.06619835 [mEh]     -15.72927694 [kcal/mol]     -65.81129471 [kJ/mol]
  Total SAPT2+                    -25.05209750 [mEh]     -15.72042852 [kcal/mol]     -65.77427294 [kJ/mol]

  Special recipe for scaled SAPT0 (see Manual):
    Electrostatics sSAPT0         -23.86849377 [mEh]     -14.97770597 [kcal/mol]     -62.66672176 [kJ/mol]
    Exchange sSAPT0                 3.05229052 [mEh]       1.91534122 [kcal/mol]       8.01378767 [kJ/mol]
    Induction sSAPT0               -4.16953174 [mEh]      -2.61642066 [kcal/mol]     -10.94710406 [kJ/mol]
    Dispersion sSAPT0              -1.18723973 [mEh]      -0.74500418 [kcal/mol]      -3.11709747 [kJ/mol]
  Total sSAPT0                    -26.17297471 [mEh]     -16.42378959 [kcal/mol]     -68.71713563 [kJ/mol]
  --------------------------------------------------------------------------------------------------------

*** tstop() called on moses-razer at Fri Dec 29 17:30:30 2023
Module time:
	user time   =      38.08 seconds =       0.63 minutes
	system time =       2.66 seconds =       0.04 minutes
	total time  =         14 seconds =       0.23 minutes
Total time:
	user time   =      66.30 seconds =       1.10 minutes
	system time =       8.18 seconds =       0.14 minutes
	total time  =         31 seconds =       0.52 minutes

    Psi4 stopped on: Friday, 29 December 2023 05:30PM
    Psi4 wall time for execution: 0:00:30.34

*** Psi4 exiting successfully. Buy a developer a beer!
