
    -----------------------------------------------------------------------
          Psi4: An Open-Source Ab Initio Electronic Structure Package
                               Psi4 1.9 release

                         Git: Rev {} zzzzzzz 


    D. G. A. Smith, L. A. Burns, A. C. Simmonett, R. M. Parrish,
    M. C. Schieber, R. Galvelis, P. Kraus, H. Kruse, R. Di Remigio,
    A. Alenaizan, A. M. James, S. Lehtola, J. P. Misiewicz, M. Scheurer,
    R. A. Shaw, J. B. Schriber, Y. Xie, Z. L. Glick, D. A. Sirianni,
    J. S. O'Brien, J. M. Waldrop, A. Kumar, E. G. Hohenstein,
    B. P. Pritchard, B. R. Brooks, H. F. Schaefer III, A. Yu. Sokolov,
    K. Patkowski, A. E. DePrince III, U. Bozkaya, R. A. King,
    F. A. Evangelista, J. M. Turney, T. D. Crawford, C. D. Sherrill,
    J. Chem. Phys. 152(18) 184108 (2020). https://doi.org/10.1063/5.0006002

                            Additional Code Authors
    E. T. Seidl, C. L. Janssen, E. F. Valeev, M. L. Leininger,
    J. F. Gonthier, R. M. Richard, H. R. McAlexander, M. Saitow, X. Wang,
    P. Verma, M. H. Lechner, A. Jiang, S. Behnle, A. G. Heide,
    M. F. Herbst, and D. L. Poole

             Previous Authors, Complete List of Code Contributors,
                       and Citations for Specific Modules
    https://github.com/psi4/psi4/blob/master/codemeta.json
    https://github.com/psi4/psi4/graphs/contributors
    http://psicode.org/psi4manual/master/introduction.html#citing-psifour

    -----------------------------------------------------------------------


    Psi4 started on: Friday, 29 December 2023 05:33PM

    Process ID: 158820
    Host:       moses-razer
    PSIDATADIR: /home/kchung25/anaconda3/envs/psi4_19/share/psi4
    Memory:     500.0 MiB
    Threads:    6
    
  ==> Input File <==

--------------------------------------------------------------------------
MEMORY 60 GB

molecule dimer {
0 1
O      0.000000     0.000000     0.000000
H     -0.159063     0.944263     0.000000
H      1.060028    -0.036721     0.000000
--
-1 1
F      3.154306     0.000000     0.000000

units ang
no_reorient
no_com
symmetry c1
}

set {
basis        aug-cc-pVTZ
scf_type     df
}

energy("sapt2+")
--------------------------------------------------------------------------

  Memory set to  55.879 GiB by Python driver.

Scratch directory: /scratch/
   => Loading Basis Set <=

    Name: AUG-CC-PVTZ
    Role: ORBITAL
    Keyword: BASIS
    atoms 1   entry O          line   331 file /home/kchung25/anaconda3/envs/p415env/share/psi4/basis/aug-cc-pvtz.gbs 
    atoms 2-3 entry H          line    40 file /home/kchung25/anaconda3/envs/p415env/share/psi4/basis/aug-cc-pvtz.gbs 
    atoms 4   entry F          line   377 file /home/kchung25/anaconda3/envs/p415env/share/psi4/basis/aug-cc-pvtz.gbs 

   => Loading Basis Set <=

    Name: AUG-CC-PVTZ
    Role: ORBITAL
    Keyword: BASIS
    atoms 1   entry O          line   331 file /home/kchung25/anaconda3/envs/p415env/share/psi4/basis/aug-cc-pvtz.gbs 
    atoms 2-3 entry H          line    40 file /home/kchung25/anaconda3/envs/p415env/share/psi4/basis/aug-cc-pvtz.gbs 
    atoms 4   entry F          line   377 file /home/kchung25/anaconda3/envs/p415env/share/psi4/basis/aug-cc-pvtz.gbs 


  //>>>>>>>>>>>>>>>>>>>>>>>>>>>>>>>>>>>//
  //              Dimer HF             //
  //<<<<<<<<<<<<<<<<<<<<<<<<<<<<<<<<<<<//

   => Libint2 <=

    Primary   basis highest AM E, G, H:  5, 4, 3
    Auxiliary basis highest AM E, G, H:  6, 5, 4
    Onebody   basis highest AM E, G, H:  6, 5, 4
    Solid Harmonics ordering:            gaussian

*** tstart() called on moses-razer
*** at Fri Dec 29 17:33:16 2023

   => Loading Basis Set <=

    Name: AUG-CC-PVTZ
    Role: ORBITAL
    Keyword: BASIS
    atoms 1   entry O          line   331 file /home/kchung25/anaconda3/envs/p415env/share/psi4/basis/aug-cc-pvtz.gbs 
    atoms 2-3 entry H          line    40 file /home/kchung25/anaconda3/envs/p415env/share/psi4/basis/aug-cc-pvtz.gbs 
    atoms 4   entry F          line   377 file /home/kchung25/anaconda3/envs/p415env/share/psi4/basis/aug-cc-pvtz.gbs 


         ---------------------------------------------------------
                                   SCF
               by Justin Turney, Rob Parrish, Andy Simmonett
                          and Daniel G. A. Smith
                              RHF Reference
                        6 Threads,  57220 MiB Core
         ---------------------------------------------------------

  ==> Geometry <==

    Molecular point group: c1
    Full point group: Cs

    Geometry (in Angstrom), charge = -1, multiplicity = 1:

       Center              X                  Y                   Z               Mass       
    ------------   -----------------  -----------------  -----------------  -----------------
         O            0.000000000000     0.000000000000     0.000000000000    15.994914619570
         H           -0.159063000000     0.944263000000     0.000000000000     1.007825032230
         H            1.060028000000    -0.036721000000     0.000000000000     1.007825032230
         F            3.154306000000     0.000000000000     0.000000000000    18.998403162730

  Running in c1 symmetry.

  Rotational constants: A =     18.73535  B =      0.08864  C =      0.08822 [cm^-1]
  Rotational constants: A = 561671.57534  B =   2657.29466  C =   2644.78208 [MHz]
  Nuclear repulsion =   24.485553717019876

  Charge       = -1
  Multiplicity = 1
  Electrons    = 20
  Nalpha       = 10
  Nbeta        = 10

  ==> Algorithm <==

  SCF Algorithm Type is DF.
  DIIS enabled.
  MOM disabled.
  Fractional occupation disabled.
  Guess Type is SAD.
  Energy threshold   = 1.00e-08
  Density threshold  = 1.00e-08
  Integral threshold = 1.00e-12

  ==> Primary Basis <==

  Basis Set: AUG-CC-PVTZ
    Blend: AUG-CC-PVTZ
    Number of shells: 46
    Number of basis functions: 138
    Number of Cartesian functions: 160
    Spherical Harmonics?: true
    Max angular momentum: 3

   => Loading Basis Set <=

    Name: (AUG-CC-PVTZ AUX)
    Role: JKFIT
    Keyword: DF_BASIS_SCF
    atoms 1   entry O          line   286 file /home/kchung25/anaconda3/envs/p415env/share/psi4/basis/aug-cc-pvtz-jkfit.gbs 
    atoms 2-3 entry H          line    70 file /home/kchung25/anaconda3/envs/p415env/share/psi4/basis/aug-cc-pvtz-jkfit.gbs 
    atoms 4   entry F          line   348 file /home/kchung25/anaconda3/envs/p415env/share/psi4/basis/aug-cc-pvtz-jkfit.gbs 

  ==> Integral Setup <==

  ==> DiskDFJK: Density-Fitted J/K Matrices <==

    J tasked:                  Yes
    K tasked:                  Yes
    wK tasked:                  No
    OpenMP threads:              6
    Integrals threads:           6
    Memory [MiB]:            42915
    Algorithm:                Core
    Integral Cache:           SAVE
    Schwarz Cutoff:          1E-12
    Fitting Condition:       1E-10

   => Auxiliary Basis Set <=

  Basis Set: (AUG-CC-PVTZ AUX)
    Blend: AUG-CC-PVTZ-JKFIT
    Number of shells: 88
    Number of basis functions: 300
    Number of Cartesian functions: 372
    Spherical Harmonics?: true
    Max angular momentum: 4

  Minimum eigenvalue in the overlap matrix is 3.5768089897E-04.
  Reciprocal condition number of the overlap matrix is 5.0459809302E-05.
    Using symmetric orthogonalization.

  ==> Pre-Iterations <==

  SCF Guess: Superposition of Atomic Densities via on-the-fly atomic UHF (no occupation information).

   -------------------------
    Irrep   Nso     Nmo    
   -------------------------
     A        138     138 
   -------------------------
    Total     138     138
   -------------------------

  ==> Iterations <==

                           Total Energy        Delta E     RMS |[F,P]|

   @DF-RHF iter SAD:  -174.27518920253857   -1.74275e+02   0.00000e+00 
   @DF-RHF iter   1:  -175.35087826815987   -1.07569e+00   5.03158e-03 DIIS/ADIIS
   @DF-RHF iter   2:  -175.43682707671951   -8.59488e-02   4.20643e-03 DIIS/ADIIS
   @DF-RHF iter   3:  -175.53085004724565   -9.40230e-02   2.48438e-04 DIIS/ADIIS
   @DF-RHF iter   4:  -175.53134152035935   -4.91473e-04   1.43783e-04 DIIS/ADIIS
   @DF-RHF iter   5:  -175.53148807561456   -1.46555e-04   2.38590e-05 DIIS
   @DF-RHF iter   6:  -175.53149675128427   -8.67567e-06   5.81308e-06 DIIS
   @DF-RHF iter   7:  -175.53149744871757   -6.97433e-07   1.37015e-06 DIIS
   @DF-RHF iter   8:  -175.53149750249369   -5.37761e-08   3.31611e-07 DIIS
   @DF-RHF iter   9:  -175.53149750516832   -2.67462e-09   6.09014e-08 DIIS
   @DF-RHF iter  10:  -175.53149750526285   -9.45306e-11   1.49780e-08 DIIS
   @DF-RHF iter  11:  -175.53149750527024   -7.38964e-12   3.75925e-09 DIIS
  Energy and wave function converged.


  ==> Post-Iterations <==

    Orbital Energies [Eh]
    ---------------------

    Doubly Occupied:                                                      

       1A    -25.870140     2A    -20.388055     3A     -1.149202  
       4A     -1.114186     5A     -0.502366     6A     -0.400665  
       7A     -0.324753     8A     -0.218902     9A     -0.218593  
      10A     -0.218592  

    Virtual:                                                              

      11A      0.139821    12A      0.198738    13A      0.276826  
      14A      0.289363    15A      0.300058    16A      0.339481  
      17A      0.389712    18A      0.410474    19A      0.420581  
      20A      0.420791    21A      0.435105    22A      0.472221  
      23A      0.518198    24A      0.528539    25A      0.583925  
      26A      0.585863    27A      0.647602    28A      0.722344  
      29A      0.858341    30A      0.860099    31A      0.880127  
      32A      0.890379    33A      0.913965    34A      1.009846  
      35A      1.027833    36A      1.062459    37A      1.077644  
      38A      1.101725    39A      1.113975    40A      1.128081  
      41A      1.144428    42A      1.182318    43A      1.201699  
      44A      1.212157    45A      1.216059    46A      1.269135  
      47A      1.359073    48A      1.387392    49A      1.394046  
      50A      1.404995    51A      1.440775    52A      1.445192  
      53A      1.510991    54A      1.598144    55A      1.692784  
      56A      1.707075    57A      1.719035    58A      1.798835  
      59A      1.817764    60A      2.034503    61A      2.073750  
      62A      2.203125    63A      2.277245    64A      2.451886  
      65A      2.499126    66A      2.530646    67A      2.595369  
      68A      2.599085    69A      2.637888    70A      2.699862  
      71A      2.767381    72A      2.897067    73A      2.956846  
      74A      2.988368    75A      3.023391    76A      3.068703  
      77A      3.256596    78A      3.257707    79A      3.298426  
      80A      3.298448    81A      3.322287    82A      3.329646  
      83A      3.331934    84A      3.339935    85A      3.389808  
      86A      3.591116    87A      3.614176    88A      3.649619  
      89A      3.867622    90A      4.088196    91A      4.198737  
      92A      4.282575    93A      4.306034    94A      4.413636  
      95A      4.428659    96A      4.543918    97A      4.563931  
      98A      4.600794    99A      4.735975   100A      4.921013  
     101A      4.999441   102A      5.174242   103A      5.246111  
     104A      5.393602   105A      5.449821   106A      5.613859  
     107A      5.686948   108A      5.696880   109A      5.744870  
     110A      6.029623   111A      6.364393   112A      6.728182  
     113A      6.888841   114A      7.047150   115A      7.211643  
     116A      7.396803   117A      7.423707   118A      7.472949  
     119A      7.537988   120A      7.592495   121A      7.724818  
     122A      8.018529   123A      8.090342   124A      8.733248  
     125A      9.240483   126A      9.240501   127A      9.253684  
     128A      9.254440   129A      9.362164   130A      9.377219  
     131A      9.430325   132A      9.730490   133A      9.730829  
     134A      9.808726   135A      9.830426   136A      9.898148  
     137A     11.987340   138A     15.375881  

    Final Occupation by Irrep:
              A 
    DOCC [    10 ]
    NA   [    10 ]
    NB   [    10 ]

  @DF-RHF Final Energy:  -175.53149750527024

   => Energetics <=

    Nuclear Repulsion Energy =             24.4855537170198758
    One-Electron Energy =                -299.2231937038212664
    Two-Electron Energy =                  99.2061424815311739
    Total Energy =                       -175.5314975052702380

Computation Completed


Properties will be evaluated at   0.000000,   0.000000,   0.000000 [a0]

Properties computed using the SCF density matrix


 Multipole Moments:

 ------------------------------------------------------------------------------------
     Multipole            Electronic (a.u.)      Nuclear  (a.u.)        Total (a.u.)
 ------------------------------------------------------------------------------------

 L = 1.  Multiply by 2.5417464519 to convert [e a0] to [Debye]
 Dipole X            :        -60.2601957           55.3495472           -4.9106485
 Dipole Y            :         -1.1642724            1.7150058            0.5507334
 Dipole Z            :          0.0000000            0.0000000            0.0000000
 Magnitude           :                                                    4.9414346

 ------------------------------------------------------------------------------------

*** tstop() called on moses-razer at Fri Dec 29 17:33:17 2023
Module time:
	user time   =       4.43 seconds =       0.07 minutes
	system time =       0.11 seconds =       0.00 minutes
	total time  =          1 seconds =       0.02 minutes
Total time:
	user time   =       4.43 seconds =       0.07 minutes
	system time =       0.11 seconds =       0.00 minutes
	total time  =          1 seconds =       0.02 minutes

  //>>>>>>>>>>>>>>>>>>>>>>>>>>>>>>>>>>>//
  //            Monomer A HF           //
  //<<<<<<<<<<<<<<<<<<<<<<<<<<<<<<<<<<<//

   => Libint2 <=

    Primary   basis highest AM E, G, H:  5, 4, 3
    Auxiliary basis highest AM E, G, H:  6, 5, 4
    Onebody   basis highest AM E, G, H:  6, 5, 4
    Solid Harmonics ordering:            gaussian

*** tstart() called on moses-razer
*** at Fri Dec 29 17:33:17 2023

   => Loading Basis Set <=

    Name: AUG-CC-PVTZ
    Role: ORBITAL
    Keyword: BASIS
    atoms 1   entry O          line   331 file /home/kchung25/anaconda3/envs/p415env/share/psi4/basis/aug-cc-pvtz.gbs 
    atoms 2-3 entry H          line    40 file /home/kchung25/anaconda3/envs/p415env/share/psi4/basis/aug-cc-pvtz.gbs 
    atoms 4   entry F          line   377 file /home/kchung25/anaconda3/envs/p415env/share/psi4/basis/aug-cc-pvtz.gbs 


         ---------------------------------------------------------
                                   SCF
               by Justin Turney, Rob Parrish, Andy Simmonett
                          and Daniel G. A. Smith
                              RHF Reference
                        6 Threads,  57220 MiB Core
         ---------------------------------------------------------

  ==> Geometry <==

    Molecular point group: c1
    Full point group: Cs

    Geometry (in Angstrom), charge = 0, multiplicity = 1:

       Center              X                  Y                   Z               Mass       
    ------------   -----------------  -----------------  -----------------  -----------------
         O            0.000000000000     0.000000000000     0.000000000000    15.994914619570
         H           -0.159063000000     0.944263000000     0.000000000000     1.007825032230
         H            1.060028000000    -0.036721000000     0.000000000000     1.007825032230
      Gh(F)           3.154306000000     0.000000000000     0.000000000000    18.998403162730

  Running in c1 symmetry.

  Rotational constants: A =     18.73535  B =      0.08864  C =      0.08822 [cm^-1]
  Rotational constants: A = 561671.57534  B =   2657.29466  C =   2644.78208 [MHz]
  Nuclear repulsion =    8.750489033032350

  Charge       = 0
  Multiplicity = 1
  Electrons    = 10
  Nalpha       = 5
  Nbeta        = 5

  ==> Algorithm <==

  SCF Algorithm Type is DF.
  DIIS enabled.
  MOM disabled.
  Fractional occupation disabled.
  Guess Type is SAD.
  Energy threshold   = 1.00e-08
  Density threshold  = 1.00e-08
  Integral threshold = 1.00e-12

  ==> Primary Basis <==

  Basis Set: AUG-CC-PVTZ
    Blend: AUG-CC-PVTZ
    Number of shells: 46
    Number of basis functions: 138
    Number of Cartesian functions: 160
    Spherical Harmonics?: true
    Max angular momentum: 3

   => Loading Basis Set <=

    Name: (AUG-CC-PVTZ AUX)
    Role: JKFIT
    Keyword: DF_BASIS_SCF
    atoms 1   entry O          line   286 file /home/kchung25/anaconda3/envs/p415env/share/psi4/basis/aug-cc-pvtz-jkfit.gbs 
    atoms 2-3 entry H          line    70 file /home/kchung25/anaconda3/envs/p415env/share/psi4/basis/aug-cc-pvtz-jkfit.gbs 
    atoms 4   entry F          line   348 file /home/kchung25/anaconda3/envs/p415env/share/psi4/basis/aug-cc-pvtz-jkfit.gbs 

  ==> Integral Setup <==

  ==> DiskDFJK: Density-Fitted J/K Matrices <==

    J tasked:                  Yes
    K tasked:                  Yes
    wK tasked:                  No
    OpenMP threads:              6
    Integrals threads:           6
    Memory [MiB]:            42915
    Algorithm:                Core
    Integral Cache:           LOAD
    Schwarz Cutoff:          1E-12
    Fitting Condition:       1E-10

   => Auxiliary Basis Set <=

  Basis Set: (AUG-CC-PVTZ AUX)
    Blend: AUG-CC-PVTZ-JKFIT
    Number of shells: 88
    Number of basis functions: 300
    Number of Cartesian functions: 372
    Spherical Harmonics?: true
    Max angular momentum: 4

  Minimum eigenvalue in the overlap matrix is 3.5768089897E-04.
  Reciprocal condition number of the overlap matrix is 5.0459809302E-05.
    Using symmetric orthogonalization.

  ==> Pre-Iterations <==

  SCF Guess: Superposition of Atomic Densities via on-the-fly atomic UHF (no occupation information).

   -------------------------
    Irrep   Nso     Nmo    
   -------------------------
     A        138     138 
   -------------------------
    Total     138     138
   -------------------------

  ==> Iterations <==

                           Total Energy        Delta E     RMS |[F,P]|

   @DF-RHF iter SAD:   -75.41814221454513   -7.54181e+01   0.00000e+00 
   @DF-RHF iter   1:   -75.95992082173949   -5.41779e-01   3.39450e-03 DIIS/ADIIS
   @DF-RHF iter   2:   -76.01148031251986   -5.15595e-02   2.46332e-03 DIIS/ADIIS
   @DF-RHF iter   3:   -76.04805227034552   -3.65720e-02   1.69629e-04 DIIS/ADIIS
   @DF-RHF iter   4:   -76.04854298751602   -4.90717e-04   4.57413e-05 DIIS
   @DF-RHF iter   5:   -76.04858385130221   -4.08638e-05   1.12469e-05 DIIS
   @DF-RHF iter   6:   -76.04858763065242   -3.77935e-06   2.44768e-06 DIIS
   @DF-RHF iter   7:   -76.04858781805254   -1.87400e-07   4.06905e-07 DIIS
   @DF-RHF iter   8:   -76.04858782240784   -4.35530e-09   7.62410e-08 DIIS
   @DF-RHF iter   9:   -76.04858782254148   -1.33639e-10   2.16841e-08 DIIS
   @DF-RHF iter  10:   -76.04858782255232   -1.08429e-11   4.15237e-09 DIIS
  Energy and wave function converged.


  ==> Post-Iterations <==

    Orbital Energies [Eh]
    ---------------------

    Doubly Occupied:                                                      

       1A    -20.576904     2A     -1.332665     3A     -0.686440  
       4A     -0.579413     5A     -0.507556  

    Virtual:                                                              

       6A      0.027979     7A      0.047304     8A      0.121883  
       9A      0.139661    10A      0.148289    11A      0.161917  
      12A      0.182115    13A      0.184665    14A      0.193216  
      15A      0.228281    16A      0.281107    17A      0.282270  
      18A      0.290729    19A      0.332373    20A      0.354401  
      21A      0.394023    22A      0.457202    23A      0.559342  
      24A      0.638130    25A      0.674380    26A      0.684875  
      27A      0.723837    28A      0.727876    29A      0.743969  
      30A      0.758577    31A      0.777258    32A      0.798172  
      33A      0.829241    34A      0.850840    35A      0.898301  
      36A      0.907627    37A      0.935848    38A      0.939224  
      39A      0.950419    40A      0.977994    41A      0.982189  
      42A      1.022892    43A      1.026051    44A      1.030953  
      45A      1.074962    46A      1.192952    47A      1.196715  
      48A      1.204862    49A      1.278804    50A      1.321725  
      51A      1.400445    52A      1.505328    53A      1.533440  
      54A      1.580288    55A      1.588203    56A      1.849291  
      57A      1.873977    58A      2.001094    59A      2.225469  
      60A      2.275279    61A      2.351463    62A      2.354601  
      63A      2.420004    64A      2.420092    65A      2.471877  
      66A      2.527634    67A      2.722715    68A      2.748341  
      69A      2.781878    70A      2.833296    71A      2.879494  
      72A      3.004268    73A      3.014802    74A      3.059836  
      75A      3.059882    76A      3.086552    77A      3.091782  
      78A      3.142765    79A      3.177890    80A      3.329993  
      81A      3.357557    82A      3.427933    83A      3.535294  
      84A      3.537069    85A      3.668018    86A      3.681220  
      87A      3.732484    88A      3.808955    89A      4.003155  
      90A      4.084955    91A      4.099344    92A      4.106164  
      93A      4.237492    94A      4.242525    95A      4.367647  
      96A      4.373952    97A      4.399479    98A      4.545677  
      99A      4.758697   100A      4.816571   101A      4.974104  
     102A      5.048113   103A      5.199810   104A      5.280395  
     105A      5.435180   106A      5.574968   107A      6.176239  
     108A      6.540074   109A      6.707144   110A      6.863383  
     111A      7.025037   112A      7.212644   113A      7.241699  
     114A      7.294165   115A      7.354541   116A      7.408242  
     117A      7.539319   118A      7.834292   119A      7.908224  
     120A      8.544479   121A      9.713143   122A     10.128859  
     123A     10.128879   124A     10.143276   125A     10.143990  
     126A     10.262332   127A     10.278168   128A     10.422358  
     129A     12.922978   130A     12.923266   131A     12.988358  
     132A     13.006786   133A     13.048687   134A     14.225331  
     135A     14.237343   136A     14.482019   137A     15.226010  
     138A     68.281782  

    Final Occupation by Irrep:
              A 
    DOCC [     5 ]
    NA   [     5 ]
    NB   [     5 ]

  @DF-RHF Final Energy:   -76.04858782255232

   => Energetics <=

    Nuclear Repulsion Energy =              8.7504890330323502
    One-Electron Energy =                -122.2321977867929803
    Two-Electron Energy =                  37.4331209312082933
    Total Energy =                        -76.0485878225523351

Computation Completed


Properties will be evaluated at   0.000000,   0.000000,   0.000000 [a0]

Properties computed using the SCF density matrix


 Multipole Moments:

 ------------------------------------------------------------------------------------
     Multipole            Electronic (a.u.)      Nuclear  (a.u.)        Total (a.u.)
 ------------------------------------------------------------------------------------

 L = 1.  Multiply by 2.5417464519 to convert [e a0] to [Debye]
 Dipole X            :         -1.1411761            1.7025771            0.5614010
 Dipole Y            :         -1.1220402            1.7150058            0.5929657
 Dipole Z            :         -0.0000000            0.0000000           -0.0000000
 Magnitude           :                                                    0.8165656

 ------------------------------------------------------------------------------------

*** tstop() called on moses-razer at Fri Dec 29 17:33:17 2023
Module time:
	user time   =       2.86 seconds =       0.05 minutes
	system time =       0.03 seconds =       0.00 minutes
	total time  =          0 seconds =       0.00 minutes
Total time:
	user time   =       7.32 seconds =       0.12 minutes
	system time =       0.14 seconds =       0.00 minutes
	total time  =          1 seconds =       0.02 minutes

  //>>>>>>>>>>>>>>>>>>>>>>>>>>>>>>>>>>>//
  //            Monomer B HF           //
  //<<<<<<<<<<<<<<<<<<<<<<<<<<<<<<<<<<<//

   => Libint2 <=

    Primary   basis highest AM E, G, H:  5, 4, 3
    Auxiliary basis highest AM E, G, H:  6, 5, 4
    Onebody   basis highest AM E, G, H:  6, 5, 4
    Solid Harmonics ordering:            gaussian

*** tstart() called on moses-razer
*** at Fri Dec 29 17:33:17 2023

   => Loading Basis Set <=

    Name: AUG-CC-PVTZ
    Role: ORBITAL
    Keyword: BASIS
    atoms 1   entry O          line   331 file /home/kchung25/anaconda3/envs/p415env/share/psi4/basis/aug-cc-pvtz.gbs 
    atoms 2-3 entry H          line    40 file /home/kchung25/anaconda3/envs/p415env/share/psi4/basis/aug-cc-pvtz.gbs 
    atoms 4   entry F          line   377 file /home/kchung25/anaconda3/envs/p415env/share/psi4/basis/aug-cc-pvtz.gbs 


         ---------------------------------------------------------
                                   SCF
               by Justin Turney, Rob Parrish, Andy Simmonett
                          and Daniel G. A. Smith
                              RHF Reference
                        6 Threads,  57220 MiB Core
         ---------------------------------------------------------

  ==> Geometry <==

    Molecular point group: c1
    Full point group: Cs

    Geometry (in Angstrom), charge = -1, multiplicity = 1:

       Center              X                  Y                   Z               Mass       
    ------------   -----------------  -----------------  -----------------  -----------------
      Gh(O)           0.000000000000     0.000000000000     0.000000000000    15.994914619570
      Gh(H)          -0.159063000000     0.944263000000     0.000000000000     1.007825032230
      Gh(H)           1.060028000000    -0.036721000000     0.000000000000     1.007825032230
         F            3.154306000000     0.000000000000     0.000000000000    18.998403162730

  Running in c1 symmetry.

  Rotational constants: A =     18.73535  B =      0.08864  C =      0.08822 [cm^-1]
  Rotational constants: A = 561671.57534  B =   2657.29466  C =   2644.78208 [MHz]
  Nuclear repulsion =    0.000000000000000

  Charge       = -1
  Multiplicity = 1
  Electrons    = 10
  Nalpha       = 5
  Nbeta        = 5

  ==> Algorithm <==

  SCF Algorithm Type is DF.
  DIIS enabled.
  MOM disabled.
  Fractional occupation disabled.
  Guess Type is SAD.
  Energy threshold   = 1.00e-08
  Density threshold  = 1.00e-08
  Integral threshold = 1.00e-12

  ==> Primary Basis <==

  Basis Set: AUG-CC-PVTZ
    Blend: AUG-CC-PVTZ
    Number of shells: 46
    Number of basis functions: 138
    Number of Cartesian functions: 160
    Spherical Harmonics?: true
    Max angular momentum: 3

   => Loading Basis Set <=

    Name: (AUG-CC-PVTZ AUX)
    Role: JKFIT
    Keyword: DF_BASIS_SCF
    atoms 1   entry O          line   286 file /home/kchung25/anaconda3/envs/p415env/share/psi4/basis/aug-cc-pvtz-jkfit.gbs 
    atoms 2-3 entry H          line    70 file /home/kchung25/anaconda3/envs/p415env/share/psi4/basis/aug-cc-pvtz-jkfit.gbs 
    atoms 4   entry F          line   348 file /home/kchung25/anaconda3/envs/p415env/share/psi4/basis/aug-cc-pvtz-jkfit.gbs 

  ==> Integral Setup <==

  ==> DiskDFJK: Density-Fitted J/K Matrices <==

    J tasked:                  Yes
    K tasked:                  Yes
    wK tasked:                  No
    OpenMP threads:              6
    Integrals threads:           6
    Memory [MiB]:            42915
    Algorithm:                Core
    Integral Cache:           LOAD
    Schwarz Cutoff:          1E-12
    Fitting Condition:       1E-10

   => Auxiliary Basis Set <=

  Basis Set: (AUG-CC-PVTZ AUX)
    Blend: AUG-CC-PVTZ-JKFIT
    Number of shells: 88
    Number of basis functions: 300
    Number of Cartesian functions: 372
    Spherical Harmonics?: true
    Max angular momentum: 4

  Minimum eigenvalue in the overlap matrix is 3.5768089897E-04.
  Reciprocal condition number of the overlap matrix is 5.0459809302E-05.
    Using symmetric orthogonalization.

  ==> Pre-Iterations <==

  SCF Guess: Superposition of Atomic Densities via on-the-fly atomic UHF (no occupation information).

   -------------------------
    Irrep   Nso     Nmo    
   -------------------------
     A        138     138 
   -------------------------
    Total     138     138
   -------------------------

  ==> Iterations <==

                           Total Energy        Delta E     RMS |[F,P]|

   @DF-RHF iter SAD:   -98.82535131606397   -9.88254e+01   0.00000e+00 
   @DF-RHF iter   1:   -99.33788136655903   -5.12530e-01   3.95755e-03 DIIS/ADIIS
   @DF-RHF iter   2:   -99.37439288925694   -3.65115e-02   3.83900e-03 DIIS/ADIIS
   @DF-RHF iter   3:   -99.45078547595108   -7.63926e-02   1.22052e-04 DIIS/ADIIS
   @DF-RHF iter   4:   -99.45084865396957   -6.31780e-05   4.55752e-05 DIIS
   @DF-RHF iter   5:   -99.45085883701168   -1.01830e-05   3.59046e-06 DIIS
   @DF-RHF iter   6:   -99.45085897854378   -1.41532e-07   2.71556e-07 DIIS
   @DF-RHF iter   7:   -99.45085897962598   -1.08220e-09   4.28764e-08 DIIS
   @DF-RHF iter   8:   -99.45085897969341   -6.74305e-11   1.18927e-08 DIIS
   @DF-RHF iter   9:   -99.45085897969854   -5.13012e-12   1.25913e-09 DIIS
  Energy and wave function converged.


  ==> Post-Iterations <==

    Orbital Energies [Eh]
    ---------------------

    Doubly Occupied:                                                      

       1A    -25.833737     2A     -1.076018     3A     -0.180998  
       4A     -0.180944     5A     -0.180941  

    Virtual:                                                              

       6A      0.135588     7A      0.193256     8A      0.255453  
       9A      0.258276    10A      0.268214    11A      0.313339  
      12A      0.399749    13A      0.419426    14A      0.425407  
      15A      0.430021    16A      0.453078    17A      0.484980  
      18A      0.509436    19A      0.527857    20A      0.549211  
      21A      0.607965    22A      0.636135    23A      0.681865  
      24A      0.810966    25A      0.829956    26A      0.923946  
      27A      0.954678    28A      0.960841    29A      1.000077  
      30A      1.013291    31A      1.044603    32A      1.071583  
      33A      1.075653    34A      1.107847    35A      1.144677  
      36A      1.149430    37A      1.197660    38A      1.218094  
      39A      1.239393    40A      1.257336    41A      1.302476  
      42A      1.309943    43A      1.417123    44A      1.439107  
      45A      1.449338    46A      1.456906    47A      1.460026  
      48A      1.572067    49A      1.663877    50A      1.681789  
      51A      1.781312    52A      1.858208    53A      1.878337  
      54A      1.883252    55A      1.968878    56A      1.977243  
      57A      2.101908    58A      2.273794    59A      2.474017  
      60A      2.573809    61A      2.627386    62A      2.687880  
      63A      2.697368    64A      2.732411    65A      2.742030  
      66A      2.788524    67A      2.876020    68A      3.092430  
      69A      3.277683    70A      3.288530    71A      3.293384  
      72A      3.301293    73A      3.332182    74A      3.332195  
      75A      3.354994    76A      3.360125    77A      3.365208  
      78A      3.372797    79A      3.379405    80A      3.440644  
      81A      3.447750    82A      3.514959    83A      3.645050  
      84A      3.716882    85A      3.720241    86A      3.794217  
      87A      4.038248    88A      4.529635    89A      4.609655  
      90A      4.625898    91A      4.716633    92A      4.799730  
      93A      4.983299    94A      5.013037    95A      5.072864  
      96A      5.155918    97A      5.416991    98A      5.546622  
      99A      5.601072   100A      5.722707   101A      5.742474  
     102A      5.791022   103A      5.921227   104A      6.053924  
     105A      6.323015   106A      6.458488   107A      6.577671  
     108A      7.105922   109A      7.816959   110A      7.956186  
     111A      8.113112   112A      8.213710   113A      8.378846  
     114A      8.769883   115A      8.851513   116A      9.275743  
     117A      9.275762   118A      9.291497   119A      9.292577  
     120A      9.385942   121A      9.407635   122A      9.456385  
     123A      9.754503   124A      9.766150   125A      9.766917  
     126A      9.835213   127A      9.867468   128A      9.933448  
     129A     10.008616   130A     10.200090   131A     10.431382  
     132A     10.965513   133A     11.716367   134A     11.869353  
     135A     12.300769   136A     13.562308   137A     14.082467  
     138A     63.677629  

    Final Occupation by Irrep:
              A 
    DOCC [     5 ]
    NA   [     5 ]
    NB   [     5 ]

  @DF-RHF Final Energy:   -99.45085897969854

   => Energetics <=

    Nuclear Repulsion Energy =              0.0000000000000000
    One-Electron Energy =                -143.9964422375172148
    Two-Electron Energy =                  44.5455832578186772
    Total Energy =                        -99.4508589796985376

Computation Completed


Properties will be evaluated at   0.000000,   0.000000,   0.000000 [a0]

Properties computed using the SCF density matrix


 Multipole Moments:

 ------------------------------------------------------------------------------------
     Multipole            Electronic (a.u.)      Nuclear  (a.u.)        Total (a.u.)
 ------------------------------------------------------------------------------------

 L = 1.  Multiply by 2.5417464519 to convert [e a0] to [Debye]
 Dipole X            :        -59.6072381           53.6469701           -5.9602680
 Dipole Y            :          0.0002338            0.0000000            0.0002338
 Dipole Z            :         -0.0000000            0.0000000           -0.0000000
 Magnitude           :                                                    5.9602680

 ------------------------------------------------------------------------------------

*** tstop() called on moses-razer at Fri Dec 29 17:33:18 2023
Module time:
	user time   =       2.36 seconds =       0.04 minutes
	system time =       0.03 seconds =       0.00 minutes
	total time  =          1 seconds =       0.02 minutes
Total time:
	user time   =       9.71 seconds =       0.16 minutes
	system time =       0.17 seconds =       0.00 minutes
	total time  =          2 seconds =       0.03 minutes
  Constructing Basis Sets for SAPT...

   => Loading Basis Set <=

    Name: (AUG-CC-PVTZ AUX)
    Role: RIFIT
    Keyword: DF_BASIS_SAPT
    atoms 1   entry O          line   264 file /home/kchung25/anaconda3/envs/p415env/share/psi4/basis/aug-cc-pvtz-ri.gbs 
    atoms 2-3 entry H          line    30 file /home/kchung25/anaconda3/envs/p415env/share/psi4/basis/aug-cc-pvtz-ri.gbs 
    atoms 4   entry F          line   322 file /home/kchung25/anaconda3/envs/p415env/share/psi4/basis/aug-cc-pvtz-ri.gbs 

   => Loading Basis Set <=

    Name: (AUG-CC-PVTZ AUX)
    Role: JKFIT
    Keyword: DF_BASIS_ELST
    atoms 1   entry O          line   286 file /home/kchung25/anaconda3/envs/p415env/share/psi4/basis/aug-cc-pvtz-jkfit.gbs 
    atoms 2-3 entry H          line    70 file /home/kchung25/anaconda3/envs/p415env/share/psi4/basis/aug-cc-pvtz-jkfit.gbs 
    atoms 4   entry F          line   348 file /home/kchung25/anaconda3/envs/p415env/share/psi4/basis/aug-cc-pvtz-jkfit.gbs 


  //>>>>>>>>>>>>>>>>>>>>>>>>>>>>>>>>>>>//
  //               SAPT2+              //
  //<<<<<<<<<<<<<<<<<<<<<<<<<<<<<<<<<<<//


*** tstart() called on moses-razer
*** at Fri Dec 29 17:33:18 2023

        SAPT2+  
    Ed Hohenstein
     6 June 2009

      Orbital Information
  --------------------------
    NSO        =       138
    NMO        =       138
    NRI        =       304
    NOCC A     =         5
    NOCC B     =         5
    FOCC A     =         0
    FOCC B     =         0
    NVIR A     =       133
    NVIR B     =       133

    Estimated memory usage: 53.6 MB

    Natural Orbital Cutoff:   1.000E-06
    Disp(T3) Truncation:            Yes
    CCD (vv|vv) Truncation:         Yes
    MBPT T2 Truncation:             Yes

    Monomer A: 55 virtual orbitals dropped
    Monomer B: 82 virtual orbitals dropped

    Elst10,r            =    -0.029137766452 [Eh]
    Exch10 (S^2)        =     0.006537515198 [Eh]
    Exch10              =     0.006566267460 [Eh]
    Ind20,r (A<-B)      =    -0.006538537581 [Eh]
    Ind20,r (B<-A)      =    -0.003254435494 [Eh]
    Ind20,r             =    -0.009792973076 [Eh]
    Exch-Ind20,r (A<-B) =     0.000207347531 [Eh]
    Exch-Ind20,r (B<-A) =     0.001794485779 [Eh]
    Exch-Ind20,r        =     0.002001833310 [Eh]
    Disp20              =    -0.003157643079 [Eh]
    Disp20 (NO)         =    -0.002609461273 [Eh]
    Exch-Disp20         =     0.000687333294 [Eh]
    Elst12,r            =     0.000439400756 [Eh]
    Exch11              =     0.000153125118 [Eh]
    Exch12              =     0.002429820165 [Eh]
    Ind22               =    -0.001674197991 [Eh]
    Disp21              =    -0.000064824670 [Eh]
    Disp22 (SDQ)        =    -0.000393387759 [Eh]

    (i =   1 of   5)          0 seconds
    (i =   2 of   5)          1 seconds
    (i =   3 of   5)          1 seconds
    (i =   4 of   5)          1 seconds
    (i =   5 of   5)          1 seconds

    Disp220 (T)         =    -0.000253993752 [Eh]

    (i =   1 of   5)          0 seconds
    (i =   2 of   5)          0 seconds
    (i =   3 of   5)          0 seconds
    (i =   4 of   5)          0 seconds
    (i =   5 of   5)          0 seconds

    Disp202 (T)         =    -0.000358348794 [Eh]

    Disp22 (T)          =    -0.000612342546 [Eh]

    Est. Disp220 (T)    =    -0.000307351414 [Eh]
    Est. Disp202 (T)    =    -0.000433628812 [Eh]

    Est. Disp22 (T)     =    -0.000740980225 [Eh]

    SAPT Results 
  --------------------------------------------------------------------------------------------------------
    Electrostatics                -28.69836570 [mEh]     -18.00849636 [kcal/mol]     -75.34754875 [kJ/mol]
      Elst10,r                    -29.13776645 [mEh]     -18.28422449 [kcal/mol]     -76.50119528 [kJ/mol]
      Elst12,r                      0.43940076 [mEh]       0.27572814 [kcal/mol]       1.15364653 [kJ/mol]

    Exchange                        9.14921274 [mEh]       5.74121767 [kcal/mol]      24.02125475 [kJ/mol]
      Exch10                        6.56626746 [mEh]       4.12039504 [kcal/mol]      17.23973284 [kJ/mol]
      Exch10(S^2)                   6.53751520 [mEh]       4.10235272 [kcal/mol]      17.16424379 [kJ/mol]
      Exch11(S^2)                   0.15312512 [mEh]       0.09608746 [kcal/mol]       0.40202994 [kJ/mol]
      Exch12(S^2)                   2.42982016 [mEh]       1.52473517 [kcal/mol]       6.37949196 [kJ/mol]

    Induction                     -10.81117037 [mEh]      -6.78411183 [kcal/mol]     -28.38472390 [kJ/mol]
      Ind20,r                      -9.79297308 [mEh]      -6.14518338 [kcal/mol]     -25.71144727 [kJ/mol]
      Ind22                        -1.67419799 [mEh]      -1.05057510 [kcal/mol]      -4.39560622 [kJ/mol]
      Exch-Ind20,r                  2.00183331 [mEh]       1.25616937 [kcal/mol]       5.25581263 [kJ/mol]
      Exch-Ind22                    0.34223165 [mEh]       0.21475360 [kcal/mol]       0.89852907 [kJ/mol]
      delta HF,r (2)               -1.68806426 [mEh]      -1.05927632 [kcal/mol]      -4.43201211 [kJ/mol]

    Dispersion                     -3.66950244 [mEh]      -2.30264755 [kcal/mol]      -9.63427733 [kJ/mol]
      Disp20                       -3.15764308 [mEh]      -1.98145095 [kcal/mol]      -8.29039076 [kJ/mol]
      Disp21                       -0.06482467 [mEh]      -0.04067809 [kcal/mol]      -0.17019715 [kJ/mol]
      Disp22 (SDQ)                 -0.39338776 [mEh]      -0.24685455 [kcal/mol]      -1.03283942 [kJ/mol]
      Disp22 (T)                   -0.61234255 [mEh]      -0.38425075 [kcal/mol]      -1.60770513 [kJ/mol]
      Est. Disp22 (T)              -0.74098023 [mEh]      -0.46497211 [kcal/mol]      -1.94544331 [kJ/mol]
      Exch-Disp20                   0.68733329 [mEh]       0.43130815 [kcal/mol]       1.80459331 [kJ/mol]

  Total HF                        -32.05070302 [mEh]     -20.11211979 [kcal/mol]     -84.14910918 [kJ/mol]
  Total SAPT0                     -34.52101280 [mEh]     -21.66226258 [kcal/mol]     -90.63490663 [kJ/mol]
  Total SAPT2                     -32.83063311 [mEh]     -20.60153331 [kcal/mol]     -86.19681535 [kJ/mol]
  Total SAPT2+                    -34.02982576 [mEh]     -21.35403806 [kcal/mol]     -89.34529523 [kJ/mol]

  Special recipe for scaled SAPT0 (see Manual):
    Electrostatics sSAPT0         -29.13776645 [mEh]     -18.28422449 [kcal/mol]     -76.50119528 [kJ/mol]
    Exchange sSAPT0                 6.56626746 [mEh]       4.12039504 [kcal/mol]      17.23973284 [kJ/mol]
    Induction sSAPT0               -9.45267526 [mEh]      -5.93164328 [kcal/mol]     -24.81799547 [kJ/mol]
    Dispersion sSAPT0              -2.46120108 [mEh]      -1.54442700 [kcal/mol]      -6.46188255 [kJ/mol]
  Total sSAPT0                    -34.48537533 [mEh]     -21.63989973 [kcal/mol]     -90.54134046 [kJ/mol]
  --------------------------------------------------------------------------------------------------------

*** tstop() called on moses-razer at Fri Dec 29 17:33:21 2023
Module time:
	user time   =      19.12 seconds =       0.32 minutes
	system time =       1.12 seconds =       0.02 minutes
	total time  =          3 seconds =       0.05 minutes
Total time:
	user time   =      29.09 seconds =       0.48 minutes
	system time =       1.29 seconds =       0.02 minutes
	total time  =          5 seconds =       0.08 minutes

    Psi4 stopped on: Friday, 29 December 2023 05:33PM
    Psi4 wall time for execution: 0:00:05.22

*** Psi4 exiting successfully. Buy a developer a beer!
