
    -----------------------------------------------------------------------
          Psi4: An Open-Source Ab Initio Electronic Structure Package
                               Psi4 1.9 release

                         Git: Rev {} zzzzzzz 


    D. G. A. Smith, L. A. Burns, A. C. Simmonett, R. M. Parrish,
    M. C. Schieber, R. Galvelis, P. Kraus, H. Kruse, R. Di Remigio,
    A. Alenaizan, A. M. James, S. Lehtola, J. P. Misiewicz, M. Scheurer,
    R. A. Shaw, J. B. Schriber, Y. Xie, Z. L. Glick, D. A. Sirianni,
    J. S. O'Brien, J. M. Waldrop, A. Kumar, E. G. Hohenstein,
    B. P. Pritchard, B. R. Brooks, H. F. Schaefer III, A. Yu. Sokolov,
    K. Patkowski, A. E. DePrince III, U. Bozkaya, R. A. King,
    F. A. Evangelista, J. M. Turney, T. D. Crawford, C. D. Sherrill,
    J. Chem. Phys. 152(18) 184108 (2020). https://doi.org/10.1063/5.0006002

                            Additional Code Authors
    E. T. Seidl, C. L. Janssen, E. F. Valeev, M. L. Leininger,
    J. F. Gonthier, R. M. Richard, H. R. McAlexander, M. Saitow, X. Wang,
    P. Verma, M. H. Lechner, A. Jiang, S. Behnle, A. G. Heide,
    M. F. Herbst, and D. L. Poole

             Previous Authors, Complete List of Code Contributors,
                       and Citations for Specific Modules
    https://github.com/psi4/psi4/blob/master/codemeta.json
    https://github.com/psi4/psi4/graphs/contributors
    http://psicode.org/psi4manual/master/introduction.html#citing-psifour

    -----------------------------------------------------------------------


    Psi4 started on: Friday, 29 December 2023 05:33PM

    Process ID: 158990
    Host:       moses-razer
    PSIDATADIR: /home/kchung25/anaconda3/envs/psi4_19/share/psi4
    Memory:     500.0 MiB
    Threads:    6
    
  ==> Input File <==

--------------------------------------------------------------------------
MEMORY 60 GB

molecule dimer {
0 1
O      0.000000     0.000000     0.000000
H     -0.073994     0.955205     0.000000
H      0.981943    -0.112425     0.000000
--
-1 1
Cl     2.916834     0.000000     0.000000

units ang
no_reorient
no_com
symmetry c1
}

set {
basis        aug-cc-pVTZ
scf_type     df
}

energy("sapt2+")
--------------------------------------------------------------------------

  Memory set to  55.879 GiB by Python driver.

Scratch directory: /scratch/
   => Loading Basis Set <=

    Name: AUG-CC-PVTZ
    Role: ORBITAL
    Keyword: BASIS
    atoms 1   entry O          line   331 file /home/kchung25/anaconda3/envs/p415env/share/psi4/basis/aug-cc-pvtz.gbs 
    atoms 2-3 entry H          line    40 file /home/kchung25/anaconda3/envs/p415env/share/psi4/basis/aug-cc-pvtz.gbs 
    atoms 4   entry CL         line   988 file /home/kchung25/anaconda3/envs/p415env/share/psi4/basis/aug-cc-pvtz.gbs 

   => Loading Basis Set <=

    Name: AUG-CC-PVTZ
    Role: ORBITAL
    Keyword: BASIS
    atoms 1   entry O          line   331 file /home/kchung25/anaconda3/envs/p415env/share/psi4/basis/aug-cc-pvtz.gbs 
    atoms 2-3 entry H          line    40 file /home/kchung25/anaconda3/envs/p415env/share/psi4/basis/aug-cc-pvtz.gbs 
    atoms 4   entry CL         line   988 file /home/kchung25/anaconda3/envs/p415env/share/psi4/basis/aug-cc-pvtz.gbs 


  //>>>>>>>>>>>>>>>>>>>>>>>>>>>>>>>>>>>//
  //              Dimer HF             //
  //<<<<<<<<<<<<<<<<<<<<<<<<<<<<<<<<<<<//

   => Libint2 <=

    Primary   basis highest AM E, G, H:  5, 4, 3
    Auxiliary basis highest AM E, G, H:  6, 5, 4
    Onebody   basis highest AM E, G, H:  6, 5, 4
    Solid Harmonics ordering:            gaussian

*** tstart() called on moses-razer
*** at Fri Dec 29 17:33:59 2023

   => Loading Basis Set <=

    Name: AUG-CC-PVTZ
    Role: ORBITAL
    Keyword: BASIS
    atoms 1   entry O          line   331 file /home/kchung25/anaconda3/envs/p415env/share/psi4/basis/aug-cc-pvtz.gbs 
    atoms 2-3 entry H          line    40 file /home/kchung25/anaconda3/envs/p415env/share/psi4/basis/aug-cc-pvtz.gbs 
    atoms 4   entry CL         line   988 file /home/kchung25/anaconda3/envs/p415env/share/psi4/basis/aug-cc-pvtz.gbs 


         ---------------------------------------------------------
                                   SCF
               by Justin Turney, Rob Parrish, Andy Simmonett
                          and Daniel G. A. Smith
                              RHF Reference
                        6 Threads,  57220 MiB Core
         ---------------------------------------------------------

  ==> Geometry <==

    Molecular point group: c1
    Full point group: Cs

    Geometry (in Angstrom), charge = -1, multiplicity = 1:

       Center              X                  Y                   Z               Mass       
    ------------   -----------------  -----------------  -----------------  -----------------
         O            0.000000000000     0.000000000000     0.000000000000    15.994914619570
         H           -0.073994000000     0.955205000000     0.000000000000     1.007825032230
         H            0.981943000000    -0.112425000000     0.000000000000     1.007825032230
         CL           2.916834000000     0.000000000000     0.000000000000    34.968852682000

  Running in c1 symmetry.

  Rotational constants: A =     18.08404  B =      0.05648  C =      0.05630 [cm^-1]
  Rotational constants: A = 542145.91116  B =   1693.12095  C =   1687.84980 [MHz]
  Nuclear repulsion =   41.234578279240303

  Charge       = -1
  Multiplicity = 1
  Electrons    = 28
  Nalpha       = 14
  Nbeta        = 14

  ==> Algorithm <==

  SCF Algorithm Type is DF.
  DIIS enabled.
  MOM disabled.
  Fractional occupation disabled.
  Guess Type is SAD.
  Energy threshold   = 1.00e-08
  Density threshold  = 1.00e-08
  Integral threshold = 1.00e-12

  ==> Primary Basis <==

  Basis Set: AUG-CC-PVTZ
    Blend: AUG-CC-PVTZ
    Number of shells: 48
    Number of basis functions: 142
    Number of Cartesian functions: 164
    Spherical Harmonics?: true
    Max angular momentum: 3

   => Loading Basis Set <=

    Name: (AUG-CC-PVTZ AUX)
    Role: JKFIT
    Keyword: DF_BASIS_SCF
    atoms 1   entry O          line   286 file /home/kchung25/anaconda3/envs/p415env/share/psi4/basis/aug-cc-pvtz-jkfit.gbs 
    atoms 2-3 entry H          line    70 file /home/kchung25/anaconda3/envs/p415env/share/psi4/basis/aug-cc-pvtz-jkfit.gbs 
    atoms 4   entry CL         line   816 file /home/kchung25/anaconda3/envs/p415env/share/psi4/basis/aug-cc-pvtz-jkfit.gbs 

  ==> Integral Setup <==

  ==> DiskDFJK: Density-Fitted J/K Matrices <==

    J tasked:                  Yes
    K tasked:                  Yes
    wK tasked:                  No
    OpenMP threads:              6
    Integrals threads:           6
    Memory [MiB]:            42915
    Algorithm:                Core
    Integral Cache:           SAVE
    Schwarz Cutoff:          1E-12
    Fitting Condition:       1E-10

   => Auxiliary Basis Set <=

  Basis Set: (AUG-CC-PVTZ AUX)
    Blend: AUG-CC-PVTZ-JKFIT
    Number of shells: 100
    Number of basis functions: 342
    Number of Cartesian functions: 421
    Spherical Harmonics?: true
    Max angular momentum: 4

  Minimum eigenvalue in the overlap matrix is 2.6209422980E-04.
  Reciprocal condition number of the overlap matrix is 3.4099453900E-05.
    Using symmetric orthogonalization.

  ==> Pre-Iterations <==

  SCF Guess: Superposition of Atomic Densities via on-the-fly atomic UHF (no occupation information).

   -------------------------
    Irrep   Nso     Nmo    
   -------------------------
     A        142     142 
   -------------------------
    Total     142     142
   -------------------------

  ==> Iterations <==

                           Total Energy        Delta E     RMS |[F,P]|

   @DF-RHF iter SAD:  -534.72361184245506   -5.34724e+02   0.00000e+00 
   @DF-RHF iter   1:  -535.52041986470726   -7.96808e-01   3.83069e-03 ADIIS/DIIS
   @DF-RHF iter   2:  -535.60835462945226   -8.79348e-02   2.49541e-03 ADIIS/DIIS
   @DF-RHF iter   3:  -535.64712570473341   -3.87711e-02   2.30414e-04 ADIIS/DIIS
   @DF-RHF iter   4:  -535.64775563135026   -6.29927e-04   9.01460e-05 DIIS
   @DF-RHF iter   5:  -535.64786757203001   -1.11941e-04   1.59716e-05 DIIS
   @DF-RHF iter   6:  -535.64787522738254   -7.65535e-06   4.15291e-06 DIIS
   @DF-RHF iter   7:  -535.64787579879044   -5.71408e-07   9.73357e-07 DIIS
   @DF-RHF iter   8:  -535.64787582868689   -2.98965e-08   2.08948e-07 DIIS
   @DF-RHF iter   9:  -535.64787582990982   -1.22293e-09   5.28878e-08 DIIS
   @DF-RHF iter  10:  -535.64787582997189   -6.20730e-11   1.37525e-08 DIIS
   @DF-RHF iter  11:  -535.64787582997701   -5.11591e-12   3.51866e-09 DIIS
  Energy and wave function converged.


  ==> Post-Iterations <==

    Orbital Energies [Eh]
    ---------------------

    Doubly Occupied:                                                      

       1A   -104.531726     2A    -20.361811     3A    -10.256750  
       4A     -7.722863     5A     -7.722754     6A     -7.722739  
       7A     -1.147738     8A     -0.771434     9A     -0.505157  
      10A     -0.398048    11A     -0.310315    12A     -0.184347  
      13A     -0.181327    14A     -0.180535  

    Virtual:                                                              

      15A      0.143418    16A      0.180604    17A      0.253363  
      18A      0.266570    19A      0.280327    20A      0.290615  
      21A      0.307782    22A      0.313279    23A      0.354202  
      24A      0.393349    25A      0.423502    26A      0.423822  
      27A      0.442544    28A      0.509626    29A      0.540325  
      30A      0.578294    31A      0.581439    32A      0.605296  
      33A      0.626482    34A      0.667638    35A      0.686475  
      36A      0.689833    37A      0.729501    38A      0.822843  
      39A      0.868429    40A      0.874090    41A      0.892240  
      42A      0.903315    43A      0.904349    44A      0.923987  
      45A      1.025460    46A      1.038226    47A      1.071019  
      48A      1.082934    49A      1.089539    50A      1.111396  
      51A      1.122545    52A      1.134115    53A      1.164124  
      54A      1.191029    55A      1.192968    56A      1.197915  
      57A      1.245341    58A      1.279023    59A      1.305775  
      60A      1.350111    61A      1.355088    62A      1.426195  
      63A      1.441723    64A      1.449294    65A      1.454653  
      66A      1.533268    67A      1.605638    68A      1.622456  
      69A      1.645048    70A      1.716300    71A      1.729520  
      72A      1.805920    73A      1.808022    74A      1.824437  
      75A      1.896850    76A      1.927351    77A      2.097229  
      78A      2.144826    79A      2.277238    80A      2.474710  
      81A      2.549746    82A      2.593895    83A      2.634263  
      84A      2.656006    85A      2.673815    86A      2.697563  
      87A      2.786745    88A      2.808129    89A      2.814215  
      90A      2.879940    91A      2.900834    92A      2.937963  
      93A      2.945897    94A      2.983262    95A      3.020005  
      96A      3.070825    97A      3.106088    98A      3.165005  
      99A      3.244718   100A      3.346660   101A      3.348066  
     102A      3.406884   103A      3.412242   104A      3.440199  
     105A      3.501691   106A      3.529597   107A      3.684792  
     108A      3.893647   109A      4.250893   110A      4.257281  
     111A      4.367100   112A      4.397841   113A      4.471352  
     114A      4.482322   115A      4.580643   116A      4.611116  
     117A      4.675115   118A      4.789002   119A      5.013874  
     120A      5.216116   121A      5.323297   122A      5.414200  
     123A      5.459264   124A      5.566807   125A      5.719010  
     126A      5.866494   127A      6.325424   128A      6.535638  
     129A      6.754975   130A      6.943218   131A      7.154817  
     132A      7.316300   133A      7.469409   134A      7.473482  
     135A      7.509791   136A      7.595564   137A      7.660439  
     138A      7.843151   139A      8.134235   140A      8.179925  
     141A      9.026733   142A     16.392590  

    Final Occupation by Irrep:
              A 
    DOCC [    14 ]
    NA   [    14 ]
    NB   [    14 ]

  @DF-RHF Final Energy:  -535.64787582997701

   => Energetics <=

    Nuclear Repulsion Energy =             41.2345782792403028
    One-Electron Energy =                -829.7698168558279121
    Two-Electron Energy =                 252.8873627466106200
    Total Energy =                       -535.6478758299770107

Computation Completed


Properties will be evaluated at   0.000000,   0.000000,   0.000000 [a0]

Properties computed using the SCF density matrix


 Multipole Moments:

 ------------------------------------------------------------------------------------
     Multipole            Electronic (a.u.)      Nuclear  (a.u.)        Total (a.u.)
 ------------------------------------------------------------------------------------

 L = 1.  Multiply by 2.5417464519 to convert [e a0] to [Debye]
 Dipole X            :        -99.7342168           95.4200710           -4.3141458
 Dipole Y            :         -1.0996484            1.5926234            0.4929750
 Dipole Z            :          0.0000000            0.0000000            0.0000000
 Magnitude           :                                                    4.3422205

 ------------------------------------------------------------------------------------

*** tstop() called on moses-razer at Fri Dec 29 17:34:00 2023
Module time:
	user time   =       5.24 seconds =       0.09 minutes
	system time =       0.50 seconds =       0.01 minutes
	total time  =          1 seconds =       0.02 minutes
Total time:
	user time   =       5.24 seconds =       0.09 minutes
	system time =       0.50 seconds =       0.01 minutes
	total time  =          1 seconds =       0.02 minutes

  //>>>>>>>>>>>>>>>>>>>>>>>>>>>>>>>>>>>//
  //            Monomer A HF           //
  //<<<<<<<<<<<<<<<<<<<<<<<<<<<<<<<<<<<//

   => Libint2 <=

    Primary   basis highest AM E, G, H:  5, 4, 3
    Auxiliary basis highest AM E, G, H:  6, 5, 4
    Onebody   basis highest AM E, G, H:  6, 5, 4
    Solid Harmonics ordering:            gaussian

*** tstart() called on moses-razer
*** at Fri Dec 29 17:34:00 2023

   => Loading Basis Set <=

    Name: AUG-CC-PVTZ
    Role: ORBITAL
    Keyword: BASIS
    atoms 1   entry O          line   331 file /home/kchung25/anaconda3/envs/p415env/share/psi4/basis/aug-cc-pvtz.gbs 
    atoms 2-3 entry H          line    40 file /home/kchung25/anaconda3/envs/p415env/share/psi4/basis/aug-cc-pvtz.gbs 
    atoms 4   entry CL         line   988 file /home/kchung25/anaconda3/envs/p415env/share/psi4/basis/aug-cc-pvtz.gbs 


         ---------------------------------------------------------
                                   SCF
               by Justin Turney, Rob Parrish, Andy Simmonett
                          and Daniel G. A. Smith
                              RHF Reference
                        6 Threads,  57220 MiB Core
         ---------------------------------------------------------

  ==> Geometry <==

    Molecular point group: c1
    Full point group: Cs

    Geometry (in Angstrom), charge = 0, multiplicity = 1:

       Center              X                  Y                   Z               Mass       
    ------------   -----------------  -----------------  -----------------  -----------------
         O            0.000000000000     0.000000000000     0.000000000000    15.994914619570
         H           -0.073994000000     0.955205000000     0.000000000000     1.007825032230
         H            0.981943000000    -0.112425000000     0.000000000000     1.007825032230
      Gh(CL)          2.916834000000     0.000000000000     0.000000000000    34.968852682000

  Running in c1 symmetry.

  Rotational constants: A =     18.08404  B =      0.05648  C =      0.05630 [cm^-1]
  Rotational constants: A = 542145.91116  B =   1693.12095  C =   1687.84980 [MHz]
  Nuclear repulsion =    9.054399083879867

  Charge       = 0
  Multiplicity = 1
  Electrons    = 10
  Nalpha       = 5
  Nbeta        = 5

  ==> Algorithm <==

  SCF Algorithm Type is DF.
  DIIS enabled.
  MOM disabled.
  Fractional occupation disabled.
  Guess Type is SAD.
  Energy threshold   = 1.00e-08
  Density threshold  = 1.00e-08
  Integral threshold = 1.00e-12

  ==> Primary Basis <==

  Basis Set: AUG-CC-PVTZ
    Blend: AUG-CC-PVTZ
    Number of shells: 48
    Number of basis functions: 142
    Number of Cartesian functions: 164
    Spherical Harmonics?: true
    Max angular momentum: 3

   => Loading Basis Set <=

    Name: (AUG-CC-PVTZ AUX)
    Role: JKFIT
    Keyword: DF_BASIS_SCF
    atoms 1   entry O          line   286 file /home/kchung25/anaconda3/envs/p415env/share/psi4/basis/aug-cc-pvtz-jkfit.gbs 
    atoms 2-3 entry H          line    70 file /home/kchung25/anaconda3/envs/p415env/share/psi4/basis/aug-cc-pvtz-jkfit.gbs 
    atoms 4   entry CL         line   816 file /home/kchung25/anaconda3/envs/p415env/share/psi4/basis/aug-cc-pvtz-jkfit.gbs 

  ==> Integral Setup <==

  ==> DiskDFJK: Density-Fitted J/K Matrices <==

    J tasked:                  Yes
    K tasked:                  Yes
    wK tasked:                  No
    OpenMP threads:              6
    Integrals threads:           6
    Memory [MiB]:            42915
    Algorithm:                Core
    Integral Cache:           LOAD
    Schwarz Cutoff:          1E-12
    Fitting Condition:       1E-10

   => Auxiliary Basis Set <=

  Basis Set: (AUG-CC-PVTZ AUX)
    Blend: AUG-CC-PVTZ-JKFIT
    Number of shells: 100
    Number of basis functions: 342
    Number of Cartesian functions: 421
    Spherical Harmonics?: true
    Max angular momentum: 4

  Minimum eigenvalue in the overlap matrix is 2.6209422980E-04.
  Reciprocal condition number of the overlap matrix is 3.4099453900E-05.
    Using symmetric orthogonalization.

  ==> Pre-Iterations <==

  SCF Guess: Superposition of Atomic Densities via on-the-fly atomic UHF (no occupation information).

   -------------------------
    Irrep   Nso     Nmo    
   -------------------------
     A        142     142 
   -------------------------
    Total     142     142
   -------------------------

  ==> Iterations <==

                           Total Energy        Delta E     RMS |[F,P]|

   @DF-RHF iter SAD:   -75.46304077296264   -7.54630e+01   0.00000e+00 
   @DF-RHF iter   1:   -75.97276543318513   -5.09725e-01   3.29399e-03 ADIIS/DIIS
   @DF-RHF iter   2:   -76.02495802096891   -5.21926e-02   2.28942e-03 ADIIS/DIIS
   @DF-RHF iter   3:   -76.05780284068410   -3.28448e-02   1.56550e-04 ADIIS/DIIS
   @DF-RHF iter   4:   -76.05821295009031   -4.10109e-04   3.84228e-05 DIIS
   @DF-RHF iter   5:   -76.05824073271921   -2.77826e-05   9.00029e-06 DIIS
   @DF-RHF iter   6:   -76.05824310134427   -2.36863e-06   1.95460e-06 DIIS
   @DF-RHF iter   7:   -76.05824322188934   -1.20545e-07   3.32300e-07 DIIS
   @DF-RHF iter   8:   -76.05824322487614   -2.98679e-09   5.59145e-08 DIIS
   @DF-RHF iter   9:   -76.05824322494318   -6.70468e-11   1.38406e-08 DIIS
   @DF-RHF iter  10:   -76.05824322494750   -4.32010e-12   2.27783e-09 DIIS
  Energy and wave function converged.


  ==> Post-Iterations <==

    Orbital Energies [Eh]
    ---------------------

    Doubly Occupied:                                                      

       1A    -20.571479     2A     -1.348193     3A     -0.702378  
       4A     -0.588682     5A     -0.510125  

    Virtual:                                                              

       6A      0.026274     7A      0.045396     8A      0.083268  
       9A      0.087428    10A      0.102949    11A      0.116672  
      12A      0.169560    13A      0.174414    14A      0.179138  
      15A      0.211562    16A      0.259142    17A      0.274045  
      18A      0.277006    19A      0.308776    20A      0.313478  
      21A      0.346870    22A      0.402396    23A      0.414076  
      24A      0.415138    25A      0.427005    26A      0.448953  
      27A      0.469027    28A      0.497191    29A      0.553962  
      30A      0.560727    31A      0.570715    32A      0.615198  
      33A      0.693796    34A      0.711000    35A      0.733268  
      36A      0.740016    37A      0.787318    38A      0.877814  
      39A      0.911523    40A      0.918374    41A      0.927634  
      42A      0.946981    43A      0.965830    44A      0.971551  
      45A      1.007947    46A      1.036165    47A      1.128377  
      48A      1.156335    49A      1.182820    50A      1.224774  
      51A      1.225578    52A      1.271581    53A      1.281841  
      54A      1.290350    55A      1.291448    56A      1.340180  
      57A      1.417648    58A      1.450036    59A      1.460313  
      60A      1.475085    61A      1.480584    62A      1.485242  
      63A      1.522087    64A      1.554347    65A      1.583135  
      66A      1.627812    67A      1.664236    68A      1.665962  
      69A      1.788190    70A      1.845783    71A      1.864450  
      72A      1.924983    73A      2.022007    74A      2.164950  
      75A      2.290868    76A      2.420997    77A      2.428783  
      78A      2.472867    79A      2.513059    80A      2.534403  
      81A      2.593782    82A      2.714979    83A      2.738543  
      84A      2.739575    85A      2.849794    86A      2.923980  
      87A      2.928108    88A      3.692814    89A      3.845252  
      90A      3.898178    91A      3.900454    92A      3.942483  
      93A      3.952324    94A      3.953943    95A      3.961277  
      96A      4.019837    97A      4.052165    98A      4.063126  
      99A      4.067922   100A      4.182647   101A      4.222110  
     102A      4.256105   103A      4.280655   104A      4.304921  
     105A      4.385160   106A      4.386127   107A      4.430908  
     108A      4.532769   109A      4.623985   110A      4.640366  
     111A      4.663982   112A      4.790095   113A      4.801732  
     114A      4.832532   115A      4.861841   116A      5.126816  
     117A      5.134127   118A      5.261663   119A      5.279727  
     120A      5.410975   121A      5.525244   122A      5.731903  
     123A      6.232658   124A      6.539190   125A      6.744564  
     126A      6.954936   127A      7.118330   128A      7.269896  
     129A      7.272582   130A      7.313227   131A      7.387477  
     132A      7.461471   133A      7.640216   134A      7.931927  
     135A      7.976554   136A      8.824226   137A     14.662184  
     138A     16.202731   139A     27.736152   140A     27.758453  
     141A     28.324640   142A    160.836473  

    Final Occupation by Irrep:
              A 
    DOCC [     5 ]
    NA   [     5 ]
    NB   [     5 ]

  @DF-RHF Final Energy:   -76.05824322494750

   => Energetics <=

    Nuclear Repulsion Energy =              9.0543990838798667
    One-Electron Energy =                -122.7835701506438113
    Two-Electron Energy =                  37.6709278418164502
    Total Energy =                        -76.0582432249474891

Computation Completed


Properties will be evaluated at   0.000000,   0.000000,   0.000000 [a0]

Properties computed using the SCF density matrix


 Multipole Moments:

 ------------------------------------------------------------------------------------
     Multipole            Electronic (a.u.)      Nuclear  (a.u.)        Total (a.u.)
 ------------------------------------------------------------------------------------

 L = 1.  Multiply by 2.5417464519 to convert [e a0] to [Debye]
 Dipole X            :         -1.1273499            1.7157749            0.5884250
 Dipole Y            :         -1.0389201            1.5926234            0.5537033
 Dipole Z            :         -0.0000000            0.0000000           -0.0000000
 Magnitude           :                                                    0.8079798

 ------------------------------------------------------------------------------------

*** tstop() called on moses-razer at Fri Dec 29 17:34:01 2023
Module time:
	user time   =       3.64 seconds =       0.06 minutes
	system time =       0.13 seconds =       0.00 minutes
	total time  =          1 seconds =       0.02 minutes
Total time:
	user time   =       8.92 seconds =       0.15 minutes
	system time =       0.63 seconds =       0.01 minutes
	total time  =          2 seconds =       0.03 minutes

  //>>>>>>>>>>>>>>>>>>>>>>>>>>>>>>>>>>>//
  //            Monomer B HF           //
  //<<<<<<<<<<<<<<<<<<<<<<<<<<<<<<<<<<<//

   => Libint2 <=

    Primary   basis highest AM E, G, H:  5, 4, 3
    Auxiliary basis highest AM E, G, H:  6, 5, 4
    Onebody   basis highest AM E, G, H:  6, 5, 4
    Solid Harmonics ordering:            gaussian

*** tstart() called on moses-razer
*** at Fri Dec 29 17:34:01 2023

   => Loading Basis Set <=

    Name: AUG-CC-PVTZ
    Role: ORBITAL
    Keyword: BASIS
    atoms 1   entry O          line   331 file /home/kchung25/anaconda3/envs/p415env/share/psi4/basis/aug-cc-pvtz.gbs 
    atoms 2-3 entry H          line    40 file /home/kchung25/anaconda3/envs/p415env/share/psi4/basis/aug-cc-pvtz.gbs 
    atoms 4   entry CL         line   988 file /home/kchung25/anaconda3/envs/p415env/share/psi4/basis/aug-cc-pvtz.gbs 


         ---------------------------------------------------------
                                   SCF
               by Justin Turney, Rob Parrish, Andy Simmonett
                          and Daniel G. A. Smith
                              RHF Reference
                        6 Threads,  57220 MiB Core
         ---------------------------------------------------------

  ==> Geometry <==

    Molecular point group: c1
    Full point group: Cs

    Geometry (in Angstrom), charge = -1, multiplicity = 1:

       Center              X                  Y                   Z               Mass       
    ------------   -----------------  -----------------  -----------------  -----------------
      Gh(O)           0.000000000000     0.000000000000     0.000000000000    15.994914619570
      Gh(H)          -0.073994000000     0.955205000000     0.000000000000     1.007825032230
      Gh(H)           0.981943000000    -0.112425000000     0.000000000000     1.007825032230
         CL           2.916834000000     0.000000000000     0.000000000000    34.968852682000

  Running in c1 symmetry.

  Rotational constants: A =     18.08404  B =      0.05648  C =      0.05630 [cm^-1]
  Rotational constants: A = 542145.91116  B =   1693.12095  C =   1687.84980 [MHz]
  Nuclear repulsion =    0.000000000000000

  Charge       = -1
  Multiplicity = 1
  Electrons    = 18
  Nalpha       = 9
  Nbeta        = 9

  ==> Algorithm <==

  SCF Algorithm Type is DF.
  DIIS enabled.
  MOM disabled.
  Fractional occupation disabled.
  Guess Type is SAD.
  Energy threshold   = 1.00e-08
  Density threshold  = 1.00e-08
  Integral threshold = 1.00e-12

  ==> Primary Basis <==

  Basis Set: AUG-CC-PVTZ
    Blend: AUG-CC-PVTZ
    Number of shells: 48
    Number of basis functions: 142
    Number of Cartesian functions: 164
    Spherical Harmonics?: true
    Max angular momentum: 3

   => Loading Basis Set <=

    Name: (AUG-CC-PVTZ AUX)
    Role: JKFIT
    Keyword: DF_BASIS_SCF
    atoms 1   entry O          line   286 file /home/kchung25/anaconda3/envs/p415env/share/psi4/basis/aug-cc-pvtz-jkfit.gbs 
    atoms 2-3 entry H          line    70 file /home/kchung25/anaconda3/envs/p415env/share/psi4/basis/aug-cc-pvtz-jkfit.gbs 
    atoms 4   entry CL         line   816 file /home/kchung25/anaconda3/envs/p415env/share/psi4/basis/aug-cc-pvtz-jkfit.gbs 

  ==> Integral Setup <==

  ==> DiskDFJK: Density-Fitted J/K Matrices <==

    J tasked:                  Yes
    K tasked:                  Yes
    wK tasked:                  No
    OpenMP threads:              6
    Integrals threads:           6
    Memory [MiB]:            42915
    Algorithm:                Core
    Integral Cache:           LOAD
    Schwarz Cutoff:          1E-12
    Fitting Condition:       1E-10

   => Auxiliary Basis Set <=

  Basis Set: (AUG-CC-PVTZ AUX)
    Blend: AUG-CC-PVTZ-JKFIT
    Number of shells: 100
    Number of basis functions: 342
    Number of Cartesian functions: 421
    Spherical Harmonics?: true
    Max angular momentum: 4

  Minimum eigenvalue in the overlap matrix is 2.6209422980E-04.
  Reciprocal condition number of the overlap matrix is 3.4099453900E-05.
    Using symmetric orthogonalization.

  ==> Pre-Iterations <==

  SCF Guess: Superposition of Atomic Densities via on-the-fly atomic UHF (no occupation information).

   -------------------------
    Irrep   Nso     Nmo    
   -------------------------
     A        142     142 
   -------------------------
    Total     142     142
   -------------------------

  ==> Iterations <==

                           Total Energy        Delta E     RMS |[F,P]|

   @DF-RHF iter SAD:  -459.11248997384331   -4.59112e+02   0.00000e+00 
   @DF-RHF iter   1:  -459.51388861412363   -4.01399e-01   2.10141e-03 ADIIS/DIIS
   @DF-RHF iter   2:  -459.56475543222763   -5.08668e-02   1.07477e-03 ADIIS/DIIS
   @DF-RHF iter   3:  -459.57345404148447   -8.69861e-03   7.09229e-05 DIIS
   @DF-RHF iter   4:  -459.57350842628790   -5.43848e-05   1.45874e-05 DIIS
   @DF-RHF iter   5:  -459.57351212262614   -3.69634e-06   1.52111e-06 DIIS
   @DF-RHF iter   6:  -459.57351219898987   -7.63637e-08   9.56893e-08 DIIS
   @DF-RHF iter   7:  -459.57351219932929   -3.39412e-10   1.21089e-08 DIIS
   @DF-RHF iter   8:  -459.57351219933889   -9.60654e-12   2.72085e-09 DIIS
  Energy and wave function converged.


  ==> Post-Iterations <==

    Orbital Energies [Eh]
    ---------------------

    Doubly Occupied:                                                      

       1A   -104.506487     2A    -10.229875     3A     -7.695944  
       4A     -7.695941     5A     -7.695880     6A     -0.733502  
       7A     -0.150334     8A     -0.150331     9A     -0.150330  

    Virtual:                                                              

      10A      0.138571    11A      0.175594    12A      0.242940  
      13A      0.252277    14A      0.274877    15A      0.287693  
      16A      0.297566    17A      0.302439    18A      0.322311  
      19A      0.401242    20A      0.420309    21A      0.429764  
      22A      0.456578    23A      0.508150    24A      0.514423  
      25A      0.553201    26A      0.581880    27A      0.603022  
      28A      0.633997    29A      0.660576    30A      0.673896  
      31A      0.688259    32A      0.706332    33A      0.844698  
      34A      0.852128    35A      0.895877    36A      0.928033  
      37A      0.941031    38A      0.963954    39A      0.964740  
      40A      0.990678    41A      1.016614    42A      1.028200  
      43A      1.047408    44A      1.094272    45A      1.105087  
      46A      1.148985    47A      1.163742    48A      1.169873  
      49A      1.194552    50A      1.219725    51A      1.222466  
      52A      1.227606    53A      1.233618    54A      1.324912  
      55A      1.357741    56A      1.381120    57A      1.435098  
      58A      1.476010    59A      1.477989    60A      1.483650  
      61A      1.544653    62A      1.619502    63A      1.653733  
      64A      1.679964    65A      1.739034    66A      1.843802  
      67A      1.855924    68A      1.896170    69A      1.928634  
      70A      1.940666    71A      1.978091    72A      2.001847  
      73A      2.018117    74A      2.230365    75A      2.338084  
      76A      2.626007    77A      2.629860    78A      2.692119  
      79A      2.764318    80A      2.773607    81A      2.813380  
      82A      2.826852    83A      2.839529    84A      2.846181  
      85A      2.871616    86A      2.969042    87A      2.969872  
      88A      2.979656    89A      3.079423    90A      3.131417  
      91A      3.207022    92A      3.318710    93A      3.373949  
      94A      3.376436    95A      3.381232    96A      3.411489  
      97A      3.441322    98A      3.444288    99A      3.498012  
     100A      3.524392   101A      3.560647   102A      3.622198  
     103A      3.626526   104A      3.747938   105A      3.800995  
     106A      4.095907   107A      4.596223   108A      4.637690  
     109A      4.686811   110A      4.760754   111A      4.872924  
     112A      5.037887   113A      5.069498   114A      5.176163  
     115A      5.184970   116A      5.467941   117A      5.770434  
     118A      5.782306   119A      5.812886   120A      6.090850  
     121A      6.345609   122A      6.440152   123A      6.564232  
     124A      6.855517   125A      7.257956   126A      7.873602  
     127A      8.053552   128A      8.190408   129A      8.332408  
     130A      8.453206   131A      8.935277   132A      9.065366  
     133A      9.844091   134A     10.028480   135A     10.232632  
     136A     10.503567   137A     11.396082   138A     11.898735  
     139A     12.276219   140A     13.736891   141A     14.096480  
     142A     65.782940  

    Final Occupation by Irrep:
              A 
    DOCC [     9 ]
    NA   [     9 ]
    NB   [     9 ]

  @DF-RHF Final Energy:  -459.57351219933889

   => Energetics <=

    Nuclear Repulsion Energy =              0.0000000000000000
    One-Electron Energy =                -641.1297765109501370
    Two-Electron Energy =                 181.5562643116112440
    Total Energy =                       -459.5735121993388930

Computation Completed


Properties will be evaluated at   0.000000,   0.000000,   0.000000 [a0]

Properties computed using the SCF density matrix


 Multipole Moments:

 ------------------------------------------------------------------------------------
     Multipole            Electronic (a.u.)      Nuclear  (a.u.)        Total (a.u.)
 ------------------------------------------------------------------------------------

 L = 1.  Multiply by 2.5417464519 to convert [e a0] to [Debye]
 Dipole X            :        -99.2170817           93.7042960           -5.5127856
 Dipole Y            :         -0.0003340            0.0000000           -0.0003340
 Dipole Z            :          0.0000000            0.0000000            0.0000000
 Magnitude           :                                                    5.5127857

 ------------------------------------------------------------------------------------

*** tstop() called on moses-razer at Fri Dec 29 17:34:02 2023
Module time:
	user time   =       3.60 seconds =       0.06 minutes
	system time =       0.33 seconds =       0.01 minutes
	total time  =          1 seconds =       0.02 minutes
Total time:
	user time   =      12.55 seconds =       0.21 minutes
	system time =       0.96 seconds =       0.02 minutes
	total time  =          3 seconds =       0.05 minutes
  Constructing Basis Sets for SAPT...

   => Loading Basis Set <=

    Name: (AUG-CC-PVTZ AUX)
    Role: RIFIT
    Keyword: DF_BASIS_SAPT
    atoms 1   entry O          line   264 file /home/kchung25/anaconda3/envs/p415env/share/psi4/basis/aug-cc-pvtz-ri.gbs 
    atoms 2-3 entry H          line    30 file /home/kchung25/anaconda3/envs/p415env/share/psi4/basis/aug-cc-pvtz-ri.gbs 
    atoms 4   entry CL         line   742 file /home/kchung25/anaconda3/envs/p415env/share/psi4/basis/aug-cc-pvtz-ri.gbs 

   => Loading Basis Set <=

    Name: (AUG-CC-PVTZ AUX)
    Role: JKFIT
    Keyword: DF_BASIS_ELST
    atoms 1   entry O          line   286 file /home/kchung25/anaconda3/envs/p415env/share/psi4/basis/aug-cc-pvtz-jkfit.gbs 
    atoms 2-3 entry H          line    70 file /home/kchung25/anaconda3/envs/p415env/share/psi4/basis/aug-cc-pvtz-jkfit.gbs 
    atoms 4   entry CL         line   816 file /home/kchung25/anaconda3/envs/p415env/share/psi4/basis/aug-cc-pvtz-jkfit.gbs 


  //>>>>>>>>>>>>>>>>>>>>>>>>>>>>>>>>>>>//
  //               SAPT2+              //
  //<<<<<<<<<<<<<<<<<<<<<<<<<<<<<<<<<<<//


*** tstart() called on moses-razer
*** at Fri Dec 29 17:34:02 2023

        SAPT2+  
    Ed Hohenstein
     6 June 2009

      Orbital Information
  --------------------------
    NSO        =       142
    NMO        =       142
    NRI        =       345
    NOCC A     =         5
    NOCC B     =         9
    FOCC A     =         0
    FOCC B     =         0
    NVIR A     =       137
    NVIR B     =       133

    Estimated memory usage: 88.3 MB

    Natural Orbital Cutoff:   1.000E-06
    Disp(T3) Truncation:            Yes
    CCD (vv|vv) Truncation:         Yes
    MBPT T2 Truncation:             Yes

    Monomer A: 59 virtual orbitals dropped
    Monomer B: 74 virtual orbitals dropped

    Elst10,r            =    -0.039345544793 [Eh]
    Exch10 (S^2)        =     0.039857440739 [Eh]
    Exch10              =     0.040880132235 [Eh]
    Ind20,r (A<-B)      =    -0.009729318467 [Eh]
    Ind20,r (B<-A)      =    -0.020664337723 [Eh]
    Ind20,r             =    -0.030393656190 [Eh]
    Exch-Ind20,r (A<-B) =     0.005116359563 [Eh]
    Exch-Ind20,r (B<-A) =     0.014653210448 [Eh]
    Exch-Ind20,r        =     0.019769570011 [Eh]
    Disp20              =    -0.012448309953 [Eh]
    Disp20 (NO)         =    -0.010874770980 [Eh]
    Exch-Disp20         =     0.003314872035 [Eh]
    Elst12,r            =    -0.000538961619 [Eh]
    Exch11              =     0.001346334679 [Eh]
    Exch12              =     0.002511378749 [Eh]
    Ind22               =    -0.003564783419 [Eh]
    Disp21              =     0.000855596910 [Eh]
    Disp22 (SDQ)        =     0.000101413270 [Eh]

    (i =   1 of   9)          0 seconds
    (i =   2 of   9)          0 seconds
    (i =   3 of   9)          0 seconds
    (i =   4 of   9)          0 seconds
    (i =   5 of   9)          0 seconds
    (i =   6 of   9)          0 seconds
    (i =   7 of   9)          1 seconds
    (i =   8 of   9)          1 seconds
    (i =   9 of   9)          1 seconds

    Disp220 (T)         =    -0.001029518764 [Eh]

    (i =   1 of   5)          0 seconds
    (i =   2 of   5)          0 seconds
    (i =   3 of   5)          0 seconds
    (i =   4 of   5)          1 seconds
    (i =   5 of   5)          1 seconds

    Disp202 (T)         =    -0.000811532105 [Eh]

    Disp22 (T)          =    -0.001841050869 [Eh]

    Est. Disp220 (T)    =    -0.001178486306 [Eh]
    Est. Disp202 (T)    =    -0.000928957787 [Eh]

    Est. Disp22 (T)     =    -0.002107444092 [Eh]

    SAPT Results 
  --------------------------------------------------------------------------------------------------------
    Electrostatics                -39.88450641 [mEh]     -25.02790563 [kcal/mol]    -104.71675716 [kJ/mol]
      Elst10,r                    -39.34554479 [mEh]     -24.68970211 [kcal/mol]    -103.30171362 [kJ/mol]
      Elst12,r                     -0.53896162 [mEh]      -0.33820352 [kcal/mol]      -1.41504354 [kJ/mol]

    Exchange                       44.73784566 [mEh]      28.07342199 [kcal/mol]     117.45919761 [kJ/mol]
      Exch10                       40.88013223 [mEh]      25.65267027 [kcal/mol]     107.33077239 [kJ/mol]
      Exch10(S^2)                  39.85744074 [mEh]      25.01092166 [kcal/mol]     104.64569624 [kJ/mol]
      Exch11(S^2)                   1.34633468 [mEh]       0.84483777 [kcal/mol]       3.53480121 [kJ/mol]
      Exch12(S^2)                   2.51137875 [mEh]       1.57591396 [kcal/mol]       6.59362400 [kJ/mol]

    Induction                     -18.90106126 [mEh]     -11.86059500 [kcal/mol]     -49.62472950 [kJ/mol]
      Ind20,r                     -30.39365619 [mEh]     -19.07230720 [kcal/mol]     -79.79853333 [kJ/mol]
      Ind22                        -3.56478342 [mEh]      -2.23693537 [kcal/mol]      -9.35933758 [kJ/mol]
      Exch-Ind20,r                 19.76957001 [mEh]      12.40559247 [kcal/mol]      51.90499891 [kJ/mol]
      Exch-Ind22                    2.31871529 [mEh]       1.45501581 [kcal/mol]       6.08778616 [kJ/mol]
      delta HF,r (2)               -7.03090695 [mEh]      -4.41196072 [kcal/mol]     -18.45964366 [kJ/mol]

    Dispersion                    -10.28387183 [mEh]      -6.45322700 [kcal/mol]     -27.00030177 [kJ/mol]
      Disp20                      -12.44830995 [mEh]      -7.81143243 [kcal/mol]     -32.68303328 [kJ/mol]
      Disp21                        0.85559691 [mEh]       0.53689517 [kcal/mol]       2.24636938 [kJ/mol]
      Disp22 (SDQ)                  0.10141327 [mEh]       0.06363779 [kcal/mol]       0.26626050 [kJ/mol]
      Disp22 (T)                   -1.84105087 [mEh]      -1.15527686 [kcal/mol]      -4.83367839 [kJ/mol]
      Est. Disp22 (T)              -2.10744409 [mEh]      -1.32244113 [kcal/mol]      -5.53309370 [kJ/mol]
      Exch-Disp20                   3.31487204 [mEh]       2.08011361 [kcal/mol]       8.70319533 [kJ/mol]

  Total HF                        -16.12040569 [mEh]     -10.11570729 [kcal/mol]     -42.32411931 [kJ/mol]
  Total SAPT0                     -25.25384361 [mEh]     -15.84702611 [kcal/mol]     -66.30395726 [kJ/mol]
  Total SAPT2                     -23.18115993 [mEh]     -14.54639747 [kcal/mol]     -60.86212700 [kJ/mol]
  Total SAPT2+                    -24.33159384 [mEh]     -15.26830565 [kcal/mol]     -63.88259082 [kJ/mol]

  Special recipe for scaled SAPT0 (see Manual):
    Electrostatics sSAPT0         -39.34554479 [mEh]     -24.68970211 [kcal/mol]    -103.30171362 [kJ/mol]
    Exchange sSAPT0                40.88013223 [mEh]      25.65267027 [kcal/mol]     107.33077239 [kJ/mol]
    Induction sSAPT0              -16.09382560 [mEh]     -10.09902803 [kcal/mol]     -42.25433329 [kJ/mol]
    Dispersion sSAPT0              -8.87166841 [mEh]      -5.56705598 [kcal/mol]     -23.29256220 [kJ/mol]
  Total sSAPT0                    -23.43090657 [mEh]     -14.70311585 [kcal/mol]     -61.51783672 [kJ/mol]
  --------------------------------------------------------------------------------------------------------

*** tstop() called on moses-razer at Fri Dec 29 17:34:08 2023
Module time:
	user time   =      34.00 seconds =       0.57 minutes
	system time =       1.54 seconds =       0.03 minutes
	total time  =          6 seconds =       0.10 minutes
Total time:
	user time   =      47.02 seconds =       0.78 minutes
	system time =       2.50 seconds =       0.04 minutes
	total time  =          9 seconds =       0.15 minutes

    Psi4 stopped on: Friday, 29 December 2023 05:34PM
    Psi4 wall time for execution: 0:00:09.21

*** Psi4 exiting successfully. Buy a developer a beer!
