
    -----------------------------------------------------------------------
          Psi4: An Open-Source Ab Initio Electronic Structure Package
                               Psi4 1.9 release

                         Git: Rev {} zzzzzzz 


    D. G. A. Smith, L. A. Burns, A. C. Simmonett, R. M. Parrish,
    M. C. Schieber, R. Galvelis, P. Kraus, H. Kruse, R. Di Remigio,
    A. Alenaizan, A. M. James, S. Lehtola, J. P. Misiewicz, M. Scheurer,
    R. A. Shaw, J. B. Schriber, Y. Xie, Z. L. Glick, D. A. Sirianni,
    J. S. O'Brien, J. M. Waldrop, A. Kumar, E. G. Hohenstein,
    B. P. Pritchard, B. R. Brooks, H. F. Schaefer III, A. Yu. Sokolov,
    K. Patkowski, A. E. DePrince III, U. Bozkaya, R. A. King,
    F. A. Evangelista, J. M. Turney, T. D. Crawford, C. D. Sherrill,
    J. Chem. Phys. 152(18) 184108 (2020). https://doi.org/10.1063/5.0006002

                            Additional Code Authors
    E. T. Seidl, C. L. Janssen, E. F. Valeev, M. L. Leininger,
    J. F. Gonthier, R. M. Richard, H. R. McAlexander, M. Saitow, X. Wang,
    P. Verma, M. H. Lechner, A. Jiang, S. Behnle, A. G. Heide,
    M. F. Herbst, and D. L. Poole

             Previous Authors, Complete List of Code Contributors,
                       and Citations for Specific Modules
    https://github.com/psi4/psi4/blob/master/codemeta.json
    https://github.com/psi4/psi4/graphs/contributors
    http://psicode.org/psi4manual/master/introduction.html#citing-psifour

    -----------------------------------------------------------------------


    Psi4 started on: Friday, 29 December 2023 05:34PM

    Process ID: 159151
    Host:       moses-razer
    PSIDATADIR: /home/kchung25/anaconda3/envs/psi4_19/share/psi4
    Memory:     500.0 MiB
    Threads:    6
    
  ==> Input File <==

--------------------------------------------------------------------------
MEMORY 60 GB

molecule dimer {
0 1
O      0.000000     0.000000     0.000000
H     -0.073994     0.955205     0.000000
H      0.981943    -0.112425     0.000000
--
-1 1
Cl     3.991458     0.000000     0.000000

units ang
no_reorient
no_com
symmetry c1
}

set {
basis        aug-cc-pVTZ
scf_type     df
}

energy("sapt2+")
--------------------------------------------------------------------------

  Memory set to  55.879 GiB by Python driver.

Scratch directory: /scratch/
   => Loading Basis Set <=

    Name: AUG-CC-PVTZ
    Role: ORBITAL
    Keyword: BASIS
    atoms 1   entry O          line   331 file /home/kchung25/anaconda3/envs/p415env/share/psi4/basis/aug-cc-pvtz.gbs 
    atoms 2-3 entry H          line    40 file /home/kchung25/anaconda3/envs/p415env/share/psi4/basis/aug-cc-pvtz.gbs 
    atoms 4   entry CL         line   988 file /home/kchung25/anaconda3/envs/p415env/share/psi4/basis/aug-cc-pvtz.gbs 

   => Loading Basis Set <=

    Name: AUG-CC-PVTZ
    Role: ORBITAL
    Keyword: BASIS
    atoms 1   entry O          line   331 file /home/kchung25/anaconda3/envs/p415env/share/psi4/basis/aug-cc-pvtz.gbs 
    atoms 2-3 entry H          line    40 file /home/kchung25/anaconda3/envs/p415env/share/psi4/basis/aug-cc-pvtz.gbs 
    atoms 4   entry CL         line   988 file /home/kchung25/anaconda3/envs/p415env/share/psi4/basis/aug-cc-pvtz.gbs 


  //>>>>>>>>>>>>>>>>>>>>>>>>>>>>>>>>>>>//
  //              Dimer HF             //
  //<<<<<<<<<<<<<<<<<<<<<<<<<<<<<<<<<<<//

   => Libint2 <=

    Primary   basis highest AM E, G, H:  5, 4, 3
    Auxiliary basis highest AM E, G, H:  6, 5, 4
    Onebody   basis highest AM E, G, H:  6, 5, 4
    Solid Harmonics ordering:            gaussian

*** tstart() called on moses-razer
*** at Fri Dec 29 17:34:46 2023

   => Loading Basis Set <=

    Name: AUG-CC-PVTZ
    Role: ORBITAL
    Keyword: BASIS
    atoms 1   entry O          line   331 file /home/kchung25/anaconda3/envs/p415env/share/psi4/basis/aug-cc-pvtz.gbs 
    atoms 2-3 entry H          line    40 file /home/kchung25/anaconda3/envs/p415env/share/psi4/basis/aug-cc-pvtz.gbs 
    atoms 4   entry CL         line   988 file /home/kchung25/anaconda3/envs/p415env/share/psi4/basis/aug-cc-pvtz.gbs 


         ---------------------------------------------------------
                                   SCF
               by Justin Turney, Rob Parrish, Andy Simmonett
                          and Daniel G. A. Smith
                              RHF Reference
                        6 Threads,  57220 MiB Core
         ---------------------------------------------------------

  ==> Geometry <==

    Molecular point group: c1
    Full point group: Cs

    Geometry (in Angstrom), charge = -1, multiplicity = 1:

       Center              X                  Y                   Z               Mass       
    ------------   -----------------  -----------------  -----------------  -----------------
         O            0.000000000000     0.000000000000     0.000000000000    15.994914619570
         H           -0.073994000000     0.955205000000     0.000000000000     1.007825032230
         H            0.981943000000    -0.112425000000     0.000000000000     1.007825032230
         CL           3.991458000000     0.000000000000     0.000000000000    34.968852682000

  Running in c1 symmetry.

  Rotational constants: A =     18.08303  B =      0.03021  C =      0.03016 [cm^-1]
  Rotational constants: A = 542115.58388  B =    905.54801  C =    904.03791 [MHz]
  Nuclear repulsion =   32.226169825006878

  Charge       = -1
  Multiplicity = 1
  Electrons    = 28
  Nalpha       = 14
  Nbeta        = 14

  ==> Algorithm <==

  SCF Algorithm Type is DF.
  DIIS enabled.
  MOM disabled.
  Fractional occupation disabled.
  Guess Type is SAD.
  Energy threshold   = 1.00e-08
  Density threshold  = 1.00e-08
  Integral threshold = 1.00e-12

  ==> Primary Basis <==

  Basis Set: AUG-CC-PVTZ
    Blend: AUG-CC-PVTZ
    Number of shells: 48
    Number of basis functions: 142
    Number of Cartesian functions: 164
    Spherical Harmonics?: true
    Max angular momentum: 3

   => Loading Basis Set <=

    Name: (AUG-CC-PVTZ AUX)
    Role: JKFIT
    Keyword: DF_BASIS_SCF
    atoms 1   entry O          line   286 file /home/kchung25/anaconda3/envs/p415env/share/psi4/basis/aug-cc-pvtz-jkfit.gbs 
    atoms 2-3 entry H          line    70 file /home/kchung25/anaconda3/envs/p415env/share/psi4/basis/aug-cc-pvtz-jkfit.gbs 
    atoms 4   entry CL         line   816 file /home/kchung25/anaconda3/envs/p415env/share/psi4/basis/aug-cc-pvtz-jkfit.gbs 

  ==> Integral Setup <==

  ==> DiskDFJK: Density-Fitted J/K Matrices <==

    J tasked:                  Yes
    K tasked:                  Yes
    wK tasked:                  No
    OpenMP threads:              6
    Integrals threads:           6
    Memory [MiB]:            42915
    Algorithm:                Core
    Integral Cache:           SAVE
    Schwarz Cutoff:          1E-12
    Fitting Condition:       1E-10

   => Auxiliary Basis Set <=

  Basis Set: (AUG-CC-PVTZ AUX)
    Blend: AUG-CC-PVTZ-JKFIT
    Number of shells: 100
    Number of basis functions: 342
    Number of Cartesian functions: 421
    Spherical Harmonics?: true
    Max angular momentum: 4

  Minimum eigenvalue in the overlap matrix is 3.7068060406E-04.
  Reciprocal condition number of the overlap matrix is 5.2355055409E-05.
    Using symmetric orthogonalization.

  ==> Pre-Iterations <==

  SCF Guess: Superposition of Atomic Densities via on-the-fly atomic UHF (no occupation information).

   -------------------------
    Irrep   Nso     Nmo    
   -------------------------
     A        142     142 
   -------------------------
    Total     142     142
   -------------------------

  ==> Iterations <==

                           Total Energy        Delta E     RMS |[F,P]|

   @DF-RHF iter SAD:  -534.58711460494521   -5.34587e+02   0.00000e+00 
   @DF-RHF iter   1:  -535.51125309839790   -9.24138e-01   3.83571e-03 DIIS/ADIIS
   @DF-RHF iter   2:  -535.60808244332054   -9.68293e-02   2.44624e-03 DIIS/ADIIS
   @DF-RHF iter   3:  -535.64649706473313   -3.84146e-02   2.19398e-04 DIIS/ADIIS
   @DF-RHF iter   4:  -535.64699468850426   -4.97624e-04   8.77678e-05 DIIS
   @DF-RHF iter   5:  -535.64707939613220   -8.47076e-05   1.46724e-05 DIIS
   @DF-RHF iter   6:  -535.64708456315748   -5.16703e-06   3.51505e-06 DIIS
   @DF-RHF iter   7:  -535.64708492293096   -3.59773e-07   8.76388e-07 DIIS
   @DF-RHF iter   8:  -535.64708494606248   -2.31315e-08   1.78928e-07 DIIS
   @DF-RHF iter   9:  -535.64708494697834   -9.15861e-10   2.79508e-08 DIIS
   @DF-RHF iter  10:  -535.64708494699823   -1.98952e-11   7.42133e-09 DIIS
  Energy and wave function converged.


  ==> Post-Iterations <==

    Orbital Energies [Eh]
    ---------------------

    Doubly Occupied:                                                      

       1A   -104.522253     2A    -20.428262     3A    -10.246011  
       4A     -7.712072     5A     -7.712043     6A     -7.712040  
       7A     -1.206459     8A     -0.750362     9A     -0.560524  
      10A     -0.450215    11A     -0.369753    12A     -0.168688  
      13A     -0.166527    14A     -0.166426  

    Virtual:                                                              

      15A      0.129128    16A      0.174962    17A      0.256517  
      18A      0.259513    19A      0.273568    20A      0.285522  
      21A      0.291610    22A      0.297527    23A      0.322510  
      24A      0.373473    25A      0.397322    26A      0.398230  
      27A      0.403514    28A      0.452277    29A      0.484357  
      30A      0.517718    31A      0.570244    32A      0.582633  
      33A      0.586146    34A      0.635284    35A      0.642797  
      36A      0.680653    37A      0.701888    38A      0.779842  
      39A      0.838136    40A      0.839968    41A      0.858347  
      42A      0.870596    43A      0.890285    44A      0.891153  
      45A      0.949044    46A      1.002764    47A      1.011753  
      48A      1.041279    49A      1.054078    50A      1.084826  
      51A      1.087087    52A      1.091279    53A      1.146710  
      54A      1.151951    55A      1.167344    56A      1.208078  
      57A      1.210671    58A      1.211894    59A      1.239604  
      60A      1.262710    61A      1.263893    62A      1.290035  
      63A      1.315577    64A      1.362226    65A      1.375569  
      66A      1.423494    67A      1.453642    68A      1.453859  
      69A      1.472534    70A      1.473643    71A      1.531475  
      72A      1.612422    73A      1.668608    74A      1.686340  
      75A      1.750140    76A      1.772615    77A      1.977662  
      78A      2.016911    79A      2.173446    80A      2.408542  
      81A      2.433277    82A      2.477561    83A      2.478416  
      84A      2.565421    85A      2.595240    86A      2.608427  
      87A      2.655371    88A      2.803534    89A      2.815499  
      90A      2.816035    91A      2.832854    92A      2.846311  
      93A      2.883023    94A      2.891351    95A      2.943817  
      96A      2.978205    97A      2.979098    98A      2.995764  
      99A      3.035606   100A      3.137349   101A      3.358156  
     102A      3.358179   103A      3.361681   104A      3.362701  
     105A      3.417792   106A      3.448424   107A      3.571779  
     108A      3.810955   109A      3.866994   110A      4.175089  
     111A      4.246227   112A      4.271053   113A      4.388084  
     114A      4.409035   115A      4.519740   116A      4.523595  
     117A      4.556550   118A      4.707050   119A      4.906778  
     120A      5.013386   121A      5.252604   122A      5.318958  
     123A      5.388084   124A      5.435920   125A      5.635798  
     126A      5.645630   127A      5.777987   128A      6.342214  
     129A      6.655454   130A      6.852246   131A      7.074693  
     132A      7.253718   133A      7.380470   134A      7.398342  
     135A      7.448439   136A      7.509657   137A      7.511899  
     138A      7.735224   139A      7.991246   140A      8.091684  
     141A      8.918920   142A     15.794416  

    Final Occupation by Irrep:
              A 
    DOCC [    14 ]
    NA   [    14 ]
    NB   [    14 ]

  @DF-RHF Final Energy:  -535.64708494699823

   => Energetics <=

    Nuclear Repulsion Energy =             32.2261698250068775
    One-Electron Energy =                -811.4032407752231393
    Two-Electron Energy =                 243.5299860032180277
    Total Energy =                       -535.6470849469982340

Computation Completed


Properties will be evaluated at   0.000000,   0.000000,   0.000000 [a0]

Properties computed using the SCF density matrix


 Multipole Moments:

 ------------------------------------------------------------------------------------
     Multipole            Electronic (a.u.)      Nuclear  (a.u.)        Total (a.u.)
 ------------------------------------------------------------------------------------

 L = 1.  Multiply by 2.5417464519 to convert [e a0] to [Debye]
 Dipole X            :       -136.5798054          129.9427368           -6.6370687
 Dipole Y            :         -1.0707501            1.5926234            0.5218733
 Dipole Z            :         -0.0000000            0.0000000           -0.0000000
 Magnitude           :                                                    6.6575545

 ------------------------------------------------------------------------------------

*** tstop() called on moses-razer at Fri Dec 29 17:34:47 2023
Module time:
	user time   =       5.13 seconds =       0.09 minutes
	system time =       0.44 seconds =       0.01 minutes
	total time  =          1 seconds =       0.02 minutes
Total time:
	user time   =       5.13 seconds =       0.09 minutes
	system time =       0.44 seconds =       0.01 minutes
	total time  =          1 seconds =       0.02 minutes

  //>>>>>>>>>>>>>>>>>>>>>>>>>>>>>>>>>>>//
  //            Monomer A HF           //
  //<<<<<<<<<<<<<<<<<<<<<<<<<<<<<<<<<<<//

   => Libint2 <=

    Primary   basis highest AM E, G, H:  5, 4, 3
    Auxiliary basis highest AM E, G, H:  6, 5, 4
    Onebody   basis highest AM E, G, H:  6, 5, 4
    Solid Harmonics ordering:            gaussian

*** tstart() called on moses-razer
*** at Fri Dec 29 17:34:47 2023

   => Loading Basis Set <=

    Name: AUG-CC-PVTZ
    Role: ORBITAL
    Keyword: BASIS
    atoms 1   entry O          line   331 file /home/kchung25/anaconda3/envs/p415env/share/psi4/basis/aug-cc-pvtz.gbs 
    atoms 2-3 entry H          line    40 file /home/kchung25/anaconda3/envs/p415env/share/psi4/basis/aug-cc-pvtz.gbs 
    atoms 4   entry CL         line   988 file /home/kchung25/anaconda3/envs/p415env/share/psi4/basis/aug-cc-pvtz.gbs 


         ---------------------------------------------------------
                                   SCF
               by Justin Turney, Rob Parrish, Andy Simmonett
                          and Daniel G. A. Smith
                              RHF Reference
                        6 Threads,  57220 MiB Core
         ---------------------------------------------------------

  ==> Geometry <==

    Molecular point group: c1
    Full point group: Cs

    Geometry (in Angstrom), charge = 0, multiplicity = 1:

       Center              X                  Y                   Z               Mass       
    ------------   -----------------  -----------------  -----------------  -----------------
         O            0.000000000000     0.000000000000     0.000000000000    15.994914619570
         H           -0.073994000000     0.955205000000     0.000000000000     1.007825032230
         H            0.981943000000    -0.112425000000     0.000000000000     1.007825032230
      Gh(CL)          3.991458000000     0.000000000000     0.000000000000    34.968852682000

  Running in c1 symmetry.

  Rotational constants: A =     18.08303  B =      0.03021  C =      0.03016 [cm^-1]
  Rotational constants: A = 542115.58388  B =    905.54801  C =    904.03791 [MHz]
  Nuclear repulsion =    9.054399083879867

  Charge       = 0
  Multiplicity = 1
  Electrons    = 10
  Nalpha       = 5
  Nbeta        = 5

  ==> Algorithm <==

  SCF Algorithm Type is DF.
  DIIS enabled.
  MOM disabled.
  Fractional occupation disabled.
  Guess Type is SAD.
  Energy threshold   = 1.00e-08
  Density threshold  = 1.00e-08
  Integral threshold = 1.00e-12

  ==> Primary Basis <==

  Basis Set: AUG-CC-PVTZ
    Blend: AUG-CC-PVTZ
    Number of shells: 48
    Number of basis functions: 142
    Number of Cartesian functions: 164
    Spherical Harmonics?: true
    Max angular momentum: 3

   => Loading Basis Set <=

    Name: (AUG-CC-PVTZ AUX)
    Role: JKFIT
    Keyword: DF_BASIS_SCF
    atoms 1   entry O          line   286 file /home/kchung25/anaconda3/envs/p415env/share/psi4/basis/aug-cc-pvtz-jkfit.gbs 
    atoms 2-3 entry H          line    70 file /home/kchung25/anaconda3/envs/p415env/share/psi4/basis/aug-cc-pvtz-jkfit.gbs 
    atoms 4   entry CL         line   816 file /home/kchung25/anaconda3/envs/p415env/share/psi4/basis/aug-cc-pvtz-jkfit.gbs 

  ==> Integral Setup <==

  ==> DiskDFJK: Density-Fitted J/K Matrices <==

    J tasked:                  Yes
    K tasked:                  Yes
    wK tasked:                  No
    OpenMP threads:              6
    Integrals threads:           6
    Memory [MiB]:            42915
    Algorithm:                Core
    Integral Cache:           LOAD
    Schwarz Cutoff:          1E-12
    Fitting Condition:       1E-10

   => Auxiliary Basis Set <=

  Basis Set: (AUG-CC-PVTZ AUX)
    Blend: AUG-CC-PVTZ-JKFIT
    Number of shells: 100
    Number of basis functions: 342
    Number of Cartesian functions: 421
    Spherical Harmonics?: true
    Max angular momentum: 4

  Minimum eigenvalue in the overlap matrix is 3.7068060406E-04.
  Reciprocal condition number of the overlap matrix is 5.2355055409E-05.
    Using symmetric orthogonalization.

  ==> Pre-Iterations <==

  SCF Guess: Superposition of Atomic Densities via on-the-fly atomic UHF (no occupation information).

   -------------------------
    Irrep   Nso     Nmo    
   -------------------------
     A        142     142 
   -------------------------
    Total     142     142
   -------------------------

  ==> Iterations <==

                           Total Energy        Delta E     RMS |[F,P]|

   @DF-RHF iter SAD:   -75.46304079931829   -7.54630e+01   0.00000e+00 
   @DF-RHF iter   1:   -75.97274098875144   -5.09700e-01   3.29382e-03 DIIS/ADIIS
   @DF-RHF iter   2:   -76.02492833402830   -5.21873e-02   2.28930e-03 DIIS/ADIIS
   @DF-RHF iter   3:   -76.05777485349056   -3.28465e-02   1.56535e-04 DIIS/ADIIS
   @DF-RHF iter   4:   -76.05818486785100   -4.10014e-04   3.84111e-05 DIIS
   @DF-RHF iter   5:   -76.05821262654128   -2.77587e-05   8.99664e-06 DIIS
   @DF-RHF iter   6:   -76.05821499253243   -2.36599e-06   1.95232e-06 DIIS
   @DF-RHF iter   7:   -76.05821511265974   -1.20127e-07   3.31544e-07 DIIS
   @DF-RHF iter   8:   -76.05821511563030   -2.97057e-09   5.58186e-08 DIIS
   @DF-RHF iter   9:   -76.05821511569687   -6.65636e-11   1.38125e-08 DIIS
   @DF-RHF iter  10:   -76.05821511570112   -4.24905e-12   2.26814e-09 DIIS
  Energy and wave function converged.


  ==> Post-Iterations <==

    Orbital Energies [Eh]
    ---------------------

    Doubly Occupied:                                                      

       1A    -20.571527     2A     -1.348233     3A     -0.702417  
       4A     -0.588719     5A     -0.510136  

    Virtual:                                                              

       6A      0.027035     7A      0.044723     8A      0.082694  
       9A      0.087173    10A      0.095700    11A      0.114660  
      12A      0.162914    13A      0.168044    14A      0.181448  
      15A      0.197430    16A      0.249689    17A      0.258194  
      18A      0.273055    19A      0.294885    20A      0.314231  
      21A      0.350422    22A      0.394067    23A      0.404972  
      24A      0.407907    25A      0.421096    26A      0.422121  
      27A      0.432802    28A      0.454896    29A      0.487211  
      30A      0.503406    31A      0.545195    32A      0.598802  
      33A      0.678000    34A      0.706963    35A      0.714832  
      36A      0.731148    37A      0.743468    38A      0.854080  
      39A      0.862051    40A      0.908052    41A      0.916242  
      42A      0.932162    43A      0.935370    44A      0.955094  
      45A      0.983404    46A      1.014873    47A      1.037954  
      48A      1.084316    49A      1.103223    50A      1.162177  
      51A      1.186246    52A      1.261512    53A      1.283626  
      54A      1.283780    55A      1.287076    56A      1.294428  
      57A      1.306528    58A      1.306834    59A      1.348647  
      60A      1.348910    61A      1.418807    62A      1.442686  
      63A      1.459509    64A      1.464656    65A      1.508632  
      66A      1.513933    67A      1.536762    68A      1.556501  
      69A      1.566063    70A      1.599215    71A      1.688442  
      72A      1.857672    73A      1.871033    74A      2.044153  
      75A      2.272590    76A      2.311359    77A      2.346899  
      78A      2.347144    79A      2.430999    80A      2.470938  
      81A      2.480157    82A      2.531400    83A      2.706241  
      84A      2.712196    85A      2.803635    86A      2.815944  
      87A      2.891688    88A      3.645178    89A      3.711799  
      90A      3.909752    91A      3.911096    92A      3.911103  
      93A      3.913653    94A      3.925824    95A      3.929228  
      96A      3.947123    97A      3.965500    98A      3.993913  
      99A      4.006266   100A      4.031428   101A      4.118756  
     102A      4.121298   103A      4.222764   104A      4.243536  
     105A      4.275186   106A      4.378643   107A      4.379918  
     108A      4.407491   109A      4.563169   110A      4.648588  
     111A      4.649545   112A      4.676255   113A      4.682652  
     114A      4.691539   115A      4.801836   116A      4.918306  
     117A      5.106387   118A      5.178104   119A      5.253908  
     120A      5.300681   121A      5.503105   122A      5.619598  
     123A      6.200839   124A      6.515417   125A      6.712044  
     126A      6.932545   127A      7.112663   128A      7.238728  
     129A      7.257052   130A      7.309151   131A      7.368704  
     132A      7.371239   133A      7.588672   134A      7.849793  
     135A      7.949446   136A      8.774966   137A     13.835898  
     138A     15.670271   139A     27.702199   140A     27.709765  
     141A     27.855577   142A    160.727867  

    Final Occupation by Irrep:
              A 
    DOCC [     5 ]
    NA   [     5 ]
    NB   [     5 ]

  @DF-RHF Final Energy:   -76.05821511570112

   => Energetics <=

    Nuclear Repulsion Energy =              9.0543990838798667
    One-Electron Energy =                -122.7831630803153331
    Two-Electron Energy =                  37.6705488807343443
    Total Energy =                        -76.0582151157011168

Computation Completed


Properties will be evaluated at   0.000000,   0.000000,   0.000000 [a0]

Properties computed using the SCF density matrix


 Multipole Moments:

 ------------------------------------------------------------------------------------
     Multipole            Electronic (a.u.)      Nuclear  (a.u.)        Total (a.u.)
 ------------------------------------------------------------------------------------

 L = 1.  Multiply by 2.5417464519 to convert [e a0] to [Debye]
 Dipole X            :         -1.1273909            1.7157749            0.5883840
 Dipole Y            :         -1.0386071            1.5926234            0.5540163
 Dipole Z            :          0.0000000            0.0000000            0.0000000
 Magnitude           :                                                    0.8081645

 ------------------------------------------------------------------------------------

*** tstop() called on moses-razer at Fri Dec 29 17:34:48 2023
Module time:
	user time   =       3.25 seconds =       0.05 minutes
	system time =       0.16 seconds =       0.00 minutes
	total time  =          1 seconds =       0.02 minutes
Total time:
	user time   =       8.41 seconds =       0.14 minutes
	system time =       0.60 seconds =       0.01 minutes
	total time  =          2 seconds =       0.03 minutes

  //>>>>>>>>>>>>>>>>>>>>>>>>>>>>>>>>>>>//
  //            Monomer B HF           //
  //<<<<<<<<<<<<<<<<<<<<<<<<<<<<<<<<<<<//

   => Libint2 <=

    Primary   basis highest AM E, G, H:  5, 4, 3
    Auxiliary basis highest AM E, G, H:  6, 5, 4
    Onebody   basis highest AM E, G, H:  6, 5, 4
    Solid Harmonics ordering:            gaussian

*** tstart() called on moses-razer
*** at Fri Dec 29 17:34:48 2023

   => Loading Basis Set <=

    Name: AUG-CC-PVTZ
    Role: ORBITAL
    Keyword: BASIS
    atoms 1   entry O          line   331 file /home/kchung25/anaconda3/envs/p415env/share/psi4/basis/aug-cc-pvtz.gbs 
    atoms 2-3 entry H          line    40 file /home/kchung25/anaconda3/envs/p415env/share/psi4/basis/aug-cc-pvtz.gbs 
    atoms 4   entry CL         line   988 file /home/kchung25/anaconda3/envs/p415env/share/psi4/basis/aug-cc-pvtz.gbs 


         ---------------------------------------------------------
                                   SCF
               by Justin Turney, Rob Parrish, Andy Simmonett
                          and Daniel G. A. Smith
                              RHF Reference
                        6 Threads,  57220 MiB Core
         ---------------------------------------------------------

  ==> Geometry <==

    Molecular point group: c1
    Full point group: Cs

    Geometry (in Angstrom), charge = -1, multiplicity = 1:

       Center              X                  Y                   Z               Mass       
    ------------   -----------------  -----------------  -----------------  -----------------
      Gh(O)           0.000000000000     0.000000000000     0.000000000000    15.994914619570
      Gh(H)          -0.073994000000     0.955205000000     0.000000000000     1.007825032230
      Gh(H)           0.981943000000    -0.112425000000     0.000000000000     1.007825032230
         CL           3.991458000000     0.000000000000     0.000000000000    34.968852682000

  Running in c1 symmetry.

  Rotational constants: A =     18.08303  B =      0.03021  C =      0.03016 [cm^-1]
  Rotational constants: A = 542115.58388  B =    905.54801  C =    904.03791 [MHz]
  Nuclear repulsion =    0.000000000000000

  Charge       = -1
  Multiplicity = 1
  Electrons    = 18
  Nalpha       = 9
  Nbeta        = 9

  ==> Algorithm <==

  SCF Algorithm Type is DF.
  DIIS enabled.
  MOM disabled.
  Fractional occupation disabled.
  Guess Type is SAD.
  Energy threshold   = 1.00e-08
  Density threshold  = 1.00e-08
  Integral threshold = 1.00e-12

  ==> Primary Basis <==

  Basis Set: AUG-CC-PVTZ
    Blend: AUG-CC-PVTZ
    Number of shells: 48
    Number of basis functions: 142
    Number of Cartesian functions: 164
    Spherical Harmonics?: true
    Max angular momentum: 3

   => Loading Basis Set <=

    Name: (AUG-CC-PVTZ AUX)
    Role: JKFIT
    Keyword: DF_BASIS_SCF
    atoms 1   entry O          line   286 file /home/kchung25/anaconda3/envs/p415env/share/psi4/basis/aug-cc-pvtz-jkfit.gbs 
    atoms 2-3 entry H          line    70 file /home/kchung25/anaconda3/envs/p415env/share/psi4/basis/aug-cc-pvtz-jkfit.gbs 
    atoms 4   entry CL         line   816 file /home/kchung25/anaconda3/envs/p415env/share/psi4/basis/aug-cc-pvtz-jkfit.gbs 

  ==> Integral Setup <==

  ==> DiskDFJK: Density-Fitted J/K Matrices <==

    J tasked:                  Yes
    K tasked:                  Yes
    wK tasked:                  No
    OpenMP threads:              6
    Integrals threads:           6
    Memory [MiB]:            42915
    Algorithm:                Core
    Integral Cache:           LOAD
    Schwarz Cutoff:          1E-12
    Fitting Condition:       1E-10

   => Auxiliary Basis Set <=

  Basis Set: (AUG-CC-PVTZ AUX)
    Blend: AUG-CC-PVTZ-JKFIT
    Number of shells: 100
    Number of basis functions: 342
    Number of Cartesian functions: 421
    Spherical Harmonics?: true
    Max angular momentum: 4

  Minimum eigenvalue in the overlap matrix is 3.7068060406E-04.
  Reciprocal condition number of the overlap matrix is 5.2355055409E-05.
    Using symmetric orthogonalization.

  ==> Pre-Iterations <==

  SCF Guess: Superposition of Atomic Densities via on-the-fly atomic UHF (no occupation information).

   -------------------------
    Irrep   Nso     Nmo    
   -------------------------
     A        142     142 
   -------------------------
    Total     142     142
   -------------------------

  ==> Iterations <==

                           Total Energy        Delta E     RMS |[F,P]|

   @DF-RHF iter SAD:  -459.11248995231307   -4.59112e+02   0.00000e+00 
   @DF-RHF iter   1:  -459.51389011118346   -4.01400e-01   2.09972e-03 DIIS/ADIIS
   @DF-RHF iter   2:  -459.56473749980125   -5.08474e-02   1.07256e-03 DIIS/ADIIS
   @DF-RHF iter   3:  -459.57343453479729   -8.69703e-03   7.02745e-05 DIIS
   @DF-RHF iter   4:  -459.57348873968152   -5.42049e-05   1.45710e-05 DIIS
   @DF-RHF iter   5:  -459.57349249192424   -3.75224e-06   1.50124e-06 DIIS
   @DF-RHF iter   6:  -459.57349256532802   -7.34038e-08   8.48711e-08 DIIS
   @DF-RHF iter   7:  -459.57349256557654   -2.48519e-10   1.12696e-08 DIIS
   @DF-RHF iter   8:  -459.57349256558518   -8.64020e-12   2.26386e-09 DIIS
  Energy and wave function converged.


  ==> Post-Iterations <==

    Orbital Energies [Eh]
    ---------------------

    Doubly Occupied:                                                      

       1A   -104.506099     2A    -10.229773     3A     -7.695813  
       4A     -7.695812     5A     -7.695797     6A     -0.733506  
       7A     -0.150337     8A     -0.150330     9A     -0.150329  

    Virtual:                                                              

      10A      0.126166    11A      0.167376    12A      0.234113  
      13A      0.239859    14A      0.250112    15A      0.284948  
      16A      0.293450    17A      0.297620    18A      0.300354  
      19A      0.386799    20A      0.406663    21A      0.410839  
      22A      0.419400    23A      0.457806    24A      0.484227  
      25A      0.509304    26A      0.552913    27A      0.576224  
      28A      0.595750    29A      0.602844    30A      0.634296  
      31A      0.671032    32A      0.697489    33A      0.784847  
      34A      0.793370    35A      0.891132    36A      0.894285  
      37A      0.911293    38A      0.926791    39A      0.929730  
      40A      0.955118    41A      0.976644    42A      0.978696  
      43A      1.031599    44A      1.050636    45A      1.083798  
      46A      1.090723    47A      1.121944    48A      1.129869  
      49A      1.170613    50A      1.179951    51A      1.209483  
      52A      1.223813    53A      1.228375    54A      1.253678  
      55A      1.257971    56A      1.282980    57A      1.298527  
      58A      1.320279    59A      1.348509    60A      1.407230  
      61A      1.468183    62A      1.468204    63A      1.484348  
      64A      1.493774    65A      1.550365    66A      1.565990  
      67A      1.586701    68A      1.674366    69A      1.816824  
      70A      1.831008    71A      1.904822    72A      1.909901  
      73A      1.933297    74A      2.071100    75A      2.238342  
      76A      2.536622    77A      2.551947    78A      2.655725  
      79A      2.670991    80A      2.688507    81A      2.696840  
      82A      2.711777    83A      2.756367    84A      2.831844  
      85A      2.832428    86A      2.865357    87A      2.868229  
      88A      2.903441    89A      2.993039    90A      2.994781  
      91A      3.026782    92A      3.124479    93A      3.283694  
      94A      3.283849    95A      3.373212    96A      3.373485  
      97A      3.373697    98A      3.378484    99A      3.382452  
     100A      3.383877   101A      3.433753   102A      3.513991  
     103A      3.524803   104A      3.578725   105A      3.715472  
     106A      3.884715   107A      4.514481   108A      4.554881  
     109A      4.585454   110A      4.700835   111A      4.775494  
     112A      4.822521   113A      4.991382   114A      4.992568  
     115A      5.057059   116A      5.372264   117A      5.624308  
     118A      5.688229   119A      5.704929   120A      5.764390  
     121A      6.004867   122A      6.257883   123A      6.473742  
     124A      6.690651   125A      7.161545   126A      7.794100  
     127A      7.983884   128A      8.141463   129A      8.244771  
     130A      8.397751   131A      8.841149   132A      8.966183  
     133A      9.752033   134A      9.966817   135A     10.122796  
     136A     10.377452   137A     11.300528   138A     11.729870  
     139A     12.118999   140A     13.601081   141A     13.957264  
     142A     64.609154  

    Final Occupation by Irrep:
              A 
    DOCC [     9 ]
    NA   [     9 ]
    NB   [     9 ]

  @DF-RHF Final Energy:  -459.57349256558518

   => Energetics <=

    Nuclear Repulsion Energy =              0.0000000000000000
    One-Electron Energy =                -641.1313926639519423
    Two-Electron Energy =                 181.5579000983667584
    Total Energy =                       -459.5734925655851839

Computation Completed


Properties will be evaluated at   0.000000,   0.000000,   0.000000 [a0]

Properties computed using the SCF density matrix


 Multipole Moments:

 ------------------------------------------------------------------------------------
     Multipole            Electronic (a.u.)      Nuclear  (a.u.)        Total (a.u.)
 ------------------------------------------------------------------------------------

 L = 1.  Multiply by 2.5417464519 to convert [e a0] to [Debye]
 Dipole X            :       -135.7697572          128.2269618           -7.5427954
 Dipole Y            :         -0.0000321            0.0000000           -0.0000321
 Dipole Z            :         -0.0000000            0.0000000           -0.0000000
 Magnitude           :                                                    7.5427954

 ------------------------------------------------------------------------------------

*** tstop() called on moses-razer at Fri Dec 29 17:34:48 2023
Module time:
	user time   =       3.48 seconds =       0.06 minutes
	system time =       0.31 seconds =       0.01 minutes
	total time  =          0 seconds =       0.00 minutes
Total time:
	user time   =      11.92 seconds =       0.20 minutes
	system time =       0.91 seconds =       0.02 minutes
	total time  =          2 seconds =       0.03 minutes
  Constructing Basis Sets for SAPT...

   => Loading Basis Set <=

    Name: (AUG-CC-PVTZ AUX)
    Role: RIFIT
    Keyword: DF_BASIS_SAPT
    atoms 1   entry O          line   264 file /home/kchung25/anaconda3/envs/p415env/share/psi4/basis/aug-cc-pvtz-ri.gbs 
    atoms 2-3 entry H          line    30 file /home/kchung25/anaconda3/envs/p415env/share/psi4/basis/aug-cc-pvtz-ri.gbs 
    atoms 4   entry CL         line   742 file /home/kchung25/anaconda3/envs/p415env/share/psi4/basis/aug-cc-pvtz-ri.gbs 

   => Loading Basis Set <=

    Name: (AUG-CC-PVTZ AUX)
    Role: JKFIT
    Keyword: DF_BASIS_ELST
    atoms 1   entry O          line   286 file /home/kchung25/anaconda3/envs/p415env/share/psi4/basis/aug-cc-pvtz-jkfit.gbs 
    atoms 2-3 entry H          line    70 file /home/kchung25/anaconda3/envs/p415env/share/psi4/basis/aug-cc-pvtz-jkfit.gbs 
    atoms 4   entry CL         line   816 file /home/kchung25/anaconda3/envs/p415env/share/psi4/basis/aug-cc-pvtz-jkfit.gbs 


  //>>>>>>>>>>>>>>>>>>>>>>>>>>>>>>>>>>>//
  //               SAPT2+              //
  //<<<<<<<<<<<<<<<<<<<<<<<<<<<<<<<<<<<//


*** tstart() called on moses-razer
*** at Fri Dec 29 17:34:49 2023

        SAPT2+  
    Ed Hohenstein
     6 June 2009

      Orbital Information
  --------------------------
    NSO        =       142
    NMO        =       142
    NRI        =       345
    NOCC A     =         5
    NOCC B     =         9
    FOCC A     =         0
    FOCC B     =         0
    NVIR A     =       137
    NVIR B     =       133

    Estimated memory usage: 88.3 MB

    Natural Orbital Cutoff:   1.000E-06
    Disp(T3) Truncation:            Yes
    CCD (vv|vv) Truncation:         Yes
    MBPT T2 Truncation:             Yes

    Monomer A: 59 virtual orbitals dropped
    Monomer B: 83 virtual orbitals dropped

    Elst10,r            =    -0.014476137467 [Eh]
    Exch10 (S^2)        =     0.001851179613 [Eh]
    Exch10              =     0.001854220483 [Eh]
    Ind20,r (A<-B)      =    -0.001909068306 [Eh]
    Ind20,r (B<-A)      =    -0.001455520563 [Eh]
    Ind20,r             =    -0.003364588868 [Eh]
    Exch-Ind20,r (A<-B) =     0.000059780393 [Eh]
    Exch-Ind20,r (B<-A) =     0.000944922110 [Eh]
    Exch-Ind20,r        =     0.001004702503 [Eh]
    Disp20              =    -0.001624726352 [Eh]
    Disp20 (NO)         =    -0.001378798533 [Eh]
    Exch-Disp20         =     0.000241262961 [Eh]
    Elst12,r            =     0.000501958494 [Eh]
    Exch11              =     0.000095178338 [Eh]
    Exch12              =     0.000257202948 [Eh]
    Ind22               =    -0.000376631867 [Eh]
    Disp21              =     0.000060629557 [Eh]
    Disp22 (SDQ)        =    -0.000017879539 [Eh]

    (i =   1 of   9)          0 seconds
    (i =   2 of   9)          0 seconds
    (i =   3 of   9)          0 seconds
    (i =   4 of   9)          0 seconds
    (i =   5 of   9)          0 seconds
    (i =   6 of   9)          0 seconds
    (i =   7 of   9)          0 seconds
    (i =   8 of   9)          1 seconds
    (i =   9 of   9)          1 seconds

    Disp220 (T)         =    -0.000154295303 [Eh]

    (i =   1 of   5)          0 seconds
    (i =   2 of   5)          0 seconds
    (i =   3 of   5)          0 seconds
    (i =   4 of   5)          0 seconds
    (i =   5 of   5)          0 seconds

    Disp202 (T)         =    -0.000124037823 [Eh]

    Disp22 (T)          =    -0.000278333126 [Eh]

    Est. Disp220 (T)    =    -0.000181816008 [Eh]
    Est. Disp202 (T)    =    -0.000146161686 [Eh]

    Est. Disp22 (T)     =    -0.000327977695 [Eh]

    SAPT Results 
  --------------------------------------------------------------------------------------------------------
    Electrostatics                -13.97417897 [mEh]      -8.76892969 [kcal/mol]     -36.68920184 [kJ/mol]
      Elst10,r                    -14.47613747 [mEh]      -9.08391340 [kcal/mol]     -38.00709368 [kJ/mol]
      Elst12,r                      0.50195849 [mEh]       0.31498371 [kcal/mol]       1.31789184 [kJ/mol]

    Exchange                        2.20660177 [mEh]       1.38466351 [kcal/mol]       5.79343215 [kJ/mol]
      Exch10                        1.85422048 [mEh]       1.16354092 [kcal/mol]       4.86825521 [kJ/mol]
      Exch10(S^2)                   1.85117961 [mEh]       1.16163274 [kcal/mol]       4.86027140 [kJ/mol]
      Exch11(S^2)                   0.09517834 [mEh]       0.05972531 [kcal/mol]       0.24989069 [kJ/mol]
      Exch12(S^2)                   0.25720295 [mEh]       0.16139729 [kcal/mol]       0.67528625 [kJ/mol]

    Induction                      -3.01951426 [mEh]      -1.89477380 [kcal/mol]      -7.92773360 [kJ/mol]
      Ind20,r                      -3.36458887 [mEh]      -2.11131139 [kcal/mol]      -8.83372686 [kJ/mol]
      Ind22                        -0.37663187 [mEh]      -0.23634006 [kcal/mol]      -0.98884683 [kJ/mol]
      Exch-Ind20,r                  1.00470250 [mEh]       0.63046034 [kcal/mol]       2.63784606 [kJ/mol]
      Exch-Ind22                    0.11246634 [mEh]       0.07057369 [kcal/mol]       0.29528032 [kJ/mol]
      delta HF,r (2)               -0.39546236 [mEh]      -0.24815638 [kcal/mol]      -1.03828629 [kJ/mol]

    Dispersion                     -1.66869107 [mEh]      -1.04711945 [kcal/mol]      -4.38114780 [kJ/mol]
      Disp20                       -1.62472635 [mEh]      -1.01953118 [kcal/mol]      -4.26571845 [kJ/mol]
      Disp21                        0.06062956 [mEh]       0.03804562 [kcal/mol]       0.15918288 [kJ/mol]
      Disp22 (SDQ)                 -0.01787954 [mEh]      -0.01121958 [kcal/mol]      -0.04694272 [kJ/mol]
      Disp22 (T)                   -0.27833313 [mEh]      -0.17465667 [kcal/mol]      -0.73076352 [kJ/mol]
      Est. Disp22 (T)              -0.32797769 [mEh]      -0.20580911 [kcal/mol]      -0.86110532 [kJ/mol]
      Exch-Disp20                   0.24126296 [mEh]       0.15139479 [kcal/mol]       0.63343582 [kJ/mol]

  Total HF                        -15.37726571 [mEh]      -9.64937992 [kcal/mol]     -40.37300556 [kJ/mol]
  Total SAPT0                     -16.76072910 [mEh]     -10.51751630 [kcal/mol]     -44.00528820 [kJ/mol]
  Total SAPT2                     -16.17055485 [mEh]     -10.14717637 [kcal/mol]     -42.45578592 [kJ/mol]
  Total SAPT2+                    -16.45578253 [mEh]     -10.32615944 [kcal/mol]     -43.20465108 [kJ/mol]

  Special recipe for scaled SAPT0 (see Manual):
    Electrostatics sSAPT0         -14.47613747 [mEh]      -9.08391340 [kcal/mol]     -38.00709368 [kJ/mol]
    Exchange sSAPT0                 1.85422048 [mEh]       1.16354092 [kcal/mol]       4.86825521 [kJ/mol]
    Induction sSAPT0               -2.75038942 [mEh]      -1.72589542 [kcal/mol]      -7.22114642 [kJ/mol]
    Dispersion sSAPT0              -1.38227249 [mEh]      -0.86738909 [kcal/mol]      -3.62915593 [kJ/mol]
  Total sSAPT0                    -16.75457889 [mEh]     -10.51365699 [kcal/mol]     -43.98914083 [kJ/mol]
  --------------------------------------------------------------------------------------------------------

*** tstop() called on moses-razer at Fri Dec 29 17:34:54 2023
Module time:
	user time   =      31.71 seconds =       0.53 minutes
	system time =       1.62 seconds =       0.03 minutes
	total time  =          5 seconds =       0.08 minutes
Total time:
	user time   =      43.91 seconds =       0.73 minutes
	system time =       2.54 seconds =       0.04 minutes
	total time  =          8 seconds =       0.13 minutes

    Psi4 stopped on: Friday, 29 December 2023 05:34PM
    Psi4 wall time for execution: 0:00:08.62

*** Psi4 exiting successfully. Buy a developer a beer!
