
    -----------------------------------------------------------------------
          Psi4: An Open-Source Ab Initio Electronic Structure Package
                               Psi4 1.9 release

                         Git: Rev {} zzzzzzz 


    D. G. A. Smith, L. A. Burns, A. C. Simmonett, R. M. Parrish,
    M. C. Schieber, R. Galvelis, P. Kraus, H. Kruse, R. Di Remigio,
    A. Alenaizan, A. M. James, S. Lehtola, J. P. Misiewicz, M. Scheurer,
    R. A. Shaw, J. B. Schriber, Y. Xie, Z. L. Glick, D. A. Sirianni,
    J. S. O'Brien, J. M. Waldrop, A. Kumar, E. G. Hohenstein,
    B. P. Pritchard, B. R. Brooks, H. F. Schaefer III, A. Yu. Sokolov,
    K. Patkowski, A. E. DePrince III, U. Bozkaya, R. A. King,
    F. A. Evangelista, J. M. Turney, T. D. Crawford, C. D. Sherrill,
    J. Chem. Phys. 152(18) 184108 (2020). https://doi.org/10.1063/5.0006002

                            Additional Code Authors
    E. T. Seidl, C. L. Janssen, E. F. Valeev, M. L. Leininger,
    J. F. Gonthier, R. M. Richard, H. R. McAlexander, M. Saitow, X. Wang,
    P. Verma, M. H. Lechner, A. Jiang, S. Behnle, A. G. Heide,
    M. F. Herbst, and D. L. Poole

             Previous Authors, Complete List of Code Contributors,
                       and Citations for Specific Modules
    https://github.com/psi4/psi4/blob/master/codemeta.json
    https://github.com/psi4/psi4/graphs/contributors
    http://psicode.org/psi4manual/master/introduction.html#citing-psifour

    -----------------------------------------------------------------------


    Psi4 started on: Friday, 29 December 2023 05:35PM

    Process ID: 159355
    Host:       moses-razer
    PSIDATADIR: /home/kchung25/anaconda3/envs/psi4_19/share/psi4
    Memory:     500.0 MiB
    Threads:    6
    
  ==> Input File <==

--------------------------------------------------------------------------
MEMORY 60 GB

molecule dimer {
0 1
O      0.000000     0.000000     0.000000
H     -0.077717     0.955172     0.000000
H      0.978490    -0.109698     0.000000
--
-1 1
Br     2.890859     0.000000     0.000000

units ang
no_reorient
no_com
symmetry c1
}

set {
basis        aug-cc-pVTZ
scf_type     df
}

energy("sapt2+")
--------------------------------------------------------------------------

  Memory set to  55.879 GiB by Python driver.

Scratch directory: /scratch/
   => Loading Basis Set <=

    Name: AUG-CC-PVTZ
    Role: ORBITAL
    Keyword: BASIS
    atoms 1   entry O          line   331 file /home/kchung25/anaconda3/envs/p415env/share/psi4/basis/aug-cc-pvtz.gbs 
    atoms 2-3 entry H          line    40 file /home/kchung25/anaconda3/envs/p415env/share/psi4/basis/aug-cc-pvtz.gbs 
    atoms 4   entry BR         line  4564 file /home/kchung25/anaconda3/envs/p415env/share/psi4/basis/aug-cc-pvtz.gbs 

   => Loading Basis Set <=

    Name: AUG-CC-PVTZ
    Role: ORBITAL
    Keyword: BASIS
    atoms 1   entry O          line   331 file /home/kchung25/anaconda3/envs/p415env/share/psi4/basis/aug-cc-pvtz.gbs 
    atoms 2-3 entry H          line    40 file /home/kchung25/anaconda3/envs/p415env/share/psi4/basis/aug-cc-pvtz.gbs 
    atoms 4   entry BR         line  4564 file /home/kchung25/anaconda3/envs/p415env/share/psi4/basis/aug-cc-pvtz.gbs 


  //>>>>>>>>>>>>>>>>>>>>>>>>>>>>>>>>>>>//
  //              Dimer HF             //
  //<<<<<<<<<<<<<<<<<<<<<<<<<<<<<<<<<<<//

   => Libint2 <=

    Primary   basis highest AM E, G, H:  5, 4, 3
    Auxiliary basis highest AM E, G, H:  6, 5, 4
    Onebody   basis highest AM E, G, H:  6, 5, 4
    Solid Harmonics ordering:            gaussian

*** tstart() called on moses-razer
*** at Fri Dec 29 17:35:50 2023

   => Loading Basis Set <=

    Name: AUG-CC-PVTZ
    Role: ORBITAL
    Keyword: BASIS
    atoms 1   entry O          line   331 file /home/kchung25/anaconda3/envs/p415env/share/psi4/basis/aug-cc-pvtz.gbs 
    atoms 2-3 entry H          line    40 file /home/kchung25/anaconda3/envs/p415env/share/psi4/basis/aug-cc-pvtz.gbs 
    atoms 4   entry BR         line  4564 file /home/kchung25/anaconda3/envs/p415env/share/psi4/basis/aug-cc-pvtz.gbs 


         ---------------------------------------------------------
                                   SCF
               by Justin Turney, Rob Parrish, Andy Simmonett
                          and Daniel G. A. Smith
                              RHF Reference
                        6 Threads,  57220 MiB Core
         ---------------------------------------------------------

  ==> Geometry <==

    Molecular point group: c1
    Full point group: Cs

    Geometry (in Angstrom), charge = -1, multiplicity = 1:

       Center              X                  Y                   Z               Mass       
    ------------   -----------------  -----------------  -----------------  -----------------
         O            0.000000000000     0.000000000000     0.000000000000    15.994914619570
         H           -0.077717000000     0.955172000000     0.000000000000     1.007825032230
         H            0.978490000000    -0.109698000000     0.000000000000     1.007825032230
         BR           2.890859000000     0.000000000000     0.000000000000    78.918337600000

  Running in c1 symmetry.

  Rotational constants: A =     18.09594  B =      0.02552  C =      0.02549 [cm^-1]
  Rotational constants: A = 542502.57371  B =    765.14981  C =    764.07216 [MHz]
  Nuclear repulsion =   75.932669648518157

  Charge       = -1
  Multiplicity = 1
  Electrons    = 46
  Nalpha       = 23
  Nbeta        = 23

  ==> Algorithm <==

  SCF Algorithm Type is DF.
  DIIS enabled.
  MOM disabled.
  Fractional occupation disabled.
  Guess Type is SAD.
  Energy threshold   = 1.00e-08
  Density threshold  = 1.00e-08
  Integral threshold = 1.00e-12

  ==> Primary Basis <==

  Basis Set: AUG-CC-PVTZ
    Blend: AUG-CC-PVTZ
    Number of shells: 51
    Number of basis functions: 151
    Number of Cartesian functions: 174
    Spherical Harmonics?: true
    Max angular momentum: 3

   => Loading Basis Set <=

    Name: (AUG-CC-PVTZ AUX)
    Role: JKFIT
    Keyword: DF_BASIS_SCF
    atoms 1   entry O          line   286 file /home/kchung25/anaconda3/envs/p415env/share/psi4/basis/aug-cc-pvtz-jkfit.gbs 
    atoms 2-3 entry H          line    70 file /home/kchung25/anaconda3/envs/p415env/share/psi4/basis/aug-cc-pvtz-jkfit.gbs 
    atoms 4   entry BR         line  1492 file /home/kchung25/anaconda3/envs/p415env/share/psi4/basis/aug-cc-pvtz-jkfit.gbs 

  ==> Integral Setup <==

  ==> DiskDFJK: Density-Fitted J/K Matrices <==

    J tasked:                  Yes
    K tasked:                  Yes
    wK tasked:                  No
    OpenMP threads:              6
    Integrals threads:           6
    Memory [MiB]:            42915
    Algorithm:                Core
    Integral Cache:           SAVE
    Schwarz Cutoff:          1E-12
    Fitting Condition:       1E-10

   => Auxiliary Basis Set <=

  Basis Set: (AUG-CC-PVTZ AUX)
    Blend: AUG-CC-PVTZ-JKFIT
    Number of shells: 116
    Number of basis functions: 444
    Number of Cartesian functions: 570
    Spherical Harmonics?: true
    Max angular momentum: 4

  Minimum eigenvalue in the overlap matrix is 2.4515513646E-04.
  Reciprocal condition number of the overlap matrix is 3.1016840621E-05.
    Using symmetric orthogonalization.

  ==> Pre-Iterations <==

  SCF Guess: Superposition of Atomic Densities via on-the-fly atomic UHF (no occupation information).

   -------------------------
    Irrep   Nso     Nmo    
   -------------------------
     A        151     151 
   -------------------------
    Total     151     151
   -------------------------

  ==> Iterations <==

                           Total Energy        Delta E     RMS |[F,P]|

   @DF-RHF iter SAD: -2646.08915862559979   -2.64609e+03   0.00000e+00 
   @DF-RHF iter   1: -2648.26877071390300   -2.17961e+00   7.54084e-03 DIIS/ADIIS
   @DF-RHF iter   2: -2648.51042659152154   -2.41656e-01   4.17815e-03 DIIS/ADIIS
   @DF-RHF iter   3: -2648.59454949424207   -8.41229e-02   2.69796e-04 DIIS/ADIIS
   @DF-RHF iter   4: -2648.59526682203068   -7.17328e-04   1.31134e-04 DIIS/ADIIS
   @DF-RHF iter   5: -2648.59542958630573   -1.62764e-04   2.00737e-05 DIIS
   @DF-RHF iter   6: -2648.59544186170660   -1.22754e-05   4.82608e-06 DIIS
   @DF-RHF iter   7: -2648.59544264067426   -7.78968e-07   1.44230e-06 DIIS
   @DF-RHF iter   8: -2648.59544270235028   -6.16760e-08   3.84116e-07 DIIS
   @DF-RHF iter   9: -2648.59544270751485   -5.16457e-09   7.98037e-08 DIIS
   @DF-RHF iter  10: -2648.59544270769993   -1.85082e-10   1.76789e-08 DIIS
   @DF-RHF iter  11: -2648.59544270771175   -1.18234e-11   4.17407e-09 DIIS
  Energy and wave function converged.


  ==> Post-Iterations <==

    Orbital Energies [Eh]
    ---------------------

    Doubly Occupied:                                                      

       1A   -489.742845     2A    -64.883595     3A    -58.238045  
       4A    -58.238031     5A    -58.238007     6A    -20.358384  
       7A     -9.556531     8A     -7.164244     9A     -7.163909  
      10A     -7.163829    11A     -2.905801    12A     -2.905645  
      13A     -2.905550    14A     -2.905408    15A     -2.905399  
      16A     -1.148427    17A     -0.724273    18A     -0.506484  
      19A     -0.398653    20A     -0.309237    21A     -0.168736  
      22A     -0.166616    23A     -0.165706  

    Virtual:                                                              

      24A      0.143148    25A      0.172693    26A      0.228865  
      27A      0.240904    28A      0.249180    29A      0.280682  
      30A      0.302969    31A      0.306686    32A      0.341851  
      33A      0.353306    34A      0.416274    35A      0.416927  
      36A      0.429099    37A      0.482612    38A      0.483456  
      39A      0.491328    40A      0.536256    41A      0.554511  
      42A      0.582114    43A      0.609165    44A      0.617358  
      45A      0.647336    46A      0.715941    47A      0.739956  
      48A      0.750893    49A      0.751738    50A      0.815741  
      51A      0.879350    52A      0.885150    53A      0.899826  
      54A      0.905259    55A      0.975078    56A      1.003247  
      57A      1.009227    58A      1.013624    59A      1.051832  
      60A      1.055155    61A      1.080952    62A      1.100931  
      63A      1.113929    64A      1.119423    65A      1.159655  
      66A      1.180379    67A      1.183185    68A      1.199103  
      69A      1.214572    70A      1.243081    71A      1.276790  
      72A      1.279158    73A      1.316551    74A      1.398657  
      75A      1.429774    76A      1.457408    77A      1.506600  
      78A      1.524945    79A      1.609354    80A      1.700601  
      81A      1.714059    82A      1.742418    83A      1.742644  
      84A      1.794051    85A      1.854472    86A      2.080898  
      87A      2.109689    88A      2.217008    89A      2.410890  
      90A      2.430941    91A      2.463231    92A      2.470949  
      93A      2.526299    94A      2.549113    95A      2.557666  
      96A      2.565769    97A      2.567523    98A      2.568718  
      99A      2.588115   100A      2.596588   101A      2.616705  
     102A      2.633451   103A      2.639812   104A      2.662214  
     105A      2.692590   106A      2.702922   107A      2.728441  
     108A      2.832944   109A      2.873681   110A      2.880230  
     111A      2.935016   112A      2.970715   113A      3.045474  
     114A      3.146816   115A      3.173315   116A      3.381218  
     117A      3.897245   118A      4.221073   119A      4.257953  
     120A      4.357240   121A      4.407052   122A      4.468530  
     123A      4.477454   124A      4.581829   125A      4.607572  
     126A      4.684976   127A      4.794661   128A      5.020977  
     129A      5.174327   130A      5.275579   131A      5.324281  
     132A      5.427695   133A      5.494079   134A      5.598357  
     135A      5.722197   136A      5.882794   137A      6.437284  
     138A      6.734740   139A      6.951165   140A      7.162248  
     141A      7.321213   142A      7.478150   143A      7.483004  
     144A      7.513093   145A      7.602823   146A      7.676360  
     147A      7.854340   148A      8.146810   149A      8.183289  
     150A      9.037979   151A     16.507690  

    Final Occupation by Irrep:
              A 
    DOCC [    23 ]
    NA   [    23 ]
    NB   [    23 ]

  @DF-RHF Final Energy: -2648.59544270771175

   => Energetics <=

    Nuclear Repulsion Energy =             75.9326696485181571
    One-Electron Energy =               -3851.3295169530092608
    Two-Electron Energy =                1126.8014045967795482
    Total Energy =                      -2648.5954427077112996

Computation Completed


Properties will be evaluated at   0.000000,   0.000000,   0.000000 [a0]

Properties computed using the SCF density matrix


 Multipole Moments:

 ------------------------------------------------------------------------------------
     Multipole            Electronic (a.u.)      Nuclear  (a.u.)        Total (a.u.)
 ------------------------------------------------------------------------------------

 L = 1.  Multiply by 2.5417464519 to convert [e a0] to [Debye]
 Dipole X            :       -197.1724766          192.9048265           -4.2676501
 Dipole Y            :         -1.1144520            1.5977143            0.4832623
 Dipole Z            :         -0.0000000            0.0000000           -0.0000000
 Magnitude           :                                                    4.2949249

 ------------------------------------------------------------------------------------

*** tstop() called on moses-razer at Fri Dec 29 17:35:53 2023
Module time:
	user time   =       9.99 seconds =       0.17 minutes
	system time =       1.22 seconds =       0.02 minutes
	total time  =          3 seconds =       0.05 minutes
Total time:
	user time   =       9.99 seconds =       0.17 minutes
	system time =       1.22 seconds =       0.02 minutes
	total time  =          3 seconds =       0.05 minutes

  //>>>>>>>>>>>>>>>>>>>>>>>>>>>>>>>>>>>//
  //            Monomer A HF           //
  //<<<<<<<<<<<<<<<<<<<<<<<<<<<<<<<<<<<//

   => Libint2 <=

    Primary   basis highest AM E, G, H:  5, 4, 3
    Auxiliary basis highest AM E, G, H:  6, 5, 4
    Onebody   basis highest AM E, G, H:  6, 5, 4
    Solid Harmonics ordering:            gaussian

*** tstart() called on moses-razer
*** at Fri Dec 29 17:35:53 2023

   => Loading Basis Set <=

    Name: AUG-CC-PVTZ
    Role: ORBITAL
    Keyword: BASIS
    atoms 1   entry O          line   331 file /home/kchung25/anaconda3/envs/p415env/share/psi4/basis/aug-cc-pvtz.gbs 
    atoms 2-3 entry H          line    40 file /home/kchung25/anaconda3/envs/p415env/share/psi4/basis/aug-cc-pvtz.gbs 
    atoms 4   entry BR         line  4564 file /home/kchung25/anaconda3/envs/p415env/share/psi4/basis/aug-cc-pvtz.gbs 


         ---------------------------------------------------------
                                   SCF
               by Justin Turney, Rob Parrish, Andy Simmonett
                          and Daniel G. A. Smith
                              RHF Reference
                        6 Threads,  57220 MiB Core
         ---------------------------------------------------------

  ==> Geometry <==

    Molecular point group: c1
    Full point group: Cs

    Geometry (in Angstrom), charge = 0, multiplicity = 1:

       Center              X                  Y                   Z               Mass       
    ------------   -----------------  -----------------  -----------------  -----------------
         O            0.000000000000     0.000000000000     0.000000000000    15.994914619570
         H           -0.077717000000     0.955172000000     0.000000000000     1.007825032230
         H            0.978490000000    -0.109698000000     0.000000000000     1.007825032230
      Gh(BR)          2.890859000000     0.000000000000     0.000000000000    78.918337600000

  Running in c1 symmetry.

  Rotational constants: A =     18.09594  B =      0.02552  C =      0.02549 [cm^-1]
  Rotational constants: A = 542502.57371  B =    765.14981  C =    764.07216 [MHz]
  Nuclear repulsion =    9.069869174208053

  Charge       = 0
  Multiplicity = 1
  Electrons    = 10
  Nalpha       = 5
  Nbeta        = 5

  ==> Algorithm <==

  SCF Algorithm Type is DF.
  DIIS enabled.
  MOM disabled.
  Fractional occupation disabled.
  Guess Type is SAD.
  Energy threshold   = 1.00e-08
  Density threshold  = 1.00e-08
  Integral threshold = 1.00e-12

  ==> Primary Basis <==

  Basis Set: AUG-CC-PVTZ
    Blend: AUG-CC-PVTZ
    Number of shells: 51
    Number of basis functions: 151
    Number of Cartesian functions: 174
    Spherical Harmonics?: true
    Max angular momentum: 3

   => Loading Basis Set <=

    Name: (AUG-CC-PVTZ AUX)
    Role: JKFIT
    Keyword: DF_BASIS_SCF
    atoms 1   entry O          line   286 file /home/kchung25/anaconda3/envs/p415env/share/psi4/basis/aug-cc-pvtz-jkfit.gbs 
    atoms 2-3 entry H          line    70 file /home/kchung25/anaconda3/envs/p415env/share/psi4/basis/aug-cc-pvtz-jkfit.gbs 
    atoms 4   entry BR         line  1492 file /home/kchung25/anaconda3/envs/p415env/share/psi4/basis/aug-cc-pvtz-jkfit.gbs 

  ==> Integral Setup <==

  ==> DiskDFJK: Density-Fitted J/K Matrices <==

    J tasked:                  Yes
    K tasked:                  Yes
    wK tasked:                  No
    OpenMP threads:              6
    Integrals threads:           6
    Memory [MiB]:            42915
    Algorithm:                Core
    Integral Cache:           LOAD
    Schwarz Cutoff:          1E-12
    Fitting Condition:       1E-10

   => Auxiliary Basis Set <=

  Basis Set: (AUG-CC-PVTZ AUX)
    Blend: AUG-CC-PVTZ-JKFIT
    Number of shells: 116
    Number of basis functions: 444
    Number of Cartesian functions: 570
    Spherical Harmonics?: true
    Max angular momentum: 4

  Minimum eigenvalue in the overlap matrix is 2.4515513646E-04.
  Reciprocal condition number of the overlap matrix is 3.1016840621E-05.
    Using symmetric orthogonalization.

  ==> Pre-Iterations <==

  SCF Guess: Superposition of Atomic Densities via on-the-fly atomic UHF (no occupation information).

   -------------------------
    Irrep   Nso     Nmo    
   -------------------------
     A        151     151 
   -------------------------
    Total     151     151
   -------------------------

  ==> Iterations <==

                           Total Energy        Delta E     RMS |[F,P]|

   @DF-RHF iter SAD:   -75.46503798209417   -7.54650e+01   0.00000e+00 
   @DF-RHF iter   1:   -75.97321223900786   -5.08174e-01   3.09811e-03 DIIS/ADIIS
   @DF-RHF iter   2:   -76.02544770587457   -5.22355e-02   2.14870e-03 DIIS/ADIIS
   @DF-RHF iter   3:   -76.05813148067955   -3.26838e-02   1.46782e-04 DIIS/ADIIS
   @DF-RHF iter   4:   -76.05853834793993   -4.06867e-04   3.58970e-05 DIIS
   @DF-RHF iter   5:   -76.05856564274619   -2.72948e-05   8.38376e-06 DIIS
   @DF-RHF iter   6:   -76.05856795901612   -2.31627e-06   1.82087e-06 DIIS
   @DF-RHF iter   7:   -76.05856807713099   -1.18115e-07   3.10813e-07 DIIS
   @DF-RHF iter   8:   -76.05856808008802   -2.95704e-09   5.21876e-08 DIIS
   @DF-RHF iter   9:   -76.05856808015382   -6.57963e-11   1.28485e-08 DIIS
   @DF-RHF iter  10:   -76.05856808015790   -4.07852e-12   2.08963e-09 DIIS
  Energy and wave function converged.


  ==> Post-Iterations <==

    Orbital Energies [Eh]
    ---------------------

    Doubly Occupied:                                                      

       1A    -20.571138     2A     -1.348947     3A     -0.703430  
       4A     -0.588871     5A     -0.510225  

    Virtual:                                                              

       6A      0.024900     7A      0.044304     8A      0.071695  
       9A      0.073876    10A      0.089295    11A      0.104452  
      12A      0.166188    13A      0.171102    14A      0.178180  
      15A      0.206322    16A      0.244771    17A      0.264570  
      18A      0.265787    19A      0.281536    20A      0.292863  
      21A      0.299473    22A      0.323764    23A      0.339977  
      24A      0.342854    25A      0.345907    26A      0.414155  
      27A      0.422932    28A      0.451899    29A      0.478345  
      30A      0.479163    31A      0.547239    32A      0.588864  
      33A      0.654621    34A      0.704235    35A      0.729105  
      36A      0.730979    37A      0.739413    38A      0.854917  
      39A      0.878447    40A      0.899028    41A      0.901586  
      42A      0.917387    43A      0.944237    44A      0.955967  
      45A      0.961639    46A      0.988667    47A      1.011508  
      48A      1.019610    49A      1.035102    50A      1.036565  
      51A      1.042490    52A      1.075579    53A      1.080380  
      54A      1.136468    55A      1.137157    56A      1.151727  
      57A      1.158171    58A      1.207214    59A      1.213722  
      60A      1.268682    61A      1.293028    62A      1.316196  
      63A      1.357338    64A      1.375561    65A      1.499922  
      66A      1.541511    67A      1.578102    68A      1.598864  
      69A      1.629629    70A      1.679702    71A      1.734580  
      72A      1.905754    73A      1.971317    74A      2.103474  
      75A      2.292786    76A      2.368181    77A      2.427347  
      78A      2.469548    79A      2.488352    80A      2.515313  
      81A      2.534174    82A      2.634272    83A      2.704398  
      84A      2.747369    85A      2.831798    86A      2.844759  
      87A      2.876840    88A      2.974022    89A      3.022502  
      90A      3.057921    91A      3.102207    92A      3.103562  
      93A      3.146511    94A      3.161114    95A      3.213038  
      96A      3.229431    97A      3.275714    98A      3.286296  
      99A      3.328128   100A      3.413565   101A      3.444095  
     102A      3.592569   103A      3.702126   104A      3.774168  
     105A      4.057380   106A      4.091697   107A      4.174933  
     108A      4.212646   109A      4.282260   110A      4.298837  
     111A      4.390626   112A      4.424878   113A      4.481307  
     114A      4.605572   115A      4.828997   116A      5.029639  
     117A      5.130494   118A      5.230070   119A      5.273449  
     120A      5.383109   121A      5.525436   122A      5.697826  
     123A      6.233379   124A      6.536726   125A      6.751118  
     126A      6.961266   127A      7.123951   128A      7.277932  
     129A      7.281264   130A      7.315905   131A      7.392552  
     132A      7.472490   133A      7.651823   134A      7.940642  
     135A      7.981149   136A      8.822267   137A     10.536766  
     138A     13.504616   139A     13.521117   140A     13.854803  
     141A     16.337904   142A     26.113882   143A     26.121140  
     144A     26.248481   145A     26.263959   146A     26.327452  
     147A     46.224830   148A    138.493298   149A    138.521058  
     150A    139.085006   151A    710.803936  

    Final Occupation by Irrep:
              A 
    DOCC [     5 ]
    NA   [     5 ]
    NB   [     5 ]

  @DF-RHF Final Energy:   -76.05856808015790

   => Energetics <=

    Nuclear Repulsion Energy =              9.0698691742080531
    One-Electron Energy =                -122.8116518828251174
    Two-Electron Energy =                  37.6832146284591758
    Total Energy =                        -76.0585680801578974

Computation Completed


Properties will be evaluated at   0.000000,   0.000000,   0.000000 [a0]

Properties computed using the SCF density matrix


 Multipole Moments:

 ------------------------------------------------------------------------------------
     Multipole            Electronic (a.u.)      Nuclear  (a.u.)        Total (a.u.)
 ------------------------------------------------------------------------------------

 L = 1.  Multiply by 2.5417464519 to convert [e a0] to [Debye]
 Dipole X            :         -1.1172096            1.7022143            0.5850046
 Dipole Y            :         -1.0421359            1.5977143            0.5555784
 Dipole Z            :         -0.0000000            0.0000000           -0.0000000
 Magnitude           :                                                    0.8067824

 ------------------------------------------------------------------------------------

*** tstop() called on moses-razer at Fri Dec 29 17:35:55 2023
Module time:
	user time   =       4.88 seconds =       0.08 minutes
	system time =       0.46 seconds =       0.01 minutes
	total time  =          2 seconds =       0.03 minutes
Total time:
	user time   =      14.91 seconds =       0.25 minutes
	system time =       1.68 seconds =       0.03 minutes
	total time  =          5 seconds =       0.08 minutes

  //>>>>>>>>>>>>>>>>>>>>>>>>>>>>>>>>>>>//
  //            Monomer B HF           //
  //<<<<<<<<<<<<<<<<<<<<<<<<<<<<<<<<<<<//

   => Libint2 <=

    Primary   basis highest AM E, G, H:  5, 4, 3
    Auxiliary basis highest AM E, G, H:  6, 5, 4
    Onebody   basis highest AM E, G, H:  6, 5, 4
    Solid Harmonics ordering:            gaussian

*** tstart() called on moses-razer
*** at Fri Dec 29 17:35:55 2023

   => Loading Basis Set <=

    Name: AUG-CC-PVTZ
    Role: ORBITAL
    Keyword: BASIS
    atoms 1   entry O          line   331 file /home/kchung25/anaconda3/envs/p415env/share/psi4/basis/aug-cc-pvtz.gbs 
    atoms 2-3 entry H          line    40 file /home/kchung25/anaconda3/envs/p415env/share/psi4/basis/aug-cc-pvtz.gbs 
    atoms 4   entry BR         line  4564 file /home/kchung25/anaconda3/envs/p415env/share/psi4/basis/aug-cc-pvtz.gbs 


         ---------------------------------------------------------
                                   SCF
               by Justin Turney, Rob Parrish, Andy Simmonett
                          and Daniel G. A. Smith
                              RHF Reference
                        6 Threads,  57220 MiB Core
         ---------------------------------------------------------

  ==> Geometry <==

    Molecular point group: c1
    Full point group: Cs

    Geometry (in Angstrom), charge = -1, multiplicity = 1:

       Center              X                  Y                   Z               Mass       
    ------------   -----------------  -----------------  -----------------  -----------------
      Gh(O)           0.000000000000     0.000000000000     0.000000000000    15.994914619570
      Gh(H)          -0.077717000000     0.955172000000     0.000000000000     1.007825032230
      Gh(H)           0.978490000000    -0.109698000000     0.000000000000     1.007825032230
         BR           2.890859000000     0.000000000000     0.000000000000    78.918337600000

  Running in c1 symmetry.

  Rotational constants: A =     18.09594  B =      0.02552  C =      0.02549 [cm^-1]
  Rotational constants: A = 542502.57371  B =    765.14981  C =    764.07216 [MHz]
  Nuclear repulsion =    0.000000000000000

  Charge       = -1
  Multiplicity = 1
  Electrons    = 36
  Nalpha       = 18
  Nbeta        = 18

  ==> Algorithm <==

  SCF Algorithm Type is DF.
  DIIS enabled.
  MOM disabled.
  Fractional occupation disabled.
  Guess Type is SAD.
  Energy threshold   = 1.00e-08
  Density threshold  = 1.00e-08
  Integral threshold = 1.00e-12

  ==> Primary Basis <==

  Basis Set: AUG-CC-PVTZ
    Blend: AUG-CC-PVTZ
    Number of shells: 51
    Number of basis functions: 151
    Number of Cartesian functions: 174
    Spherical Harmonics?: true
    Max angular momentum: 3

   => Loading Basis Set <=

    Name: (AUG-CC-PVTZ AUX)
    Role: JKFIT
    Keyword: DF_BASIS_SCF
    atoms 1   entry O          line   286 file /home/kchung25/anaconda3/envs/p415env/share/psi4/basis/aug-cc-pvtz-jkfit.gbs 
    atoms 2-3 entry H          line    70 file /home/kchung25/anaconda3/envs/p415env/share/psi4/basis/aug-cc-pvtz-jkfit.gbs 
    atoms 4   entry BR         line  1492 file /home/kchung25/anaconda3/envs/p415env/share/psi4/basis/aug-cc-pvtz-jkfit.gbs 

  ==> Integral Setup <==

  ==> DiskDFJK: Density-Fitted J/K Matrices <==

    J tasked:                  Yes
    K tasked:                  Yes
    wK tasked:                  No
    OpenMP threads:              6
    Integrals threads:           6
    Memory [MiB]:            42915
    Algorithm:                Core
    Integral Cache:           LOAD
    Schwarz Cutoff:          1E-12
    Fitting Condition:       1E-10

   => Auxiliary Basis Set <=

  Basis Set: (AUG-CC-PVTZ AUX)
    Blend: AUG-CC-PVTZ-JKFIT
    Number of shells: 116
    Number of basis functions: 444
    Number of Cartesian functions: 570
    Spherical Harmonics?: true
    Max angular momentum: 4

  Minimum eigenvalue in the overlap matrix is 2.4515513646E-04.
  Reciprocal condition number of the overlap matrix is 3.1016840621E-05.
    Using symmetric orthogonalization.

  ==> Pre-Iterations <==

  SCF Guess: Superposition of Atomic Densities via on-the-fly atomic UHF (no occupation information).

   -------------------------
    Irrep   Nso     Nmo    
   -------------------------
     A        151     151 
   -------------------------
    Total     151     151
   -------------------------

  ==> Iterations <==

                           Total Energy        Delta E     RMS |[F,P]|

   @DF-RHF iter SAD: -2570.41423540515871   -2.57041e+03   0.00000e+00 
   @DF-RHF iter   1: -2572.25407167292406   -1.83984e+00   7.06241e-03 DIIS/ADIIS
   @DF-RHF iter   2: -2572.46368641230947   -2.09615e-01   3.93050e-03 DIIS/ADIIS
   @DF-RHF iter   3: -2572.53365180968240   -6.99654e-02   6.87029e-05 DIIS
   @DF-RHF iter   4: -2572.53368843929820   -3.66296e-05   8.00701e-06 DIIS
   @DF-RHF iter   5: -2572.53368958166129   -1.14236e-06   1.83977e-06 DIIS
   @DF-RHF iter   6: -2572.53368965526988   -7.36086e-08   3.46186e-07 DIIS
   @DF-RHF iter   7: -2572.53368966394282   -8.67294e-09   3.09597e-08 DIIS
   @DF-RHF iter   8: -2572.53368966400603   -6.32099e-11   9.58224e-09 DIIS
  Energy and wave function converged.


  ==> Post-Iterations <==

    Orbital Energies [Eh]
    ---------------------

    Doubly Occupied:                                                      

       1A   -489.721087     2A    -64.860950     3A    -58.215454  
       4A    -58.215454     5A    -58.215450     6A     -9.533005  
       7A     -7.140359     8A     -7.140358     9A     -7.140336  
      10A     -2.882042    11A     -2.882041    12A     -2.882029  
      13A     -2.882027    14A     -2.882024    15A     -0.686000  
      16A     -0.139343    17A     -0.139343    18A     -0.139340  

    Virtual:                                                              

      19A      0.138172    20A      0.167658    21A      0.227865  
      22A      0.241775    23A      0.260035    24A      0.270635  
      25A      0.275609    26A      0.275926    27A      0.321584  
      28A      0.344362    29A      0.414564    30A      0.424386  
      31A      0.446279    32A      0.491905    33A      0.494437  
      34A      0.507192    35A      0.512152    36A      0.548060  
      37A      0.583098    38A      0.584739    39A      0.595658  
      40A      0.620526    41A      0.647396    42A      0.749793  
      43A      0.756991    44A      0.786772    45A      0.859684  
      46A      0.879526    47A      0.940369    48A      0.961983  
      49A      0.962148    50A      0.978675    51A      0.980646  
      52A      1.010054    53A      1.033580    54A      1.034246  
      55A      1.052874    56A      1.067363    57A      1.071484  
      58A      1.110117    59A      1.117767    60A      1.140285  
      61A      1.160902    62A      1.166837    63A      1.208507  
      64A      1.209678    65A      1.269984    66A      1.295898  
      67A      1.299185    68A      1.329179    69A      1.350199  
      70A      1.442388    71A      1.490589    72A      1.553510  
      73A      1.559981    74A      1.607689    75A      1.716162  
      76A      1.763089    77A      1.820071    78A      1.849238  
      79A      1.890826    80A      1.933330    81A      2.001001  
      82A      2.006961    83A      2.099122    84A      2.316994  
      85A      2.469396    86A      2.485662    87A      2.554703  
      88A      2.573629    89A      2.582668    90A      2.590121  
      91A      2.593647    92A      2.607287    93A      2.613306  
      94A      2.630789    95A      2.647593    96A      2.652269  
      97A      2.681831    98A      2.708061    99A      2.714523  
     100A      2.732870   101A      2.756777   102A      2.798941  
     103A      2.800744   104A      2.943226   105A      2.987519  
     106A      2.993630   107A      3.012885   108A      3.173128  
     109A      3.359494   110A      3.384825   111A      3.616261  
     112A      3.627091   113A      3.701613   114A      3.793799  
     115A      4.033656   116A      4.595927   117A      4.634355  
     118A      4.685786   119A      4.758006   120A      4.833065  
     121A      5.039124   122A      5.045181   123A      5.175594  
     124A      5.182150   125A      5.321473   126A      5.496125  
     127A      5.782954   128A      5.786086   129A      5.813823  
     130A      6.097342   131A      6.372685   132A      6.568191  
     133A      6.820653   134A      7.254129   135A      7.880864  
     136A      8.058178   137A      8.195724   138A      8.341712  
     139A      8.456430   140A      8.943467   141A      9.081823  
     142A      9.859720   143A     10.036481   144A     10.243500  
     145A     10.518691   146A     11.410127   147A     11.920201  
     148A     12.299830   149A     13.751962   150A     14.104718  
     151A     66.010711  

    Final Occupation by Irrep:
              A 
    DOCC [    18 ]
    NA   [    18 ]
    NB   [    18 ]

  @DF-RHF Final Energy: -2572.53368966400603

   => Energetics <=

    Nuclear Repulsion Energy =              0.0000000000000000
    One-Electron Energy =               -3593.6740891464346532
    Two-Electron Energy =                1021.1403994824283927
    Total Energy =                      -2572.5336896640064879

Computation Completed


Properties will be evaluated at   0.000000,   0.000000,   0.000000 [a0]

Properties computed using the SCF density matrix


 Multipole Moments:

 ------------------------------------------------------------------------------------
     Multipole            Electronic (a.u.)      Nuclear  (a.u.)        Total (a.u.)
 ------------------------------------------------------------------------------------

 L = 1.  Multiply by 2.5417464519 to convert [e a0] to [Debye]
 Dipole X            :       -196.6656445          191.2026122           -5.4630323
 Dipole Y            :         -0.0003480            0.0000000           -0.0003480
 Dipole Z            :          0.0000000            0.0000000            0.0000000
 Magnitude           :                                                    5.4630323

 ------------------------------------------------------------------------------------

*** tstop() called on moses-razer at Fri Dec 29 17:35:58 2023
Module time:
	user time   =       6.99 seconds =       0.12 minutes
	system time =       0.97 seconds =       0.02 minutes
	total time  =          3 seconds =       0.05 minutes
Total time:
	user time   =      21.93 seconds =       0.37 minutes
	system time =       2.66 seconds =       0.04 minutes
	total time  =          8 seconds =       0.13 minutes
  Constructing Basis Sets for SAPT...

   => Loading Basis Set <=

    Name: (AUG-CC-PVTZ AUX)
    Role: RIFIT
    Keyword: DF_BASIS_SAPT
    atoms 1   entry O          line   264 file /home/kchung25/anaconda3/envs/p415env/share/psi4/basis/aug-cc-pvtz-ri.gbs 
    atoms 2-3 entry H          line    30 file /home/kchung25/anaconda3/envs/p415env/share/psi4/basis/aug-cc-pvtz-ri.gbs 
    atoms 4   entry BR         line  1248 file /home/kchung25/anaconda3/envs/p415env/share/psi4/basis/aug-cc-pvtz-ri.gbs 

   => Loading Basis Set <=

    Name: (AUG-CC-PVTZ AUX)
    Role: JKFIT
    Keyword: DF_BASIS_ELST
    atoms 1   entry O          line   286 file /home/kchung25/anaconda3/envs/p415env/share/psi4/basis/aug-cc-pvtz-jkfit.gbs 
    atoms 2-3 entry H          line    70 file /home/kchung25/anaconda3/envs/p415env/share/psi4/basis/aug-cc-pvtz-jkfit.gbs 
    atoms 4   entry BR         line  1492 file /home/kchung25/anaconda3/envs/p415env/share/psi4/basis/aug-cc-pvtz-jkfit.gbs 


  //>>>>>>>>>>>>>>>>>>>>>>>>>>>>>>>>>>>//
  //               SAPT2+              //
  //<<<<<<<<<<<<<<<<<<<<<<<<<<<<<<<<<<<//


*** tstart() called on moses-razer
*** at Fri Dec 29 17:35:58 2023

        SAPT2+  
    Ed Hohenstein
     6 June 2009

      Orbital Information
  --------------------------
    NSO        =       151
    NMO        =       151
    NRI        =       389
    NOCC A     =         5
    NOCC B     =        18
    FOCC A     =         0
    FOCC B     =         0
    NVIR A     =       146
    NVIR B     =       133

    Estimated memory usage: 232.1 MB

    Natural Orbital Cutoff:   1.000E-06
    Disp(T3) Truncation:            Yes
    CCD (vv|vv) Truncation:         Yes
    MBPT T2 Truncation:             Yes

    Monomer A: 67 virtual orbitals dropped
    Monomer B: 70 virtual orbitals dropped

    Elst10,r            =    -0.043232510116 [Eh]
    Exch10 (S^2)        =     0.059449752133 [Eh]
    Exch10              =     0.061696649641 [Eh]
    Ind20,r (A<-B)      =    -0.020218959201 [Eh]
    Ind20,r (B<-A)      =    -0.032238284307 [Eh]
    Ind20,r             =    -0.052457243507 [Eh]
    Exch-Ind20,r (A<-B) =     0.015713025797 [Eh]
    Exch-Ind20,r (B<-A) =     0.023394978940 [Eh]
    Exch-Ind20,r        =     0.039108004737 [Eh]
    Disp20              =    -0.016802135464 [Eh]
    Disp20 (NO)         =    -0.014936409642 [Eh]
    Exch-Disp20         =     0.004641999312 [Eh]
    Elst12,r            =    -0.001344704978 [Eh]
    Exch11              =     0.001673980196 [Eh]
    Exch12              =     0.003048958144 [Eh]
    Ind22               =    -0.006702724615 [Eh]
    Disp21              =     0.001331810854 [Eh]
    Disp22 (SDQ)        =     0.000142012909 [Eh]

    (i =   1 of  18)          0 seconds
    (i =   2 of  18)          0 seconds
    (i =   3 of  18)          0 seconds
    (i =   4 of  18)          1 seconds
    (i =   5 of  18)          1 seconds
    (i =   6 of  18)          1 seconds
    (i =   7 of  18)          1 seconds
    (i =   8 of  18)          1 seconds
    (i =   9 of  18)          1 seconds
    (i =  10 of  18)          1 seconds
    (i =  11 of  18)          2 seconds
    (i =  12 of  18)          2 seconds
    (i =  13 of  18)          2 seconds
    (i =  14 of  18)          2 seconds
    (i =  15 of  18)          2 seconds
    (i =  16 of  18)          2 seconds
    (i =  17 of  18)          2 seconds
    (i =  18 of  18)          3 seconds

    Disp220 (T)         =    -0.001400184419 [Eh]

    (i =   1 of   5)          1 seconds
    (i =   2 of   5)          2 seconds
    (i =   3 of   5)          3 seconds
    (i =   4 of   5)          4 seconds
    (i =   5 of   5)          5 seconds

    Disp202 (T)         =    -0.001013005370 [Eh]

    Disp22 (T)          =    -0.002413189789 [Eh]

    Est. Disp220 (T)    =    -0.001575083226 [Eh]
    Est. Disp202 (T)    =    -0.001139541152 [Eh]

    Est. Disp22 (T)     =    -0.002714624378 [Eh]

    SAPT Results 
  --------------------------------------------------------------------------------------------------------
    Electrostatics                -44.57721509 [mEh]     -27.97262479 [kcal/mol]    -117.03746210 [kJ/mol]
      Elst10,r                    -43.23251012 [mEh]     -27.12880967 [kcal/mol]    -113.50693967 [kJ/mol]
      Elst12,r                     -1.34470498 [mEh]      -0.84381511 [kcal/mol]      -3.53052243 [kJ/mol]

    Exchange                       66.41958798 [mEh]      41.67892070 [kcal/mol]     174.38460422 [kJ/mol]
      Exch10                       61.69664964 [mEh]      38.71523215 [kcal/mol]     161.98453132 [kJ/mol]
      Exch10(S^2)                  59.44975213 [mEh]      37.30528268 [kcal/mol]     156.08530272 [kJ/mol]
      Exch11(S^2)                   1.67398020 [mEh]       1.05043843 [kcal/mol]       4.39503440 [kJ/mol]
      Exch12(S^2)                   3.04895814 [mEh]       1.91325012 [kcal/mol]       8.00503851 [kJ/mol]

    Induction                     -23.35480214 [mEh]     -14.65535960 [kcal/mol]     -61.31802457 [kJ/mol]
      Ind20,r                     -52.45724351 [mEh]     -32.91741727 [kcal/mol]    -137.72647385 [kJ/mol]
      Ind22                        -6.70272461 [mEh]      -4.20602320 [kcal/mol]     -17.59800105 [kJ/mol]
      Exch-Ind20,r                 39.10800474 [mEh]      24.54064347 [kcal/mol]     102.67805229 [kJ/mol]
      Exch-Ind22                    4.99702555 [mEh]       3.13568087 [kcal/mol]      13.11968877 [kJ/mol]
      delta HF,r (2)               -8.29986430 [mEh]      -5.20824348 [kcal/mol]     -21.79129073 [kJ/mol]

    Dispersion                    -13.40093677 [mEh]      -8.40921478 [kcal/mol]     -35.18415464 [kJ/mol]
      Disp20                      -16.80213546 [mEh]     -10.54349918 [kcal/mol]     -44.11400058 [kJ/mol]
      Disp21                        1.33181085 [mEh]       0.83572393 [kcal/mol]       3.49666892 [kJ/mol]
      Disp22 (SDQ)                  0.14201291 [mEh]       0.08911445 [kcal/mol]       0.37285484 [kJ/mol]
      Disp22 (T)                   -2.41318979 [mEh]      -1.51429945 [kcal/mol]      -6.33582892 [kJ/mol]
      Est. Disp22 (T)              -2.71462438 [mEh]      -1.70345252 [kcal/mol]      -7.12724532 [kJ/mol]
      Exch-Disp20                   4.64199931 [mEh]       2.91289855 [kcal/mol]      12.18756751 [kJ/mol]

  Total HF                         -3.18496355 [mEh]      -1.99859480 [kcal/mol]      -8.36212064 [kJ/mol]
  Total SAPT0                     -15.34509970 [mEh]      -9.62919544 [kcal/mol]     -40.28855371 [kJ/mol]
  Total SAPT2                     -13.67256541 [mEh]      -8.57966432 [kcal/mol]     -35.89731553 [kJ/mol]
  Total SAPT2+                    -14.91336602 [mEh]      -9.35827846 [kcal/mol]     -39.15503709 [kJ/mol]

  Special recipe for scaled SAPT0 (see Manual):
    Electrostatics sSAPT0         -43.23251012 [mEh]     -27.12880967 [kcal/mol]    -113.50693967 [kJ/mol]
    Exchange sSAPT0                61.69664964 [mEh]      38.71523215 [kcal/mol]     161.98453132 [kJ/mol]
    Induction sSAPT0              -17.04515015 [mEh]     -10.69599320 [kcal/mol]     -44.75203555 [kJ/mol]
    Dispersion sSAPT0             -11.61366117 [mEh]      -7.28768241 [kcal/mol]     -30.49166319 [kJ/mol]
  Total sSAPT0                    -10.19467179 [mEh]      -6.39725313 [kcal/mol]     -26.76610710 [kJ/mol]
  --------------------------------------------------------------------------------------------------------

*** tstop() called on moses-razer at Fri Dec 29 17:36:16 2023
Module time:
	user time   =      91.53 seconds =       1.53 minutes
	system time =       3.15 seconds =       0.05 minutes
	total time  =         18 seconds =       0.30 minutes
Total time:
	user time   =     113.74 seconds =       1.90 minutes
	system time =       5.81 seconds =       0.10 minutes
	total time  =         26 seconds =       0.43 minutes

    Psi4 stopped on: Friday, 29 December 2023 05:36PM
    Psi4 wall time for execution: 0:00:26.29

*** Psi4 exiting successfully. Buy a developer a beer!
