
    -----------------------------------------------------------------------
          Psi4: An Open-Source Ab Initio Electronic Structure Package
                               Psi4 1.9 release

                         Git: Rev {} zzzzzzz 


    D. G. A. Smith, L. A. Burns, A. C. Simmonett, R. M. Parrish,
    M. C. Schieber, R. Galvelis, P. Kraus, H. Kruse, R. Di Remigio,
    A. Alenaizan, A. M. James, S. Lehtola, J. P. Misiewicz, M. Scheurer,
    R. A. Shaw, J. B. Schriber, Y. Xie, Z. L. Glick, D. A. Sirianni,
    J. S. O'Brien, J. M. Waldrop, A. Kumar, E. G. Hohenstein,
    B. P. Pritchard, B. R. Brooks, H. F. Schaefer III, A. Yu. Sokolov,
    K. Patkowski, A. E. DePrince III, U. Bozkaya, R. A. King,
    F. A. Evangelista, J. M. Turney, T. D. Crawford, C. D. Sherrill,
    J. Chem. Phys. 152(18) 184108 (2020). https://doi.org/10.1063/5.0006002

                            Additional Code Authors
    E. T. Seidl, C. L. Janssen, E. F. Valeev, M. L. Leininger,
    J. F. Gonthier, R. M. Richard, H. R. McAlexander, M. Saitow, X. Wang,
    P. Verma, M. H. Lechner, A. Jiang, S. Behnle, A. G. Heide,
    M. F. Herbst, and D. L. Poole

             Previous Authors, Complete List of Code Contributors,
                       and Citations for Specific Modules
    https://github.com/psi4/psi4/blob/master/codemeta.json
    https://github.com/psi4/psi4/graphs/contributors
    http://psicode.org/psi4manual/master/introduction.html#citing-psifour

    -----------------------------------------------------------------------


    Psi4 started on: Saturday, 30 December 2023 05:04PM

    Process ID: 212994
    Host:       moses-razer
    PSIDATADIR: /home/kchung25/anaconda3/envs/psi4_19/share/psi4
    Memory:     500.0 MiB
    Threads:    6
    
  ==> Input File <==

--------------------------------------------------------------------------
MEMORY 60 GB

molecule dimer {
1 1
Na     0.000000     0.000000     0.000000
--
0 1
O      2.235038     0.000000     0.000000
H      2.823996     0.759416     0.000000
H      2.823996    -0.759416     0.000000
O     -2.235038     0.000000     0.000000
H     -2.823996    -0.759416     0.000000
H     -2.823996     0.759416     0.000000

units ang
no_reorient
no_com
symmetry c1
}

set {
basis        aug-cc-pVTZ
scf_type     df
}

energy("sapt2+")
--------------------------------------------------------------------------

  Memory set to  55.879 GiB by Python driver.

Scratch directory: /scratch/
   => Loading Basis Set <=

    Name: AUG-CC-PVTZ
    Role: ORBITAL
    Keyword: BASIS
    atoms 1        entry NA         line   469 file /home/kchung25/anaconda3/envs/p415env/share/psi4/basis/aug-cc-pvtz.gbs 
    atoms 2, 5     entry O          line   331 file /home/kchung25/anaconda3/envs/p415env/share/psi4/basis/aug-cc-pvtz.gbs 
    atoms 3-4, 6-7 entry H          line    40 file /home/kchung25/anaconda3/envs/p415env/share/psi4/basis/aug-cc-pvtz.gbs 

   => Loading Basis Set <=

    Name: AUG-CC-PVTZ
    Role: ORBITAL
    Keyword: BASIS
    atoms 1        entry NA         line   469 file /home/kchung25/anaconda3/envs/p415env/share/psi4/basis/aug-cc-pvtz.gbs 
    atoms 2, 5     entry O          line   331 file /home/kchung25/anaconda3/envs/p415env/share/psi4/basis/aug-cc-pvtz.gbs 
    atoms 3-4, 6-7 entry H          line    40 file /home/kchung25/anaconda3/envs/p415env/share/psi4/basis/aug-cc-pvtz.gbs 


  //>>>>>>>>>>>>>>>>>>>>>>>>>>>>>>>>>>>//
  //              Dimer HF             //
  //<<<<<<<<<<<<<<<<<<<<<<<<<<<<<<<<<<<//

   => Libint2 <=

    Primary   basis highest AM E, G, H:  5, 4, 3
    Auxiliary basis highest AM E, G, H:  6, 5, 4
    Onebody   basis highest AM E, G, H:  6, 5, 4
    Solid Harmonics ordering:            gaussian

*** tstart() called on moses-razer
*** at Sat Dec 30 17:04:31 2023

   => Loading Basis Set <=

    Name: AUG-CC-PVTZ
    Role: ORBITAL
    Keyword: BASIS
    atoms 1        entry NA         line   469 file /home/kchung25/anaconda3/envs/p415env/share/psi4/basis/aug-cc-pvtz.gbs 
    atoms 2, 5     entry O          line   331 file /home/kchung25/anaconda3/envs/p415env/share/psi4/basis/aug-cc-pvtz.gbs 
    atoms 3-4, 6-7 entry H          line    40 file /home/kchung25/anaconda3/envs/p415env/share/psi4/basis/aug-cc-pvtz.gbs 


         ---------------------------------------------------------
                                   SCF
               by Justin Turney, Rob Parrish, Andy Simmonett
                          and Daniel G. A. Smith
                              RHF Reference
                        6 Threads,  57220 MiB Core
         ---------------------------------------------------------

  ==> Geometry <==

    Molecular point group: c1
    Full point group: D2h

    Geometry (in Angstrom), charge = 1, multiplicity = 1:

       Center              X                  Y                   Z               Mass       
    ------------   -----------------  -----------------  -----------------  -----------------
         NA           0.000000000000     0.000000000000     0.000000000000    22.989769282000
         O            2.235038000000     0.000000000000     0.000000000000    15.994914619570
         H            2.823996000000     0.759416000000     0.000000000000     1.007825032230
         H            2.823996000000    -0.759416000000     0.000000000000     1.007825032230
         O           -2.235038000000     0.000000000000     0.000000000000    15.994914619570
         H           -2.823996000000    -0.759416000000     0.000000000000     1.007825032230
         H           -2.823996000000     0.759416000000     0.000000000000     1.007825032230

  Running in c1 symmetry.

  Rotational constants: A =      7.25090  B =      0.08782  C =      0.08677 [cm^-1]
  Rotational constants: A = 217376.49454  B =   2632.85071  C =   2601.34340 [MHz]
  Nuclear repulsion =   79.204664495611766

  Charge       = 1
  Multiplicity = 1
  Electrons    = 30
  Nalpha       = 15
  Nbeta        = 15

  ==> Algorithm <==

  SCF Algorithm Type is DF.
  DIIS enabled.
  MOM disabled.
  Fractional occupation disabled.
  Guess Type is SAD.
  Energy threshold   = 1.00e-08
  Density threshold  = 1.00e-08
  Integral threshold = 1.00e-12

  ==> Primary Basis <==

  Basis Set: AUG-CC-PVTZ
    Blend: AUG-CC-PVTZ
    Number of shells: 80
    Number of basis functions: 234
    Number of Cartesian functions: 269
    Spherical Harmonics?: true
    Max angular momentum: 3

   => Loading Basis Set <=

    Name: (AUG-CC-PVTZ AUX)
    Role: JKFIT
    Keyword: DF_BASIS_SCF
    atoms 1        entry NA         line   498 file /home/kchung25/anaconda3/envs/p415env/share/psi4/basis/def2-universal-jkfit.gbs 
    atoms 2, 5     entry O          line   286 file /home/kchung25/anaconda3/envs/p415env/share/psi4/basis/aug-cc-pvtz-jkfit.gbs 
    atoms 3-4, 6-7 entry H          line    70 file /home/kchung25/anaconda3/envs/p415env/share/psi4/basis/aug-cc-pvtz-jkfit.gbs 

  ==> Integral Setup <==

  ==> DiskDFJK: Density-Fitted J/K Matrices <==

    J tasked:                  Yes
    K tasked:                  Yes
    wK tasked:                  No
    OpenMP threads:              6
    Integrals threads:           6
    Memory [MiB]:            42915
    Algorithm:                Core
    Integral Cache:           SAVE
    Schwarz Cutoff:          1E-12
    Fitting Condition:       1E-10

   => Auxiliary Basis Set <=

  Basis Set: (AUG-CC-PVTZ AUX)
    Blend: AUG-CC-PVTZ-JKFIT + DEF2-UNIVERSAL-JKFIT
    Number of shells: 150
    Number of basis functions: 504
    Number of Cartesian functions: 619
    Spherical Harmonics?: true
    Max angular momentum: 4

  Minimum eigenvalue in the overlap matrix is 3.5822110022E-05.
  Reciprocal condition number of the overlap matrix is 3.9830875811E-06.
    Using symmetric orthogonalization.

  ==> Pre-Iterations <==

  SCF Guess: Superposition of Atomic Densities via on-the-fly atomic UHF (no occupation information).

   -------------------------
    Irrep   Nso     Nmo    
   -------------------------
     A        234     234 
   -------------------------
    Total     234     234
   -------------------------

  ==> Iterations <==

                           Total Energy        Delta E     RMS |[F,P]|

   @DF-RHF iter SAD:  -312.82659903910763   -3.12827e+02   0.00000e+00 
   @DF-RHF iter   1:  -313.70247551596901   -8.75876e-01   2.86618e-03 DIIS/ADIIS
   @DF-RHF iter   2:  -313.81153089523769   -1.09055e-01   1.85606e-03 DIIS/ADIIS
   @DF-RHF iter   3:  -313.86875943588223   -5.72285e-02   1.34178e-04 DIIS/ADIIS
   @DF-RHF iter   4:  -313.86951073426610   -7.51298e-04   3.02250e-05 DIIS
   @DF-RHF iter   5:  -313.86955247734443   -4.17431e-05   6.50520e-06 DIIS
   @DF-RHF iter   6:  -313.86955539653582   -2.91919e-06   1.26734e-06 DIIS
   @DF-RHF iter   7:  -313.86955551757609   -1.21040e-07   2.23169e-07 DIIS
   @DF-RHF iter   8:  -313.86955552080229   -3.22621e-09   3.36382e-08 DIIS
   @DF-RHF iter   9:  -313.86955552085351   -5.12159e-11   6.37687e-09 DIIS
  Energy and wave function converged.


  ==> Post-Iterations <==

    Orbital Energies [Eh]
    ---------------------

    Doubly Occupied:                                                      

       1A    -40.641589     2A    -20.760489     3A    -20.760489  
       4A     -2.962048     5A     -1.686503     6A     -1.686428  
       7A     -1.685829     8A     -1.548903     9A     -1.546904  
      10A     -0.910674    11A     -0.910636    12A     -0.803831  
      13A     -0.798315    14A     -0.709635    15A     -0.709588  

    Virtual:                                                              

      16A     -0.117300    17A     -0.083442    18A     -0.083102  
      19A     -0.075873    20A     -0.058197    21A     -0.047914  
      22A     -0.047037    23A     -0.040480    24A     -0.038151  
      25A     -0.038104    26A     -0.035978    27A     -0.035769  
      28A     -0.035235    29A     -0.019044    30A     -0.016028  
      31A     -0.000099    32A      0.011488    33A      0.016829  
      34A      0.017010    35A      0.029199    36A      0.047142  
      37A      0.054578    38A      0.060284    39A      0.067615  
      40A      0.078959    41A      0.084783    42A      0.085584  
      43A      0.086013    44A      0.095422    45A      0.095624  
      46A      0.103007    47A      0.126574    48A      0.129474  
      49A      0.131874    50A      0.137526    51A      0.141388  
      52A      0.145107    53A      0.172188    54A      0.183521  
      55A      0.201409    56A      0.207226    57A      0.218349  
      58A      0.224899    59A      0.236859    60A      0.254054  
      61A      0.259750    62A      0.266737    63A      0.267341  
      64A      0.290773    65A      0.295062    66A      0.295714  
      67A      0.301071    68A      0.305939    69A      0.331702  
      70A      0.334980    71A      0.350653    72A      0.371083  
      73A      0.371108    74A      0.391158    75A      0.421445  
      76A      0.429299    77A      0.433769    78A      0.434334  
      79A      0.446299    80A      0.501152    81A      0.538326  
      82A      0.546274    83A      0.546918    84A      0.549299  
      85A      0.584947    86A      0.586985    87A      0.623996  
      88A      0.627966    89A      0.642565    90A      0.648257  
      91A      0.675751    92A      0.676336    93A      0.698158  
      94A      0.728606    95A      0.736444    96A      0.749930  
      97A      0.752764    98A      0.780159    99A      0.794270  
     100A      0.814073   101A      0.814488   102A      0.821721  
     103A      0.836145   104A      0.853580   105A      0.886800  
     106A      0.908267   107A      0.921721   108A      0.924435  
     109A      0.931077   110A      0.946761   111A      0.959591  
     112A      0.971065   113A      0.990012   114A      1.005679  
     115A      1.026749   116A      1.034429   117A      1.043725  
     118A      1.091765   119A      1.102708   120A      1.105596  
     121A      1.161283   122A      1.206889   123A      1.260339  
     124A      1.302831   125A      1.351910   126A      1.391381  
     127A      1.454061   128A      1.459511   129A      1.491823  
     130A      1.499065   131A      1.525319   132A      1.541431  
     133A      1.597281   134A      1.671952   135A      1.698444  
     136A      1.766674   137A      1.823267   138A      1.837428  
     139A      1.871978   140A      1.938912   141A      2.003164  
     142A      2.117019   143A      2.123337   144A      2.130819  
     145A      2.151956   146A      2.212366   147A      2.217882  
     148A      2.234584   149A      2.284199   150A      2.320541  
     151A      2.364666   152A      2.407116   153A      2.484316  
     154A      2.486755   155A      2.543647   156A      2.551440  
     157A      2.586232   158A      2.596267   159A      2.631153  
     160A      2.653247   161A      2.682179   162A      2.696797  
     163A      2.699406   164A      2.729751   165A      2.747953  
     166A      2.759360   167A      3.585232   168A      3.603765  
     169A      3.616776   170A      3.655448   171A      3.839576  
     172A      3.859730   173A      3.948300   174A      4.037222  
     175A      4.042979   176A      4.051513   177A      4.084652  
     178A      4.106535   179A      4.116021   180A      4.116979  
     181A      4.247920   182A      4.298680   183A      4.343001  
     184A      4.347093   185A      4.354920   186A      4.374984  
     187A      4.375858   188A      4.420018   189A      4.665587  
     190A      4.681252   191A      4.681550   192A      4.712524  
     193A      4.964486   194A      4.965658   195A      4.970732  
     196A      4.980355   197A      5.062650   198A      5.081315  
     199A      5.165028   200A      5.166240   201A      5.336617  
     202A      5.343967   203A      5.552174   204A      5.632132  
     205A      6.075211   206A      6.093913   207A      6.422902  
     208A      6.426348   209A      6.523046   210A      6.533242  
     211A      6.759441   212A      6.779735   213A      6.959800  
     214A      6.970666   215A      7.114255   216A      7.116997  
     217A      7.127132   218A      7.140555   219A      7.165016  
     220A      7.175823   221A      7.192107   222A      7.216870  
     223A      7.235074   224A      7.247111   225A      7.460904  
     226A      7.526621   227A      7.726764   228A      7.728160  
     229A      7.736788   230A      7.787008   231A      8.629753  
     232A      8.636179   233A     15.745236   234A     15.864474  

    Final Occupation by Irrep:
              A 
    DOCC [    15 ]
    NA   [    15 ]
    NB   [    15 ]

  @DF-RHF Final Energy:  -313.86955552085351

   => Energetics <=

    Nuclear Repulsion Energy =             79.2046644956117660
    One-Electron Energy =                -589.9047206079458192
    Two-Electron Energy =                 196.8305005914805861
    Total Energy =                       -313.8695555208534529

Computation Completed


Properties will be evaluated at   0.000000,   0.000000,   0.000000 [a0]

Properties computed using the SCF density matrix


 Multipole Moments:

 ------------------------------------------------------------------------------------
     Multipole            Electronic (a.u.)      Nuclear  (a.u.)        Total (a.u.)
 ------------------------------------------------------------------------------------

 L = 1.  Multiply by 2.5417464519 to convert [e a0] to [Debye]
 Dipole X            :          0.0000000           -0.0000000            0.0000000
 Dipole Y            :         -0.0000000            0.0000000           -0.0000000
 Dipole Z            :         -0.0000000            0.0000000           -0.0000000
 Magnitude           :                                                    0.0000000

 ------------------------------------------------------------------------------------

*** tstop() called on moses-razer at Sat Dec 30 17:04:34 2023
Module time:
	user time   =      11.27 seconds =       0.19 minutes
	system time =       0.94 seconds =       0.02 minutes
	total time  =          3 seconds =       0.05 minutes
Total time:
	user time   =      11.27 seconds =       0.19 minutes
	system time =       0.94 seconds =       0.02 minutes
	total time  =          3 seconds =       0.05 minutes

  //>>>>>>>>>>>>>>>>>>>>>>>>>>>>>>>>>>>//
  //            Monomer A HF           //
  //<<<<<<<<<<<<<<<<<<<<<<<<<<<<<<<<<<<//

   => Libint2 <=

    Primary   basis highest AM E, G, H:  5, 4, 3
    Auxiliary basis highest AM E, G, H:  6, 5, 4
    Onebody   basis highest AM E, G, H:  6, 5, 4
    Solid Harmonics ordering:            gaussian

*** tstart() called on moses-razer
*** at Sat Dec 30 17:04:34 2023

   => Loading Basis Set <=

    Name: AUG-CC-PVTZ
    Role: ORBITAL
    Keyword: BASIS
    atoms 1        entry NA         line   469 file /home/kchung25/anaconda3/envs/p415env/share/psi4/basis/aug-cc-pvtz.gbs 
    atoms 2, 5     entry O          line   331 file /home/kchung25/anaconda3/envs/p415env/share/psi4/basis/aug-cc-pvtz.gbs 
    atoms 3-4, 6-7 entry H          line    40 file /home/kchung25/anaconda3/envs/p415env/share/psi4/basis/aug-cc-pvtz.gbs 


         ---------------------------------------------------------
                                   SCF
               by Justin Turney, Rob Parrish, Andy Simmonett
                          and Daniel G. A. Smith
                              RHF Reference
                        6 Threads,  57220 MiB Core
         ---------------------------------------------------------

  ==> Geometry <==

    Molecular point group: c1
    Full point group: D2h

    Geometry (in Angstrom), charge = 1, multiplicity = 1:

       Center              X                  Y                   Z               Mass       
    ------------   -----------------  -----------------  -----------------  -----------------
         NA           0.000000000000     0.000000000000     0.000000000000    22.989769282000
      Gh(O)           2.235038000000     0.000000000000     0.000000000000    15.994914619570
      Gh(H)           2.823996000000     0.759416000000     0.000000000000     1.007825032230
      Gh(H)           2.823996000000    -0.759416000000     0.000000000000     1.007825032230
      Gh(O)          -2.235038000000     0.000000000000     0.000000000000    15.994914619570
      Gh(H)          -2.823996000000    -0.759416000000     0.000000000000     1.007825032230
      Gh(H)          -2.823996000000     0.759416000000     0.000000000000     1.007825032230

  Running in c1 symmetry.

  Rotational constants: A =      7.25090  B =      0.08782  C =      0.08677 [cm^-1]
  Rotational constants: A = 217376.49454  B =   2632.85071  C =   2601.34340 [MHz]
  Nuclear repulsion =    0.000000000000000

  Charge       = 1
  Multiplicity = 1
  Electrons    = 10
  Nalpha       = 5
  Nbeta        = 5

  ==> Algorithm <==

  SCF Algorithm Type is DF.
  DIIS enabled.
  MOM disabled.
  Fractional occupation disabled.
  Guess Type is SAD.
  Energy threshold   = 1.00e-08
  Density threshold  = 1.00e-08
  Integral threshold = 1.00e-12

  ==> Primary Basis <==

  Basis Set: AUG-CC-PVTZ
    Blend: AUG-CC-PVTZ
    Number of shells: 80
    Number of basis functions: 234
    Number of Cartesian functions: 269
    Spherical Harmonics?: true
    Max angular momentum: 3

   => Loading Basis Set <=

    Name: (AUG-CC-PVTZ AUX)
    Role: JKFIT
    Keyword: DF_BASIS_SCF
    atoms 1        entry NA         line   498 file /home/kchung25/anaconda3/envs/p415env/share/psi4/basis/def2-universal-jkfit.gbs 
    atoms 2, 5     entry O          line   286 file /home/kchung25/anaconda3/envs/p415env/share/psi4/basis/aug-cc-pvtz-jkfit.gbs 
    atoms 3-4, 6-7 entry H          line    70 file /home/kchung25/anaconda3/envs/p415env/share/psi4/basis/aug-cc-pvtz-jkfit.gbs 

  ==> Integral Setup <==

  ==> DiskDFJK: Density-Fitted J/K Matrices <==

    J tasked:                  Yes
    K tasked:                  Yes
    wK tasked:                  No
    OpenMP threads:              6
    Integrals threads:           6
    Memory [MiB]:            42915
    Algorithm:                Core
    Integral Cache:           LOAD
    Schwarz Cutoff:          1E-12
    Fitting Condition:       1E-10

   => Auxiliary Basis Set <=

  Basis Set: (AUG-CC-PVTZ AUX)
    Blend: AUG-CC-PVTZ-JKFIT + DEF2-UNIVERSAL-JKFIT
    Number of shells: 150
    Number of basis functions: 504
    Number of Cartesian functions: 619
    Spherical Harmonics?: true
    Max angular momentum: 4

  Minimum eigenvalue in the overlap matrix is 3.5822110022E-05.
  Reciprocal condition number of the overlap matrix is 3.9830875811E-06.
    Using symmetric orthogonalization.

  ==> Pre-Iterations <==

  SCF Guess: Superposition of Atomic Densities via on-the-fly atomic UHF (no occupation information).

   -------------------------
    Irrep   Nso     Nmo    
   -------------------------
     A        234     234 
   -------------------------
    Total     234     234
   -------------------------

  ==> Iterations <==

                           Total Energy        Delta E     RMS |[F,P]|

   @DF-RHF iter SAD:  -161.74565956587745   -1.61746e+02   0.00000e+00 
   @DF-RHF iter   1:  -161.67603972509394    6.96198e-02   2.55767e-05 DIIS
   @DF-RHF iter   2:  -161.67605758149588   -1.78564e-05   4.97169e-06 DIIS
   @DF-RHF iter   3:  -161.67605805917873   -4.77683e-07   2.15287e-07 DIIS
   @DF-RHF iter   4:  -161.67605805999955   -8.20819e-10   2.23045e-08 DIIS
   @DF-RHF iter   5:  -161.67605806000870   -9.15179e-12   1.13208e-09 DIIS
  Energy and wave function converged.


  ==> Post-Iterations <==

    Orbital Energies [Eh]
    ---------------------

    Doubly Occupied:                                                      

       1A    -40.761792     2A     -3.074451     3A     -1.797886  
       4A     -1.797670     5A     -1.797569  

    Virtual:                                                              

       6A     -0.181824     7A     -0.109450     8A     -0.109433  
       9A     -0.109428    10A     -0.070052    11A     -0.051535  
      12A     -0.051461    13A     -0.050580    14A     -0.050241  
      15A     -0.050239    16A     -0.049203    17A     -0.049049  
      18A     -0.048940    19A     -0.023314    20A     -0.013951  
      21A     -0.012804    22A     -0.003059    23A     -0.001090  
      24A      0.000138    25A      0.014649    26A      0.025064  
      27A      0.034894    28A      0.042059    29A      0.043046  
      30A      0.049710    31A      0.058202    32A      0.058241  
      33A      0.069062    34A      0.081988    35A      0.093191  
      36A      0.097329    37A      0.103015    38A      0.104376  
      39A      0.105165    40A      0.119727    41A      0.132169  
      42A      0.133229    43A      0.151538    44A      0.164410  
      45A      0.182425    46A      0.186613    47A      0.214271  
      48A      0.218068    49A      0.220447    50A      0.239434  
      51A      0.243579    52A      0.258811    53A      0.259249  
      54A      0.260511    55A      0.271301    56A      0.280711  
      57A      0.280714    58A      0.282933    59A      0.291251  
      60A      0.313177    61A      0.321961    62A      0.343983  
      63A      0.361590    64A      0.371629    65A      0.372863  
      66A      0.384787    67A      0.396970    68A      0.422333  
      69A      0.424103    70A      0.439033    71A      0.485893  
      72A      0.494527    73A      0.496622    74A      0.519233  
      75A      0.543399    76A      0.571811    77A      0.585378  
      78A      0.597968    79A      0.606277    80A      0.651270  
      81A      0.688468    82A      0.691462    83A      0.699763  
      84A      0.728724    85A      0.730723    86A      0.737944  
      87A      0.751431    88A      0.788076    89A      0.806947  
      90A      0.810643    91A      0.834089    92A      0.864820  
      93A      0.866703    94A      0.868822    95A      0.877180  
      96A      0.910458    97A      0.913173    98A      0.929943  
      99A      0.944162   100A      0.972631   101A      0.983947  
     102A      0.991049   103A      1.011882   104A      1.018018  
     105A      1.055940   106A      1.069572   107A      1.071509  
     108A      1.088261   109A      1.103515   110A      1.120793  
     111A      1.161418   112A      1.170332   113A      1.192055  
     114A      1.199033   115A      1.223240   116A      1.388713  
     117A      1.430988   118A      1.511418   119A      1.569105  
     120A      1.569929   121A      1.590865   122A      1.595438  
     123A      1.622018   124A      1.688619   125A      1.701420  
     126A      1.701760   127A      1.712799   128A      1.755210  
     129A      1.816226   130A      1.896862   131A      1.905032  
     132A      2.154774   133A      2.215159   134A      2.266236  
     135A      2.290647   136A      2.295266   137A      2.297026  
     138A      2.304588   139A      2.314230   140A      2.345698  
     141A      2.405131   142A      2.416269   143A      2.420047  
     144A      2.472160   145A      2.543587   146A      2.638750  
     147A      2.646863   148A      2.658707   149A      2.803725  
     150A      2.823781   151A      3.006554   152A      3.010430  
     153A      3.035507   154A      3.043018   155A      3.104633  
     156A      3.106988   157A      3.115764   158A      3.152042  
     159A      3.152192   160A      3.205190   161A      3.385323  
     162A      3.411873   163A      3.485887   164A      3.498223  
     165A      4.171647   166A      4.183953   167A      4.317016  
     168A      4.339316   169A      4.345907   170A      4.349390  
     171A      4.445577   172A      4.458531   173A      4.513028  
     174A      4.542674   175A      4.578662   176A      4.616750  
     177A      4.740282   178A      4.763864   179A      4.771722  
     180A      4.781961   181A      4.833260   182A      4.840776  
     183A      5.017011   184A      5.040307   185A      5.352095  
     186A      5.360277   187A      5.448767   188A      5.453766  
     189A      5.470332   190A      5.483612   191A      5.671941  
     192A      5.703048   193A      5.897228   194A      5.908279  
     195A      6.216504   196A      6.217822   197A      6.452879  
     198A      6.509193   199A      6.872419   200A      6.882184  
     201A      7.431175   202A      7.438880   203A      7.627694  
     204A      7.652065   205A      7.835169   206A      7.849718  
     207A      7.974340   208A      7.993268   209A      8.044931  
     210A      8.048064   211A      8.543067   212A      8.582266  
     213A      8.640824   214A      8.673908   215A      9.651339  
     216A      9.675053   217A      9.716176   218A      9.765542  
     219A      9.778783   220A      9.781273   221A     10.002451  
     222A     10.006425   223A     11.013406   224A     11.023103  
     225A     11.419663   226A     11.518604   227A     11.927584  
     228A     11.966611   229A     13.318425   230A     13.324259  
     231A     13.615353   232A     13.617734   233A     64.763247  
     234A     65.093647  

    Final Occupation by Irrep:
              A 
    DOCC [     5 ]
    NA   [     5 ]
    NB   [     5 ]

  @DF-RHF Final Energy:  -161.67605806000870

   => Energetics <=

    Nuclear Repulsion Energy =              0.0000000000000000
    One-Electron Energy =                -224.8933798231297772
    Two-Electron Energy =                  63.2173217631210775
    Total Energy =                       -161.6760580600086996

Computation Completed


Properties will be evaluated at   0.000000,   0.000000,   0.000000 [a0]

Properties computed using the SCF density matrix


 Multipole Moments:

 ------------------------------------------------------------------------------------
     Multipole            Electronic (a.u.)      Nuclear  (a.u.)        Total (a.u.)
 ------------------------------------------------------------------------------------

 L = 1.  Multiply by 2.5417464519 to convert [e a0] to [Debye]
 Dipole X            :          0.0000000            0.0000000            0.0000000
 Dipole Y            :         -0.0000000            0.0000000           -0.0000000
 Dipole Z            :          0.0000000            0.0000000            0.0000000
 Magnitude           :                                                    0.0000000

 ------------------------------------------------------------------------------------

*** tstop() called on moses-razer at Sat Dec 30 17:04:36 2023
Module time:
	user time   =       6.62 seconds =       0.11 minutes
	system time =       0.62 seconds =       0.01 minutes
	total time  =          2 seconds =       0.03 minutes
Total time:
	user time   =      17.92 seconds =       0.30 minutes
	system time =       1.56 seconds =       0.03 minutes
	total time  =          5 seconds =       0.08 minutes

  //>>>>>>>>>>>>>>>>>>>>>>>>>>>>>>>>>>>//
  //            Monomer B HF           //
  //<<<<<<<<<<<<<<<<<<<<<<<<<<<<<<<<<<<//

   => Libint2 <=

    Primary   basis highest AM E, G, H:  5, 4, 3
    Auxiliary basis highest AM E, G, H:  6, 5, 4
    Onebody   basis highest AM E, G, H:  6, 5, 4
    Solid Harmonics ordering:            gaussian

*** tstart() called on moses-razer
*** at Sat Dec 30 17:04:36 2023

   => Loading Basis Set <=

    Name: AUG-CC-PVTZ
    Role: ORBITAL
    Keyword: BASIS
    atoms 1        entry NA         line   469 file /home/kchung25/anaconda3/envs/p415env/share/psi4/basis/aug-cc-pvtz.gbs 
    atoms 2, 5     entry O          line   331 file /home/kchung25/anaconda3/envs/p415env/share/psi4/basis/aug-cc-pvtz.gbs 
    atoms 3-4, 6-7 entry H          line    40 file /home/kchung25/anaconda3/envs/p415env/share/psi4/basis/aug-cc-pvtz.gbs 


         ---------------------------------------------------------
                                   SCF
               by Justin Turney, Rob Parrish, Andy Simmonett
                          and Daniel G. A. Smith
                              RHF Reference
                        6 Threads,  57220 MiB Core
         ---------------------------------------------------------

  ==> Geometry <==

    Molecular point group: c1
    Full point group: D2h

    Geometry (in Angstrom), charge = 0, multiplicity = 1:

       Center              X                  Y                   Z               Mass       
    ------------   -----------------  -----------------  -----------------  -----------------
      Gh(NA)          0.000000000000     0.000000000000     0.000000000000    22.989769282000
         O            2.235038000000     0.000000000000     0.000000000000    15.994914619570
         H            2.823996000000     0.759416000000     0.000000000000     1.007825032230
         H            2.823996000000    -0.759416000000     0.000000000000     1.007825032230
         O           -2.235038000000     0.000000000000     0.000000000000    15.994914619570
         H           -2.823996000000    -0.759416000000     0.000000000000     1.007825032230
         H           -2.823996000000     0.759416000000     0.000000000000     1.007825032230

  Running in c1 symmetry.

  Rotational constants: A =      7.25090  B =      0.08782  C =      0.08677 [cm^-1]
  Rotational constants: A = 217376.49454  B =   2632.85071  C =   2601.34340 [MHz]
  Nuclear repulsion =   29.572032517016609

  Charge       = 0
  Multiplicity = 1
  Electrons    = 20
  Nalpha       = 10
  Nbeta        = 10

  ==> Algorithm <==

  SCF Algorithm Type is DF.
  DIIS enabled.
  MOM disabled.
  Fractional occupation disabled.
  Guess Type is SAD.
  Energy threshold   = 1.00e-08
  Density threshold  = 1.00e-08
  Integral threshold = 1.00e-12

  ==> Primary Basis <==

  Basis Set: AUG-CC-PVTZ
    Blend: AUG-CC-PVTZ
    Number of shells: 80
    Number of basis functions: 234
    Number of Cartesian functions: 269
    Spherical Harmonics?: true
    Max angular momentum: 3

   => Loading Basis Set <=

    Name: (AUG-CC-PVTZ AUX)
    Role: JKFIT
    Keyword: DF_BASIS_SCF
    atoms 1        entry NA         line   498 file /home/kchung25/anaconda3/envs/p415env/share/psi4/basis/def2-universal-jkfit.gbs 
    atoms 2, 5     entry O          line   286 file /home/kchung25/anaconda3/envs/p415env/share/psi4/basis/aug-cc-pvtz-jkfit.gbs 
    atoms 3-4, 6-7 entry H          line    70 file /home/kchung25/anaconda3/envs/p415env/share/psi4/basis/aug-cc-pvtz-jkfit.gbs 

  ==> Integral Setup <==

  ==> DiskDFJK: Density-Fitted J/K Matrices <==

    J tasked:                  Yes
    K tasked:                  Yes
    wK tasked:                  No
    OpenMP threads:              6
    Integrals threads:           6
    Memory [MiB]:            42915
    Algorithm:                Core
    Integral Cache:           LOAD
    Schwarz Cutoff:          1E-12
    Fitting Condition:       1E-10

   => Auxiliary Basis Set <=

  Basis Set: (AUG-CC-PVTZ AUX)
    Blend: AUG-CC-PVTZ-JKFIT + DEF2-UNIVERSAL-JKFIT
    Number of shells: 150
    Number of basis functions: 504
    Number of Cartesian functions: 619
    Spherical Harmonics?: true
    Max angular momentum: 4

  Minimum eigenvalue in the overlap matrix is 3.5822110022E-05.
  Reciprocal condition number of the overlap matrix is 3.9830875811E-06.
    Using symmetric orthogonalization.

  ==> Pre-Iterations <==

  SCF Guess: Superposition of Atomic Densities via on-the-fly atomic UHF (no occupation information).

   -------------------------
    Irrep   Nso     Nmo    
   -------------------------
     A        234     234 
   -------------------------
    Total     234     234
   -------------------------

  ==> Iterations <==

                           Total Energy        Delta E     RMS |[F,P]|

   @DF-RHF iter SAD:  -150.94783932715882   -1.50948e+02   0.00000e+00 
   @DF-RHF iter   1:  -151.94782793445728   -9.99989e-01   2.84470e-03 DIIS/ADIIS
   @DF-RHF iter   2:  -152.05347318773556   -1.05645e-01   1.95372e-03 DIIS/ADIIS
   @DF-RHF iter   3:  -152.11820858932907   -6.47354e-02   1.32915e-04 DIIS/ADIIS
   @DF-RHF iter   4:  -152.11900649264479   -7.97903e-04   3.19779e-05 DIIS
   @DF-RHF iter   5:  -152.11905723492811   -5.07423e-05   7.31729e-06 DIIS
   @DF-RHF iter   6:  -152.11906145634876   -4.22142e-06   1.60599e-06 DIIS
   @DF-RHF iter   7:  -152.11906168024788   -2.23899e-07   2.92912e-07 DIIS
   @DF-RHF iter   8:  -152.11906168682123   -6.57334e-09   4.97648e-08 DIIS
   @DF-RHF iter   9:  -152.11906168696999   -1.48759e-10   1.22750e-08 DIIS
   @DF-RHF iter  10:  -152.11906168697871   -8.72546e-12   1.78382e-09 DIIS
  Energy and wave function converged.


  ==> Post-Iterations <==

    Orbital Energies [Eh]
    ---------------------

    Doubly Occupied:                                                      

       1A    -20.558632     2A    -20.558632     3A     -1.342437  
       4A     -1.342402     5A     -0.706346     6A     -0.706295  
       7A     -0.575149     8A     -0.573481     9A     -0.500749  
      10A     -0.500476  

    Virtual:                                                              

      11A      0.010442    12A      0.014863    13A      0.018395  
      14A      0.020713    15A      0.044265    16A      0.056606  
      17A      0.056860    18A      0.062777    19A      0.066923  
      20A      0.069642    21A      0.074332    22A      0.077427  
      23A      0.077810    24A      0.077872    25A      0.078265  
      26A      0.119750    27A      0.122563    28A      0.153705  
      29A      0.157980    30A      0.163057    31A      0.181464  
      32A      0.186474    33A      0.194407    34A      0.202352  
      35A      0.209828    36A      0.219963    37A      0.229158  
      38A      0.240813    39A      0.253745    40A      0.260346  
      41A      0.263775    42A      0.289749    43A      0.290307  
      44A      0.293108    45A      0.313352    46A      0.313563  
      47A      0.319712    48A      0.320542    49A      0.353642  
      50A      0.366410    51A      0.370025    52A      0.377704  
      53A      0.385405    54A      0.393112    55A      0.400822  
      56A      0.403689    57A      0.411457    58A      0.426965  
      59A      0.436377    60A      0.444554    61A      0.454865  
      62A      0.455677    63A      0.479127    64A      0.479821  
      65A      0.480447    66A      0.499505    67A      0.549383  
      68A      0.559508    69A      0.561524    70A      0.659081  
      71A      0.661967    72A      0.711820    73A      0.719941  
      74A      0.726186    75A      0.737817    76A      0.740226  
      77A      0.761003    78A      0.789812    79A      0.804067  
      80A      0.804331    81A      0.804410    82A      0.836799  
      83A      0.836963    84A      0.854972    85A      0.868781  
      86A      0.875309    87A      0.884367    88A      0.895612  
      89A      0.911444    90A      0.931226    91A      0.934682  
      92A      0.955620    93A      0.964407    94A      0.964907  
      95A      0.975471    96A      0.985117    97A      0.995990  
      98A      0.999961    99A      1.053162   100A      1.057883  
     101A      1.078274   102A      1.092628   103A      1.101643  
     104A      1.116831   105A      1.128910   106A      1.132952  
     107A      1.143550   108A      1.172439   109A      1.181193  
     110A      1.202048   111A      1.206314   112A      1.215419  
     113A      1.241861   114A      1.314801   115A      1.327251  
     116A      1.337180   117A      1.352173   118A      1.414947  
     119A      1.470244   120A      1.519581   121A      1.568568  
     122A      1.578572   123A      1.655330   124A      1.674153  
     125A      1.676250   126A      1.723712   127A      1.727415  
     128A      1.781471   129A      1.801114   130A      1.848998  
     131A      1.876718   132A      2.011500   133A      2.018863  
     134A      2.090383   135A      2.123185   136A      2.183568  
     137A      2.216029   138A      2.337454   139A      2.339978  
     140A      2.351303   141A      2.367168   142A      2.447395  
     143A      2.462738   144A      2.478546   145A      2.519838  
     146A      2.558449   147A      2.584185   148A      2.605062  
     149A      2.700760   150A      2.752856   151A      2.759064  
     152A      2.782347   153A      2.796646   154A      2.824317  
     155A      2.858307   156A      2.900550   157A      2.900599  
     158A      2.903443   159A      2.948099   160A      2.955301  
     161A      2.974447   162A      3.781178   163A      3.802635  
     164A      3.811862   165A      3.855047   166A      4.029091  
     167A      4.049502   168A      4.146644   169A      4.200746  
     170A      4.240683   171A      4.241956   172A      4.270259  
     173A      4.297671   174A      4.311693   175A      4.312267  
     176A      4.437314   177A      4.469739   178A      4.473443  
     179A      4.535394   180A      4.538281   181A      4.548746  
     182A      4.570195   183A      4.616247   184A      4.834623  
     185A      4.874586   186A      4.885605   187A      4.899981  
     188A      5.157343   189A      5.163702   190A      5.169962  
     191A      5.171127   192A      5.172097   193A      5.276364  
     194A      5.292923   195A      5.351459   196A      5.391956  
     197A      5.533800   198A      5.541355   199A      5.769144  
     200A      5.839267   201A      6.253071   202A      6.289522  
     203A      6.473142   204A      6.494805   205A      6.626731  
     206A      6.735875   207A      6.739974   208A      6.752971  
     209A      6.975949   210A      6.985775   211A      7.168548  
     212A      7.179175   213A      7.193580   214A      7.325385  
     215A      7.328145   216A      7.335061   217A      7.360358  
     218A      7.374956   219A      7.379871   220A      7.396182  
     221A      7.431535   222A      7.459169   223A      7.675138  
     224A      7.689279   225A      7.934889   226A      7.935075  
     227A      7.949078   228A      8.002554   229A      8.019008  
     230A      8.833731   231A      8.839450   232A     15.946459  
     233A     16.070554   234A     64.670764  

    Final Occupation by Irrep:
              A 
    DOCC [    10 ]
    NA   [    10 ]
    NB   [    10 ]

  @DF-RHF Final Energy:  -152.11906168697871

   => Energetics <=

    Nuclear Repulsion Energy =             29.5720325170166092
    One-Electron Energy =                -268.6529917661508762
    Two-Electron Energy =                  86.9618975621555563
    Total Energy =                       -152.1190616869786822

Computation Completed


Properties will be evaluated at   0.000000,   0.000000,   0.000000 [a0]

Properties computed using the SCF density matrix


 Multipole Moments:

 ------------------------------------------------------------------------------------
     Multipole            Electronic (a.u.)      Nuclear  (a.u.)        Total (a.u.)
 ------------------------------------------------------------------------------------

 L = 1.  Multiply by 2.5417464519 to convert [e a0] to [Debye]
 Dipole X            :          0.0000000           -0.0000000            0.0000000
 Dipole Y            :         -0.0000000            0.0000000           -0.0000000
 Dipole Z            :          0.0000000            0.0000000            0.0000000
 Magnitude           :                                                    0.0000000

 ------------------------------------------------------------------------------------

*** tstop() called on moses-razer at Sat Dec 30 17:04:38 2023
Module time:
	user time   =       7.35 seconds =       0.12 minutes
	system time =       0.40 seconds =       0.01 minutes
	total time  =          2 seconds =       0.03 minutes
Total time:
	user time   =      25.31 seconds =       0.42 minutes
	system time =       1.96 seconds =       0.03 minutes
	total time  =          7 seconds =       0.12 minutes
  Constructing Basis Sets for SAPT...

   => Loading Basis Set <=

    Name: (AUG-CC-PVTZ AUX)
    Role: RIFIT
    Keyword: DF_BASIS_SAPT
    atoms 1        entry NA         line   610 file /home/kchung25/anaconda3/envs/p415env/share/psi4/basis/def2-qzvpp-ri.gbs 
    atoms 2, 5     entry O          line   264 file /home/kchung25/anaconda3/envs/p415env/share/psi4/basis/aug-cc-pvtz-ri.gbs 
    atoms 3-4, 6-7 entry H          line    30 file /home/kchung25/anaconda3/envs/p415env/share/psi4/basis/aug-cc-pvtz-ri.gbs 

   => Loading Basis Set <=

    Name: (AUG-CC-PVTZ AUX)
    Role: JKFIT
    Keyword: DF_BASIS_ELST
    atoms 1        entry NA         line   498 file /home/kchung25/anaconda3/envs/p415env/share/psi4/basis/def2-universal-jkfit.gbs 
    atoms 2, 5     entry O          line   286 file /home/kchung25/anaconda3/envs/p415env/share/psi4/basis/aug-cc-pvtz-jkfit.gbs 
    atoms 3-4, 6-7 entry H          line    70 file /home/kchung25/anaconda3/envs/p415env/share/psi4/basis/aug-cc-pvtz-jkfit.gbs 


  //>>>>>>>>>>>>>>>>>>>>>>>>>>>>>>>>>>>//
  //               SAPT2+              //
  //<<<<<<<<<<<<<<<<<<<<<<<<<<<<<<<<<<<//


*** tstart() called on moses-razer
*** at Sat Dec 30 17:04:38 2023

        SAPT2+  
    Ed Hohenstein
     6 June 2009

      Orbital Information
  --------------------------
    NSO        =       234
    NMO        =       234
    NRI        =       562
    NOCC A     =         5
    NOCC B     =        10
    FOCC A     =         0
    FOCC B     =         0
    NVIR A     =       229
    NVIR B     =       224

    Estimated memory usage: 361.6 MB

    Natural Orbital Cutoff:   1.000E-06
    Disp(T3) Truncation:            Yes
    CCD (vv|vv) Truncation:         Yes
    MBPT T2 Truncation:             Yes

    Monomer A: 217 virtual orbitals dropped
    Monomer B: 62 virtual orbitals dropped

    Elst10,r            =    -0.080592045509 [Eh]
    Exch10 (S^2)        =     0.023480106679 [Eh]
    Exch10              =     0.023533441561 [Eh]
    Ind20,r (A<-B)      =    -0.000114921868 [Eh]
    Ind20,r (B<-A)      =    -0.041634901840 [Eh]
    Ind20,r             =    -0.041749823708 [Eh]
    Exch-Ind20,r (A<-B) =     0.000087493032 [Eh]
    Exch-Ind20,r (B<-A) =     0.022105394585 [Eh]
    Exch-Ind20,r        =     0.022192887618 [Eh]
    Disp20              =    -0.001423598091 [Eh]
    Disp20 (NO)         =    -0.001160747140 [Eh]
    Exch-Disp20         =     0.000300499706 [Eh]
    Elst12,r            =     0.004606977203 [Eh]
    Exch11              =    -0.000255183680 [Eh]
    Exch12              =     0.002294996851 [Eh]
    Ind22               =    -0.004791518620 [Eh]
    Disp21              =    -0.000051504049 [Eh]
    Disp22 (SDQ)        =    -0.000079888221 [Eh]

    (i =   1 of  10)          0 seconds
    (i =   2 of  10)          0 seconds
    (i =   3 of  10)          0 seconds
    (i =   4 of  10)          0 seconds
    (i =   5 of  10)          0 seconds
    (i =   6 of  10)          0 seconds
    (i =   7 of  10)          0 seconds
    (i =   8 of  10)          0 seconds
    (i =   9 of  10)          0 seconds
    (i =  10 of  10)          0 seconds

    Disp220 (T)         =    -0.000034333800 [Eh]

    (i =   1 of   5)          1 seconds
    (i =   2 of   5)          1 seconds
    (i =   3 of   5)          2 seconds
    (i =   4 of   5)          2 seconds
    (i =   5 of   5)          3 seconds

    Disp202 (T)         =    -0.000071622606 [Eh]

    Disp22 (T)          =    -0.000105956406 [Eh]

    Est. Disp220 (T)    =    -0.000042108682 [Eh]
    Est. Disp202 (T)    =    -0.000087841530 [Eh]

    Est. Disp22 (T)     =    -0.000129950212 [Eh]

    SAPT Results 
  --------------------------------------------------------------------------------------------------------
    Electrostatics                -75.98506831 [mEh]     -47.68135023 [kcal/mol]    -199.49876935 [kJ/mol]
      Elst10,r                    -80.59204551 [mEh]     -50.57227207 [kcal/mol]    -211.59438633 [kJ/mol]
      Elst12,r                      4.60697720 [mEh]       2.89092184 [kcal/mol]      12.09561698 [kJ/mol]

    Exchange                       25.57325473 [mEh]      16.04745962 [kcal/mol]      67.14257105 [kJ/mol]
      Exch10                       23.53344156 [mEh]      14.76745753 [kcal/mol]      61.78704231 [kJ/mol]
      Exch10(S^2)                  23.48010668 [mEh]      14.73398939 [kcal/mol]      61.64701159 [kJ/mol]
      Exch11(S^2)                  -0.25518368 [mEh]      -0.16013018 [kcal/mol]      -0.66998466 [kJ/mol]
      Exch12(S^2)                   2.29499685 [mEh]       1.44013227 [kcal/mol]       6.02551340 [kJ/mol]

    Induction                     -19.62166858 [mEh]     -12.31278292 [kcal/mol]     -51.51668376 [kJ/mol]
      Ind20,r                     -41.74982371 [mEh]     -26.19840991 [kcal/mol]    -109.61414704 [kJ/mol]
      Ind22                        -4.79151862 [mEh]      -3.00672333 [kcal/mol]     -12.58013040 [kJ/mol]
      Exch-Ind20,r                 22.19288762 [mEh]      13.92624723 [kcal/mol]      58.26741841 [kJ/mol]
      Exch-Ind22                    2.54701996 [mEh]       1.59827915 [kcal/mol]       6.68719998 [kJ/mol]
      delta HF,r (2)                2.17976617 [mEh]       1.36782392 [kcal/mol]       5.72297530 [kJ/mol]

    Dispersion                     -1.38444087 [mEh]      -0.86874976 [kcal/mol]      -3.63484899 [kJ/mol]
      Disp20                       -1.42359809 [mEh]      -0.89332129 [kcal/mol]      -3.73765627 [kJ/mol]
      Disp21                       -0.05150405 [mEh]      -0.03231928 [kcal/mol]      -0.13522386 [kJ/mol]
      Disp22 (SDQ)                 -0.07988822 [mEh]      -0.05013062 [kcal/mol]      -0.20974649 [kJ/mol]
      Disp22 (T)                   -0.10595641 [mEh]      -0.06648865 [kcal/mol]      -0.27818851 [kJ/mol]
      Est. Disp22 (T)              -0.12995021 [mEh]      -0.08154499 [kcal/mol]      -0.34118424 [kJ/mol]
      Exch-Disp20                   0.30049971 [mEh]       0.18856641 [kcal/mol]       0.78896187 [kJ/mol]

  Total HF                        -74.43577387 [mEh]     -46.70915329 [kcal/mol]    -195.43109736 [kJ/mol]
  Total SAPT0                     -75.55887225 [mEh]     -47.41390817 [kcal/mol]    -198.37979176 [kJ/mol]
  Total SAPT2                     -71.15658054 [mEh]     -44.65142841 [kcal/mol]    -186.82157646 [kJ/mol]
  Total SAPT2+                    -71.41792302 [mEh]     -44.81542329 [kcal/mol]    -187.50773106 [kJ/mol]

  Special recipe for scaled SAPT0 (see Manual):
    Electrostatics sSAPT0         -80.59204551 [mEh]     -50.57227207 [kcal/mol]    -211.59438633 [kJ/mol]
    Exchange sSAPT0                23.53344156 [mEh]      14.76745753 [kcal/mol]      61.78704231 [kJ/mol]
    Induction sSAPT0              -17.22559321 [mEh]     -10.80922293 [kcal/mol]     -45.22578875 [kJ/mol]
    Dispersion sSAPT0              -1.12104598 [mEh]      -0.70346697 [kcal/mol]      -2.94330582 [kJ/mol]
  Total sSAPT0                    -75.40524314 [mEh]     -47.31750444 [kcal/mol]    -197.97643860 [kJ/mol]
  --------------------------------------------------------------------------------------------------------

*** tstop() called on moses-razer at Sat Dec 30 17:05:01 2023
Module time:
	user time   =     123.19 seconds =       2.05 minutes
	system time =       6.34 seconds =       0.11 minutes
	total time  =         23 seconds =       0.38 minutes
Total time:
	user time   =     149.30 seconds =       2.49 minutes
	system time =       8.31 seconds =       0.14 minutes
	total time  =         30 seconds =       0.50 minutes

    Psi4 stopped on: Saturday, 30 December 2023 05:05PM
    Psi4 wall time for execution: 0:00:29.76

*** Psi4 exiting successfully. Buy a developer a beer!
