
    -----------------------------------------------------------------------
          Psi4: An Open-Source Ab Initio Electronic Structure Package
                               Psi4 1.9 release

                         Git: Rev {} zzzzzzz 


    D. G. A. Smith, L. A. Burns, A. C. Simmonett, R. M. Parrish,
    M. C. Schieber, R. Galvelis, P. Kraus, H. Kruse, R. Di Remigio,
    A. Alenaizan, A. M. James, S. Lehtola, J. P. Misiewicz, M. Scheurer,
    R. A. Shaw, J. B. Schriber, Y. Xie, Z. L. Glick, D. A. Sirianni,
    J. S. O'Brien, J. M. Waldrop, A. Kumar, E. G. Hohenstein,
    B. P. Pritchard, B. R. Brooks, H. F. Schaefer III, A. Yu. Sokolov,
    K. Patkowski, A. E. DePrince III, U. Bozkaya, R. A. King,
    F. A. Evangelista, J. M. Turney, T. D. Crawford, C. D. Sherrill,
    J. Chem. Phys. 152(18) 184108 (2020). https://doi.org/10.1063/5.0006002

                            Additional Code Authors
    E. T. Seidl, C. L. Janssen, E. F. Valeev, M. L. Leininger,
    J. F. Gonthier, R. M. Richard, H. R. McAlexander, M. Saitow, X. Wang,
    P. Verma, M. H. Lechner, A. Jiang, S. Behnle, A. G. Heide,
    M. F. Herbst, and D. L. Poole

             Previous Authors, Complete List of Code Contributors,
                       and Citations for Specific Modules
    https://github.com/psi4/psi4/blob/master/codemeta.json
    https://github.com/psi4/psi4/graphs/contributors
    http://psicode.org/psi4manual/master/introduction.html#citing-psifour

    -----------------------------------------------------------------------


    Psi4 started on: Saturday, 30 December 2023 05:12PM

    Process ID: 214004
    Host:       moses-razer
    PSIDATADIR: /home/kchung25/anaconda3/envs/psi4_19/share/psi4
    Memory:     500.0 MiB
    Threads:    6
    
  ==> Input File <==

--------------------------------------------------------------------------
MEMORY 60 GB

molecule dimer {
1 1
K      0.000000     0.000000     0.000000
--
0 1
O      2.777715     0.000000     0.000000
H      3.370886     0.755912     0.000000
H      3.370886    -0.755912     0.000000
O     -2.777715     0.000000     0.000000
H     -3.370886    -0.755912     0.000000
H     -3.370886     0.755912     0.000000

units ang
no_reorient
no_com
symmetry c1
}

set {
basis        aug-cc-pVTZ
scf_type     df
}

energy("sapt2+")
--------------------------------------------------------------------------

  Memory set to  55.879 GiB by Python driver.

Scratch directory: /scratch/
   => Loading Basis Set <=

    Name: AUG-CC-PVTZ
    Role: ORBITAL
    Keyword: BASIS
    atoms 1        entry K          line  1152 file /home/kchung25/anaconda3/envs/p415env/share/psi4/basis/aug-cc-pvtz.gbs 
    atoms 2, 5     entry O          line   331 file /home/kchung25/anaconda3/envs/p415env/share/psi4/basis/aug-cc-pvtz.gbs 
    atoms 3-4, 6-7 entry H          line    40 file /home/kchung25/anaconda3/envs/p415env/share/psi4/basis/aug-cc-pvtz.gbs 

   => Loading Basis Set <=

    Name: AUG-CC-PVTZ
    Role: ORBITAL
    Keyword: BASIS
    atoms 1        entry K          line  1152 file /home/kchung25/anaconda3/envs/p415env/share/psi4/basis/aug-cc-pvtz.gbs 
    atoms 2, 5     entry O          line   331 file /home/kchung25/anaconda3/envs/p415env/share/psi4/basis/aug-cc-pvtz.gbs 
    atoms 3-4, 6-7 entry H          line    40 file /home/kchung25/anaconda3/envs/p415env/share/psi4/basis/aug-cc-pvtz.gbs 


  //>>>>>>>>>>>>>>>>>>>>>>>>>>>>>>>>>>>//
  //              Dimer HF             //
  //<<<<<<<<<<<<<<<<<<<<<<<<<<<<<<<<<<<//

   => Libint2 <=

    Primary   basis highest AM E, G, H:  5, 4, 3
    Auxiliary basis highest AM E, G, H:  6, 5, 4
    Onebody   basis highest AM E, G, H:  6, 5, 4
    Solid Harmonics ordering:            gaussian

*** tstart() called on moses-razer
*** at Sat Dec 30 17:12:48 2023

   => Loading Basis Set <=

    Name: AUG-CC-PVTZ
    Role: ORBITAL
    Keyword: BASIS
    atoms 1        entry K          line  1152 file /home/kchung25/anaconda3/envs/p415env/share/psi4/basis/aug-cc-pvtz.gbs 
    atoms 2, 5     entry O          line   331 file /home/kchung25/anaconda3/envs/p415env/share/psi4/basis/aug-cc-pvtz.gbs 
    atoms 3-4, 6-7 entry H          line    40 file /home/kchung25/anaconda3/envs/p415env/share/psi4/basis/aug-cc-pvtz.gbs 


         ---------------------------------------------------------
                                   SCF
               by Justin Turney, Rob Parrish, Andy Simmonett
                          and Daniel G. A. Smith
                              RHF Reference
                        6 Threads,  57220 MiB Core
         ---------------------------------------------------------

  ==> Geometry <==

    Molecular point group: c1
    Full point group: D2h

    Geometry (in Angstrom), charge = 1, multiplicity = 1:

       Center              X                  Y                   Z               Mass       
    ------------   -----------------  -----------------  -----------------  -----------------
         K            0.000000000000     0.000000000000     0.000000000000    38.963706486400
         O            2.777715000000     0.000000000000     0.000000000000    15.994914619570
         H            3.370886000000     0.755912000000     0.000000000000     1.007825032230
         H            3.370886000000    -0.755912000000     0.000000000000     1.007825032230
         O           -2.777715000000     0.000000000000     0.000000000000    15.994914619570
         H           -3.370886000000    -0.755912000000     0.000000000000     1.007825032230
         H           -3.370886000000     0.755912000000     0.000000000000     1.007825032230

  Running in c1 symmetry.

  Rotational constants: A =      7.31828  B =      0.05761  C =      0.05716 [cm^-1]
  Rotational constants: A = 219396.44560  B =   1727.01746  C =   1713.52911 [MHz]
  Nuclear repulsion =   97.019560639444848

  Charge       = 1
  Multiplicity = 1
  Electrons    = 38
  Nalpha       = 19
  Nbeta        = 19

  ==> Algorithm <==

  SCF Algorithm Type is DF.
  DIIS enabled.
  MOM disabled.
  Fractional occupation disabled.
  Guess Type is SAD.
  Energy threshold   = 1.00e-08
  Density threshold  = 1.00e-08
  Integral threshold = 1.00e-12

  ==> Primary Basis <==

  Basis Set: AUG-CC-PVTZ
    Blend: AUG-CC-PVTZ
    Number of shells: 83
    Number of basis functions: 243
    Number of Cartesian functions: 279
    Spherical Harmonics?: true
    Max angular momentum: 3

   => Loading Basis Set <=

    Name: (AUG-CC-PVTZ AUX)
    Role: JKFIT
    Keyword: DF_BASIS_SCF
    atoms 1        entry K          line  1152 file /home/kchung25/anaconda3/envs/p415env/share/psi4/basis/def2-universal-jkfit.gbs 
    atoms 2, 5     entry O          line   286 file /home/kchung25/anaconda3/envs/p415env/share/psi4/basis/aug-cc-pvtz-jkfit.gbs 
    atoms 3-4, 6-7 entry H          line    70 file /home/kchung25/anaconda3/envs/p415env/share/psi4/basis/aug-cc-pvtz-jkfit.gbs 

  ==> Integral Setup <==

  ==> DiskDFJK: Density-Fitted J/K Matrices <==

    J tasked:                  Yes
    K tasked:                  Yes
    wK tasked:                  No
    OpenMP threads:              6
    Integrals threads:           6
    Memory [MiB]:            42915
    Algorithm:                Core
    Integral Cache:           SAVE
    Schwarz Cutoff:          1E-12
    Fitting Condition:       1E-10

   => Auxiliary Basis Set <=

  Basis Set: (AUG-CC-PVTZ AUX)
    Blend: AUG-CC-PVTZ-JKFIT + DEF2-UNIVERSAL-JKFIT
    Number of shells: 160
    Number of basis functions: 552
    Number of Cartesian functions: 685
    Spherical Harmonics?: true
    Max angular momentum: 4

  Minimum eigenvalue in the overlap matrix is 8.0165799876E-05.
  Reciprocal condition number of the overlap matrix is 8.8242321465E-06.
    Using symmetric orthogonalization.

  ==> Pre-Iterations <==

  SCF Guess: Superposition of Atomic Densities via on-the-fly atomic UHF (no occupation information).

   -------------------------
    Irrep   Nso     Nmo    
   -------------------------
     A        243     243 
   -------------------------
    Total     243     243
   -------------------------

  ==> Iterations <==

                           Total Energy        Delta E     RMS |[F,P]|

   @DF-RHF iter SAD:  -750.06220849652573   -7.50062e+02   0.00000e+00 
   @DF-RHF iter   1:  -751.01683831953869   -9.54630e-01   2.78254e-03 DIIS/ADIIS
   @DF-RHF iter   2:  -751.12679321123846   -1.09955e-01   1.84124e-03 DIIS/ADIIS
   @DF-RHF iter   3:  -751.18791705437400   -6.11238e-02   1.27702e-04 DIIS/ADIIS
   @DF-RHF iter   4:  -751.18866308015959   -7.46026e-04   2.98401e-05 DIIS
   @DF-RHF iter   5:  -751.18870775873290   -4.46786e-05   6.43986e-06 DIIS
   @DF-RHF iter   6:  -751.18871094962651   -3.19089e-06   1.29779e-06 DIIS
   @DF-RHF iter   7:  -751.18871109153883   -1.41912e-07   2.28429e-07 DIIS
   @DF-RHF iter   8:  -751.18871109534462   -3.80578e-09   3.55118e-08 DIIS
   @DF-RHF iter   9:  -751.18871109541192   -6.73026e-11   7.12849e-09 DIIS
  Energy and wave function converged.


  ==> Post-Iterations <==

    Orbital Energies [Eh]
    ---------------------

    Doubly Occupied:                                                      

       1A   -133.678823     2A    -20.731908     3A    -20.731908  
       4A    -14.635399     5A    -11.665476     6A    -11.665438  
       7A    -11.665188     8A     -1.893938     9A     -1.518665  
      10A     -1.518417    11A     -1.103533    12A     -1.102722  
      13A     -1.099105    14A     -0.879641    15A     -0.879533  
      16A     -0.766410    17A     -0.759980    18A     -0.678587  
      19A     -0.678261  

    Virtual:                                                              

      20A     -0.108192    21A     -0.078390    22A     -0.077349  
      23A     -0.073505    24A     -0.059020    25A     -0.052271  
      26A     -0.048707    27A     -0.048669    28A     -0.047628  
      29A     -0.046845    30A     -0.040795    31A     -0.039063  
      32A     -0.038285    33A     -0.025568    34A     -0.024637  
      35A     -0.024557    36A     -0.024025    37A     -0.020742  
      38A     -0.019019    39A     -0.016865    40A     -0.008092  
      41A     -0.005969    42A     -0.003112    43A      0.000968  
      44A      0.010385    45A      0.016705    46A      0.023025  
      47A      0.024546    48A      0.029015    49A      0.029476  
      50A      0.029985    51A      0.046620    52A      0.046796  
      53A      0.048677    54A      0.064183    55A      0.074353  
      56A      0.074597    57A      0.076724    58A      0.108071  
      59A      0.108459    60A      0.115012    61A      0.119824  
      62A      0.127677    63A      0.131060    64A      0.137651  
      65A      0.146383    66A      0.152453    67A      0.162354  
      68A      0.172122    69A      0.182543    70A      0.191323  
      71A      0.202959    72A      0.237589    73A      0.239115  
      74A      0.246452    75A      0.247324    76A      0.258405  
      77A      0.261915    78A      0.267254    79A      0.268109  
      80A      0.274447    81A      0.276358    82A      0.276789  
      83A      0.280682    84A      0.287404    85A      0.287766  
      86A      0.312109    87A      0.318623    88A      0.318668  
      89A      0.351362    90A      0.352720    91A      0.364056  
      92A      0.365513    93A      0.366168    94A      0.411948  
      95A      0.416341    96A      0.510005    97A      0.515461  
      98A      0.550521    99A      0.583924   100A      0.617686  
     101A      0.621000   102A      0.627333   103A      0.633371  
     104A      0.677833   105A      0.683787   106A      0.711810  
     107A      0.731116   108A      0.733748   109A      0.748510  
     110A      0.768226   111A      0.804508   112A      0.830399  
     113A      0.833796   114A      0.842018   115A      0.856951  
     116A      0.864155   117A      0.890312   118A      0.905216  
     119A      0.919007   120A      0.926563   121A      0.931547  
     122A      0.943283   123A      0.945791   124A      0.979759  
     125A      0.990218   126A      1.000409   127A      1.018097  
     128A      1.018878   129A      1.038997   130A      1.047930  
     131A      1.059259   132A      1.085267   133A      1.118213  
     134A      1.175885   135A      1.188474   136A      1.202371  
     137A      1.293839   138A      1.368278   139A      1.426019  
     140A      1.457921   141A      1.474068   142A      1.474851  
     143A      1.549853   144A      1.699239   145A      1.708731  
     146A      1.712757   147A      1.775096   148A      1.838522  
     149A      1.852168   150A      1.974477   151A      1.980016  
     152A      2.114711   153A      2.144243   154A      2.152762  
     155A      2.153840   156A      2.196090   157A      2.218843  
     158A      2.241827   159A      2.248930   160A      2.302413  
     161A      2.323809   162A      2.364944   163A      2.389844  
     164A      2.442899   165A      2.545711   166A      2.548587  
     167A      2.563053   168A      2.573990   169A      2.614218  
     170A      2.631588   171A      2.677717   172A      2.684750  
     173A      2.700681   174A      2.725442   175A      2.742073  
     176A      3.566172   177A      3.597674   178A      3.603089  
     179A      3.639789   180A      3.866236   181A      3.872007  
     182A      3.940183   183A      4.004923   184A      4.028468  
     185A      4.052435   186A      4.102377   187A      4.107140  
     188A      4.127239   189A      4.132939   190A      4.231729  
     191A      4.255146   192A      4.272106   193A      4.273839  
     194A      4.278458   195A      4.295370   196A      4.372772  
     197A      4.381922   198A      4.614043   199A      4.661321  
     200A      4.698074   201A      4.707213   202A      4.988705  
     203A      4.990404   204A      5.001621   205A      5.003637  
     206A      5.088824   207A      5.093775   208A      5.178818  
     209A      5.179376   210A      5.365847   211A      5.369607  
     212A      5.527287   213A      5.568407   214A      6.061639  
     215A      6.107091   216A      6.394010   217A      6.434138  
     218A      6.543236   219A      6.549292   220A      6.744429  
     221A      6.764946   222A      6.978587   223A      6.991367  
     224A      7.131304   225A      7.137950   226A      7.142859  
     227A      7.150046   228A      7.155146   229A      7.178537  
     230A      7.199309   231A      7.208618   232A      7.216243  
     233A      7.282247   234A      7.382258   235A      7.426869  
     236A      7.742013   237A      7.747937   238A      7.763450  
     239A      7.771519   240A      8.661220   241A      8.662747  
     242A     15.615653   243A     15.716253  

    Final Occupation by Irrep:
              A 
    DOCC [    19 ]
    NA   [    19 ]
    NB   [    19 ]

  @DF-RHF Final Energy:  -751.18871109541192

   => Energetics <=

    Nuclear Repulsion Energy =             97.0195606394448475
    One-Electron Energy =               -1221.1106773270309986
    Two-Electron Energy =                 372.9024055921743184
    Total Energy =                       -751.1887110954119180

Computation Completed


Properties will be evaluated at   0.000000,   0.000000,   0.000000 [a0]

Properties computed using the SCF density matrix


 Multipole Moments:

 ------------------------------------------------------------------------------------
     Multipole            Electronic (a.u.)      Nuclear  (a.u.)        Total (a.u.)
 ------------------------------------------------------------------------------------

 L = 1.  Multiply by 2.5417464519 to convert [e a0] to [Debye]
 Dipole X            :          0.0000000            0.0000000            0.0000000
 Dipole Y            :         -0.0000000            0.0000000           -0.0000000
 Dipole Z            :          0.0000000            0.0000000            0.0000000
 Magnitude           :                                                    0.0000000

 ------------------------------------------------------------------------------------

*** tstop() called on moses-razer at Sat Dec 30 17:12:56 2023
Module time:
	user time   =      17.17 seconds =       0.29 minutes
	system time =       2.66 seconds =       0.04 minutes
	total time  =          8 seconds =       0.13 minutes
Total time:
	user time   =      17.17 seconds =       0.29 minutes
	system time =       2.66 seconds =       0.04 minutes
	total time  =          8 seconds =       0.13 minutes

  //>>>>>>>>>>>>>>>>>>>>>>>>>>>>>>>>>>>//
  //            Monomer A HF           //
  //<<<<<<<<<<<<<<<<<<<<<<<<<<<<<<<<<<<//

   => Libint2 <=

    Primary   basis highest AM E, G, H:  5, 4, 3
    Auxiliary basis highest AM E, G, H:  6, 5, 4
    Onebody   basis highest AM E, G, H:  6, 5, 4
    Solid Harmonics ordering:            gaussian

*** tstart() called on moses-razer
*** at Sat Dec 30 17:12:56 2023

   => Loading Basis Set <=

    Name: AUG-CC-PVTZ
    Role: ORBITAL
    Keyword: BASIS
    atoms 1        entry K          line  1152 file /home/kchung25/anaconda3/envs/p415env/share/psi4/basis/aug-cc-pvtz.gbs 
    atoms 2, 5     entry O          line   331 file /home/kchung25/anaconda3/envs/p415env/share/psi4/basis/aug-cc-pvtz.gbs 
    atoms 3-4, 6-7 entry H          line    40 file /home/kchung25/anaconda3/envs/p415env/share/psi4/basis/aug-cc-pvtz.gbs 


         ---------------------------------------------------------
                                   SCF
               by Justin Turney, Rob Parrish, Andy Simmonett
                          and Daniel G. A. Smith
                              RHF Reference
                        6 Threads,  57220 MiB Core
         ---------------------------------------------------------

  ==> Geometry <==

    Molecular point group: c1
    Full point group: D2h

    Geometry (in Angstrom), charge = 1, multiplicity = 1:

       Center              X                  Y                   Z               Mass       
    ------------   -----------------  -----------------  -----------------  -----------------
         K            0.000000000000     0.000000000000     0.000000000000    38.963706486400
      Gh(O)           2.777715000000     0.000000000000     0.000000000000    15.994914619570
      Gh(H)           3.370886000000     0.755912000000     0.000000000000     1.007825032230
      Gh(H)           3.370886000000    -0.755912000000     0.000000000000     1.007825032230
      Gh(O)          -2.777715000000     0.000000000000     0.000000000000    15.994914619570
      Gh(H)          -3.370886000000    -0.755912000000     0.000000000000     1.007825032230
      Gh(H)          -3.370886000000     0.755912000000     0.000000000000     1.007825032230

  Running in c1 symmetry.

  Rotational constants: A =      7.31828  B =      0.05761  C =      0.05716 [cm^-1]
  Rotational constants: A = 219396.44560  B =   1727.01746  C =   1713.52911 [MHz]
  Nuclear repulsion =    0.000000000000000

  Charge       = 1
  Multiplicity = 1
  Electrons    = 18
  Nalpha       = 9
  Nbeta        = 9

  ==> Algorithm <==

  SCF Algorithm Type is DF.
  DIIS enabled.
  MOM disabled.
  Fractional occupation disabled.
  Guess Type is SAD.
  Energy threshold   = 1.00e-08
  Density threshold  = 1.00e-08
  Integral threshold = 1.00e-12

  ==> Primary Basis <==

  Basis Set: AUG-CC-PVTZ
    Blend: AUG-CC-PVTZ
    Number of shells: 83
    Number of basis functions: 243
    Number of Cartesian functions: 279
    Spherical Harmonics?: true
    Max angular momentum: 3

   => Loading Basis Set <=

    Name: (AUG-CC-PVTZ AUX)
    Role: JKFIT
    Keyword: DF_BASIS_SCF
    atoms 1        entry K          line  1152 file /home/kchung25/anaconda3/envs/p415env/share/psi4/basis/def2-universal-jkfit.gbs 
    atoms 2, 5     entry O          line   286 file /home/kchung25/anaconda3/envs/p415env/share/psi4/basis/aug-cc-pvtz-jkfit.gbs 
    atoms 3-4, 6-7 entry H          line    70 file /home/kchung25/anaconda3/envs/p415env/share/psi4/basis/aug-cc-pvtz-jkfit.gbs 

  ==> Integral Setup <==

  ==> DiskDFJK: Density-Fitted J/K Matrices <==

    J tasked:                  Yes
    K tasked:                  Yes
    wK tasked:                  No
    OpenMP threads:              6
    Integrals threads:           6
    Memory [MiB]:            42915
    Algorithm:                Core
    Integral Cache:           LOAD
    Schwarz Cutoff:          1E-12
    Fitting Condition:       1E-10

   => Auxiliary Basis Set <=

  Basis Set: (AUG-CC-PVTZ AUX)
    Blend: AUG-CC-PVTZ-JKFIT + DEF2-UNIVERSAL-JKFIT
    Number of shells: 160
    Number of basis functions: 552
    Number of Cartesian functions: 685
    Spherical Harmonics?: true
    Max angular momentum: 4

  Minimum eigenvalue in the overlap matrix is 8.0165799876E-05.
  Reciprocal condition number of the overlap matrix is 8.8242321465E-06.
    Using symmetric orthogonalization.

  ==> Pre-Iterations <==

  SCF Guess: Superposition of Atomic Densities via on-the-fly atomic UHF (no occupation information).

   -------------------------
    Irrep   Nso     Nmo    
   -------------------------
     A        243     243 
   -------------------------
    Total     243     243
   -------------------------

  ==> Iterations <==

                           Total Energy        Delta E     RMS |[F,P]|

   @DF-RHF iter SAD:  -599.05183537898495   -5.99052e+02   0.00000e+00 
   @DF-RHF iter   1:  -599.01747945724890    3.43559e-02   3.08351e-05 DIIS
   @DF-RHF iter   2:  -599.01750953379644   -3.00765e-05   4.26397e-06 DIIS
   @DF-RHF iter   3:  -599.01751034660856   -8.12812e-07   3.51580e-07 DIIS
   @DF-RHF iter   4:  -599.01751035150596   -4.89740e-09   2.75486e-08 DIIS
   @DF-RHF iter   5:  -599.01751035154712   -4.11546e-11   4.15798e-09 DIIS
  Energy and wave function converged.


  ==> Post-Iterations <==

    Orbital Energies [Eh]
    ---------------------

    Doubly Occupied:                                                      

       1A   -133.753493     2A    -14.708990     3A    -11.739059  
       4A    -11.739056     5A    -11.739055     6A     -1.964242  
       7A     -1.170940     8A     -1.170839     9A     -1.170829  

    Virtual:                                                              

      10A     -0.146969    11A     -0.095564    12A     -0.095551  
      13A     -0.095550    14A     -0.060646    15A     -0.057891  
      16A     -0.057815    17A     -0.057796    18A     -0.057722  
      19A     -0.057722    20A     -0.045543    21A     -0.045535  
      22A     -0.045534    23A     -0.031318    24A     -0.031255  
      25A     -0.031230    26A     -0.031207    27A     -0.031207  
      28A     -0.019013    29A     -0.017134    30A     -0.016249  
      31A     -0.016098    32A     -0.012529    33A     -0.011998  
      34A      0.005237    35A      0.010888    36A      0.013102  
      37A      0.015213    38A      0.016470    39A      0.016565  
      40A      0.016898    41A      0.016921    42A      0.019624  
      43A      0.019635    44A      0.023184    45A      0.031895  
      46A      0.056491    47A      0.062714    48A      0.080911  
      49A      0.081541    50A      0.099562    51A      0.100378  
      52A      0.101606    53A      0.122249    54A      0.130333  
      55A      0.143976    56A      0.144309    57A      0.150015  
      58A      0.167185    59A      0.175956    60A      0.198825  
      61A      0.212422    62A      0.217648    63A      0.219787  
      64A      0.220812    65A      0.221609    66A      0.227561  
      67A      0.237666    68A      0.238446    69A      0.239124  
      70A      0.240569    71A      0.248795    72A      0.250177  
      73A      0.258177    74A      0.264489    75A      0.279931  
      76A      0.290416    77A      0.296599    78A      0.301241  
      79A      0.310017    80A      0.311751    81A      0.330083  
      82A      0.342277    83A      0.361406    84A      0.374467  
      85A      0.409913    86A      0.427003    87A      0.530582  
      88A      0.544461    89A      0.605947    90A      0.638819  
      91A      0.649088    92A      0.651927    93A      0.656223  
      94A      0.693156    95A      0.703848    96A      0.717158  
      97A      0.718685    98A      0.738739    99A      0.775031  
     100A      0.787865   101A      0.787946   102A      0.793278  
     103A      0.793302   104A      0.825059   105A      0.825670  
     106A      0.842435   107A      0.861178   108A      0.874702  
     109A      0.911177   110A      0.918847   111A      0.921977  
     112A      0.928354   113A      0.933669   114A      0.977344  
     115A      0.986684   116A      1.018270   117A      1.018379  
     118A      1.053451   119A      1.065541   120A      1.070107  
     121A      1.072917   122A      1.084288   123A      1.107999  
     124A      1.175315   125A      1.256841   126A      1.361611  
     127A      1.369763   128A      1.373568   129A      1.389180  
     130A      1.557761   131A      1.561015   132A      1.566221  
     133A      1.579286   134A      1.629489   135A      1.652811  
     136A      1.702209   137A      1.702290   138A      1.760994  
     139A      1.813186   140A      1.921463   141A      1.940845  
     142A      2.186310   143A      2.214022   144A      2.216869  
     145A      2.250825   146A      2.323671   147A      2.334052  
     148A      2.344925   149A      2.346803   150A      2.358301  
     151A      2.360926   152A      2.369501   153A      2.381708  
     154A      2.438274   155A      2.474991   156A      2.535373  
     157A      2.676469   158A      2.684164   159A      2.692521  
     160A      3.015986   161A      3.016441   162A      3.017345  
     163A      3.043776   164A      3.062222   165A      3.136962  
     166A      3.146731   167A      3.150461   168A      3.160921  
     169A      3.203123   170A      3.380932   171A      3.402599  
     172A      3.514966   173A      3.519665   174A      4.202315  
     175A      4.204797   176A      4.329067   177A      4.331824  
     178A      4.344067   179A      4.355938   180A      4.441278  
     181A      4.442760   182A      4.513417   183A      4.530320  
     184A      4.554136   185A      4.554881   186A      4.725927  
     187A      4.741795   188A      4.747397   189A      4.755879  
     190A      4.762557   191A      4.771722   192A      5.052143  
     193A      5.057581   194A      5.387162   195A      5.396776  
     196A      5.448291   197A      5.465251   198A      5.479912  
     199A      5.480213   200A      5.669755   201A      5.681406  
     202A      5.928489   203A      5.931561   204A      6.231696  
     205A      6.233211   206A      6.452277   207A      6.502046  
     208A      6.897316   209A      6.910235   210A      7.471464  
     211A      7.475782   212A      7.633426   213A      7.650560  
     214A      7.868422   215A      7.878971   216A      7.974935  
     217A      7.999074   218A      8.093350   219A      8.099416  
     220A      8.547294   221A      8.558538   222A      8.642869  
     223A      8.668410   224A      9.501155   225A      9.628765  
     226A      9.676354   227A      9.741321   228A      9.802944  
     229A      9.811561   230A     10.034346   231A     10.054384  
     232A     11.054196   233A     11.057351   234A     11.426685  
     235A     11.465710   236A     11.915987   237A     11.955274  
     238A     13.331126   239A     13.355289   240A     13.638745  
     241A     13.643142   242A     64.354417   243A     64.622338  

    Final Occupation by Irrep:
              A 
    DOCC [     9 ]
    NA   [     9 ]
    NB   [     9 ]

  @DF-RHF Final Energy:  -599.01751035154712

   => Energetics <=

    Nuclear Repulsion Energy =              0.0000000000000000
    One-Electron Energy =                -819.7220135592100405
    Two-Electron Energy =                 220.7045032076628672
    Total Energy =                       -599.0175103515471164

Computation Completed


Properties will be evaluated at   0.000000,   0.000000,   0.000000 [a0]

Properties computed using the SCF density matrix


 Multipole Moments:

 ------------------------------------------------------------------------------------
     Multipole            Electronic (a.u.)      Nuclear  (a.u.)        Total (a.u.)
 ------------------------------------------------------------------------------------

 L = 1.  Multiply by 2.5417464519 to convert [e a0] to [Debye]
 Dipole X            :          0.0000000            0.0000000            0.0000000
 Dipole Y            :         -0.0000000            0.0000000           -0.0000000
 Dipole Z            :          0.0000000            0.0000000            0.0000000
 Magnitude           :                                                    0.0000000

 ------------------------------------------------------------------------------------

*** tstop() called on moses-razer at Sat Dec 30 17:13:02 2023
Module time:
	user time   =      11.60 seconds =       0.19 minutes
	system time =       2.22 seconds =       0.04 minutes
	total time  =          6 seconds =       0.10 minutes
Total time:
	user time   =      28.80 seconds =       0.48 minutes
	system time =       4.88 seconds =       0.08 minutes
	total time  =         14 seconds =       0.23 minutes

  //>>>>>>>>>>>>>>>>>>>>>>>>>>>>>>>>>>>//
  //            Monomer B HF           //
  //<<<<<<<<<<<<<<<<<<<<<<<<<<<<<<<<<<<//

   => Libint2 <=

    Primary   basis highest AM E, G, H:  5, 4, 3
    Auxiliary basis highest AM E, G, H:  6, 5, 4
    Onebody   basis highest AM E, G, H:  6, 5, 4
    Solid Harmonics ordering:            gaussian

*** tstart() called on moses-razer
*** at Sat Dec 30 17:13:02 2023

   => Loading Basis Set <=

    Name: AUG-CC-PVTZ
    Role: ORBITAL
    Keyword: BASIS
    atoms 1        entry K          line  1152 file /home/kchung25/anaconda3/envs/p415env/share/psi4/basis/aug-cc-pvtz.gbs 
    atoms 2, 5     entry O          line   331 file /home/kchung25/anaconda3/envs/p415env/share/psi4/basis/aug-cc-pvtz.gbs 
    atoms 3-4, 6-7 entry H          line    40 file /home/kchung25/anaconda3/envs/p415env/share/psi4/basis/aug-cc-pvtz.gbs 


         ---------------------------------------------------------
                                   SCF
               by Justin Turney, Rob Parrish, Andy Simmonett
                          and Daniel G. A. Smith
                              RHF Reference
                        6 Threads,  57220 MiB Core
         ---------------------------------------------------------

  ==> Geometry <==

    Molecular point group: c1
    Full point group: D2h

    Geometry (in Angstrom), charge = 0, multiplicity = 1:

       Center              X                  Y                   Z               Mass       
    ------------   -----------------  -----------------  -----------------  -----------------
      Gh(K)           0.000000000000     0.000000000000     0.000000000000    38.963706486400
         O            2.777715000000     0.000000000000     0.000000000000    15.994914619570
         H            3.370886000000     0.755912000000     0.000000000000     1.007825032230
         H            3.370886000000    -0.755912000000     0.000000000000     1.007825032230
         O           -2.777715000000     0.000000000000     0.000000000000    15.994914619570
         H           -3.370886000000    -0.755912000000     0.000000000000     1.007825032230
         H           -3.370886000000     0.755912000000     0.000000000000     1.007825032230

  Running in c1 symmetry.

  Rotational constants: A =      7.31828  B =      0.05761  C =      0.05716 [cm^-1]
  Rotational constants: A = 219396.44560  B =   1727.01746  C =   1713.52911 [MHz]
  Nuclear repulsion =   27.463389952785747

  Charge       = 0
  Multiplicity = 1
  Electrons    = 20
  Nalpha       = 10
  Nbeta        = 10

  ==> Algorithm <==

  SCF Algorithm Type is DF.
  DIIS enabled.
  MOM disabled.
  Fractional occupation disabled.
  Guess Type is SAD.
  Energy threshold   = 1.00e-08
  Density threshold  = 1.00e-08
  Integral threshold = 1.00e-12

  ==> Primary Basis <==

  Basis Set: AUG-CC-PVTZ
    Blend: AUG-CC-PVTZ
    Number of shells: 83
    Number of basis functions: 243
    Number of Cartesian functions: 279
    Spherical Harmonics?: true
    Max angular momentum: 3

   => Loading Basis Set <=

    Name: (AUG-CC-PVTZ AUX)
    Role: JKFIT
    Keyword: DF_BASIS_SCF
    atoms 1        entry K          line  1152 file /home/kchung25/anaconda3/envs/p415env/share/psi4/basis/def2-universal-jkfit.gbs 
    atoms 2, 5     entry O          line   286 file /home/kchung25/anaconda3/envs/p415env/share/psi4/basis/aug-cc-pvtz-jkfit.gbs 
    atoms 3-4, 6-7 entry H          line    70 file /home/kchung25/anaconda3/envs/p415env/share/psi4/basis/aug-cc-pvtz-jkfit.gbs 

  ==> Integral Setup <==

  ==> DiskDFJK: Density-Fitted J/K Matrices <==

    J tasked:                  Yes
    K tasked:                  Yes
    wK tasked:                  No
    OpenMP threads:              6
    Integrals threads:           6
    Memory [MiB]:            42915
    Algorithm:                Core
    Integral Cache:           LOAD
    Schwarz Cutoff:          1E-12
    Fitting Condition:       1E-10

   => Auxiliary Basis Set <=

  Basis Set: (AUG-CC-PVTZ AUX)
    Blend: AUG-CC-PVTZ-JKFIT + DEF2-UNIVERSAL-JKFIT
    Number of shells: 160
    Number of basis functions: 552
    Number of Cartesian functions: 685
    Spherical Harmonics?: true
    Max angular momentum: 4

  Minimum eigenvalue in the overlap matrix is 8.0165799876E-05.
  Reciprocal condition number of the overlap matrix is 8.8242321465E-06.
    Using symmetric orthogonalization.

  ==> Pre-Iterations <==

  SCF Guess: Superposition of Atomic Densities via on-the-fly atomic UHF (no occupation information).

   -------------------------
    Irrep   Nso     Nmo    
   -------------------------
     A        243     243 
   -------------------------
    Total     243     243
   -------------------------

  ==> Iterations <==

                           Total Energy        Delta E     RMS |[F,P]|

   @DF-RHF iter SAD:  -150.94936343451923   -1.50949e+02   0.00000e+00 
   @DF-RHF iter   1:  -151.94937317531102   -1.00001e+00   2.73337e-03 DIIS/ADIIS
   @DF-RHF iter   2:  -152.05472885639713   -1.05356e-01   1.87342e-03 DIIS/ADIIS
   @DF-RHF iter   3:  -152.11881494008384   -6.40861e-02   1.27596e-04 DIIS/ADIIS
   @DF-RHF iter   4:  -152.11960609501645   -7.91155e-04   3.05476e-05 DIIS
   @DF-RHF iter   5:  -152.11965599895169   -4.99039e-05   6.98917e-06 DIIS
   @DF-RHF iter   6:  -152.11966013140162   -4.13245e-06   1.52865e-06 DIIS
   @DF-RHF iter   7:  -152.11966034860203   -2.17200e-07   2.75184e-07 DIIS
   @DF-RHF iter   8:  -152.11966035478332   -6.18130e-09   4.63419e-08 DIIS
   @DF-RHF iter   9:  -152.11966035492088   -1.37561e-10   1.13946e-08 DIIS
   @DF-RHF iter  10:  -152.11966035492915   -8.27072e-12   1.67882e-09 DIIS
  Energy and wave function converged.


  ==> Post-Iterations <==

    Orbital Energies [Eh]
    ---------------------

    Doubly Occupied:                                                      

       1A    -20.561944     2A    -20.561944     3A     -1.346020  
       4A     -1.346019     5A     -0.708149     6A     -0.708144  
       7A     -0.579149     8A     -0.578946     9A     -0.503926  
      10A     -0.503895  

    Virtual:                                                              

      11A      0.008185    12A      0.009964    13A      0.010456  
      14A      0.011318    15A      0.017678    16A      0.018063  
      17A      0.019141    18A      0.020248    19A      0.020289  
      20A      0.035041    21A      0.039434    22A      0.042207  
      23A      0.046340    24A      0.061067    25A      0.064356  
      26A      0.069169    27A      0.069646    28A      0.070636  
      29A      0.070709    30A      0.072008    31A      0.095185  
      32A      0.099368    33A      0.114583    34A      0.116146  
      35A      0.118862    36A      0.119817    37A      0.143280  
      38A      0.144394    39A      0.147847    40A      0.152229  
      41A      0.152254    42A      0.187298    43A      0.192560  
      44A      0.201976    45A      0.205923    46A      0.225213  
      47A      0.225618    48A      0.233441    49A      0.244274  
      50A      0.251183    51A      0.260888    52A      0.261035  
      53A      0.273987    54A      0.279380    55A      0.282255  
      56A      0.283264    57A      0.285767    58A      0.295215  
      59A      0.300408    60A      0.327863    61A      0.332436  
      62A      0.349913    63A      0.385126    64A      0.402006  
      65A      0.403388    66A      0.409004    67A      0.411732  
      68A      0.426712    69A      0.427088    70A      0.430352  
      71A      0.431153    72A      0.481477    73A      0.481633  
      74A      0.484060    75A      0.485430    76A      0.487305  
      77A      0.497369    78A      0.498073    79A      0.543275  
      80A      0.582373    81A      0.596245    82A      0.631859  
      83A      0.658987    84A      0.675077    85A      0.693913  
      86A      0.737957    87A      0.763931    88A      0.779998  
      89A      0.780768    90A      0.781050    91A      0.830432  
      92A      0.836283    93A      0.862281    94A      0.874146  
      95A      0.892410    96A      0.909050    97A      0.919207  
      98A      0.927390    99A      0.951021   100A      0.967765  
     101A      0.982354   102A      1.012682   103A      1.020689  
     104A      1.037716   105A      1.045032   106A      1.065493  
     107A      1.074601   108A      1.075260   109A      1.079304  
     110A      1.081168   111A      1.109997   112A      1.121789  
     113A      1.123514   114A      1.165676   115A      1.179515  
     116A      1.186043   117A      1.197346   118A      1.206927  
     119A      1.252095   120A      1.262934   121A      1.270808  
     122A      1.338063   123A      1.370211   124A      1.519704  
     125A      1.570988   126A      1.586099   127A      1.591788  
     128A      1.592071   129A      1.630784   130A      1.844737  
     131A      1.859437   132A      1.859538   133A      1.894845  
     134A      1.920210   135A      1.943868   136A      1.962940  
     137A      1.966598   138A      1.990185   139A      2.039002  
     140A      2.136537   141A      2.145626   142A      2.175276  
     143A      2.275537   144A      2.309572   145A      2.326977  
     146A      2.330573   147A      2.332224   148A      2.334920  
     149A      2.341044   150A      2.383248   151A      2.397042  
     152A      2.437007   153A      2.441881   154A      2.540813  
     155A      2.542953   156A      2.555546   157A      2.557812  
     158A      2.576010   159A      2.732366   160A      2.738743  
     161A      2.749340   162A      2.761679   163A      2.792993  
     164A      2.800615   165A      2.891973   166A      2.897196  
     167A      2.913157   168A      2.918489   169A      3.033210  
     170A      3.267156   171A      3.734397   172A      3.767988  
     173A      3.787529   174A      3.811175   175A      4.027134  
     176A      4.033032   177A      4.108026   178A      4.173408  
     179A      4.195635   180A      4.219194   181A      4.266038  
     182A      4.280385   183A      4.293253   184A      4.298744  
     185A      4.394131   186A      4.434766   187A      4.435140  
     188A      4.443614   189A      4.452947   190A      4.458860  
     191A      4.538894   192A      4.546202   193A      4.783703  
     194A      4.831563   195A      4.861867   196A      4.871374  
     197A      5.156472   198A      5.158019   199A      5.164145  
     200A      5.165847   201A      5.265374   202A      5.269984  
     203A      5.347452   204A      5.352895   205A      5.532637  
     206A      5.536162   207A      5.706189   208A      5.745507  
     209A      6.245218   210A      6.281096   211A      6.575723  
     212A      6.606512   213A      6.721212   214A      6.727555  
     215A      6.922676   216A      6.943066   217A      7.155409  
     218A      7.166268   219A      7.307404   220A      7.312847  
     221A      7.316878   222A      7.325876   223A      7.331066  
     224A      7.354088   225A      7.370658   226A      7.379840  
     227A      7.405046   228A      7.458270   229A      7.557160  
     230A      7.601306   231A      7.916274   232A      7.921634  
     233A      7.939647   234A      7.947987   235A      8.832022  
     236A      8.833179   237A     10.366286   238A     15.786129  
     239A     15.884276   240A     30.282888   241A     30.350109  
     242A     31.135190   243A    197.971217  

    Final Occupation by Irrep:
              A 
    DOCC [    10 ]
    NA   [    10 ]
    NB   [    10 ]

  @DF-RHF Final Energy:  -152.11966035492915

   => Energetics <=

    Nuclear Repulsion Energy =             27.4633899527857466
    One-Electron Energy =                -264.3698324747651895
    Two-Electron Energy =                  84.7867821670502906
    Total Energy =                       -152.1196603549291524

Computation Completed


Properties will be evaluated at   0.000000,   0.000000,   0.000000 [a0]

Properties computed using the SCF density matrix


 Multipole Moments:

 ------------------------------------------------------------------------------------
     Multipole            Electronic (a.u.)      Nuclear  (a.u.)        Total (a.u.)
 ------------------------------------------------------------------------------------

 L = 1.  Multiply by 2.5417464519 to convert [e a0] to [Debye]
 Dipole X            :         -0.0000000            0.0000000           -0.0000000
 Dipole Y            :         -0.0000000            0.0000000           -0.0000000
 Dipole Z            :          0.0000000            0.0000000            0.0000000
 Magnitude           :                                                    0.0000000

 ------------------------------------------------------------------------------------

*** tstop() called on moses-razer at Sat Dec 30 17:13:07 2023
Module time:
	user time   =      10.05 seconds =       0.17 minutes
	system time =       0.97 seconds =       0.02 minutes
	total time  =          5 seconds =       0.08 minutes
Total time:
	user time   =      38.89 seconds =       0.65 minutes
	system time =       5.85 seconds =       0.10 minutes
	total time  =         19 seconds =       0.32 minutes
  Constructing Basis Sets for SAPT...

   => Loading Basis Set <=

    Name: (AUG-CC-PVTZ AUX)
    Role: RIFIT
    Keyword: DF_BASIS_SAPT
    atoms 1        entry K          line  1282 file /home/kchung25/anaconda3/envs/p415env/share/psi4/basis/def2-qzvpp-ri.gbs 
    atoms 2, 5     entry O          line   264 file /home/kchung25/anaconda3/envs/p415env/share/psi4/basis/aug-cc-pvtz-ri.gbs 
    atoms 3-4, 6-7 entry H          line    30 file /home/kchung25/anaconda3/envs/p415env/share/psi4/basis/aug-cc-pvtz-ri.gbs 

   => Loading Basis Set <=

    Name: (AUG-CC-PVTZ AUX)
    Role: JKFIT
    Keyword: DF_BASIS_ELST
    atoms 1        entry K          line  1152 file /home/kchung25/anaconda3/envs/p415env/share/psi4/basis/def2-universal-jkfit.gbs 
    atoms 2, 5     entry O          line   286 file /home/kchung25/anaconda3/envs/p415env/share/psi4/basis/aug-cc-pvtz-jkfit.gbs 
    atoms 3-4, 6-7 entry H          line    70 file /home/kchung25/anaconda3/envs/p415env/share/psi4/basis/aug-cc-pvtz-jkfit.gbs 


  //>>>>>>>>>>>>>>>>>>>>>>>>>>>>>>>>>>>//
  //               SAPT2+              //
  //<<<<<<<<<<<<<<<<<<<<<<<<<<<<<<<<<<<//


*** tstart() called on moses-razer
*** at Sat Dec 30 17:13:07 2023

        SAPT2+  
    Ed Hohenstein
     6 June 2009

      Orbital Information
  --------------------------
    NSO        =       243
    NMO        =       243
    NRI        =       595
    NOCC A     =         9
    NOCC B     =        10
    FOCC A     =         0
    FOCC B     =         0
    NVIR A     =       234
    NVIR B     =       233

    Estimated memory usage: 392.1 MB

    Natural Orbital Cutoff:   1.000E-06
    Disp(T3) Truncation:            Yes
    CCD (vv|vv) Truncation:         Yes
    MBPT T2 Truncation:             Yes

    Monomer A: 207 virtual orbitals dropped
    Monomer B: 76 virtual orbitals dropped

    Elst10,r            =    -0.054286865254 [Eh]
    Exch10 (S^2)        =     0.012313140186 [Eh]
    Exch10              =     0.012349817012 [Eh]
    Ind20,r (A<-B)      =    -0.000321907285 [Eh]
    Ind20,r (B<-A)      =    -0.018372807753 [Eh]
    Ind20,r             =    -0.018694715038 [Eh]
    Exch-Ind20,r (A<-B) =     0.000220212390 [Eh]
    Exch-Ind20,r (B<-A) =     0.009055453264 [Eh]
    Exch-Ind20,r        =     0.009275665653 [Eh]
    Disp20              =    -0.003990835631 [Eh]
    Disp20 (NO)         =    -0.003577531503 [Eh]
    Exch-Disp20         =     0.000448579314 [Eh]
    Elst12,r            =     0.002701347804 [Eh]
    Exch11              =     0.000035964890 [Eh]
    Exch12              =     0.001373474353 [Eh]
    Ind22               =    -0.002785724397 [Eh]
    Disp21              =     0.000486182586 [Eh]
    Disp22 (SDQ)        =    -0.000029729211 [Eh]

    (i =   1 of  10)          0 seconds
    (i =   2 of  10)          0 seconds
    (i =   3 of  10)          0 seconds
    (i =   4 of  10)          1 seconds
    (i =   5 of  10)          1 seconds
    (i =   6 of  10)          1 seconds
    (i =   7 of  10)          1 seconds
    (i =   8 of  10)          1 seconds
    (i =   9 of  10)          1 seconds
    (i =  10 of  10)          1 seconds

    Disp220 (T)         =    -0.000097403920 [Eh]

    (i =   1 of   9)          1 seconds
    (i =   2 of   9)          3 seconds
    (i =   3 of   9)          4 seconds
    (i =   4 of   9)          5 seconds
    (i =   5 of   9)          6 seconds
    (i =   6 of   9)          7 seconds
    (i =   7 of   9)          9 seconds
    (i =   8 of   9)         10 seconds
    (i =   9 of   9)         11 seconds

    Disp202 (T)         =    -0.000284633242 [Eh]

    Disp22 (T)          =    -0.000382037162 [Eh]

    Est. Disp220 (T)    =    -0.000108656775 [Eh]
    Est. Disp202 (T)    =    -0.000317516277 [Eh]

    Est. Disp22 (T)     =    -0.000426173052 [Eh]

    SAPT Results 
  --------------------------------------------------------------------------------------------------------
    Electrostatics                -51.58551745 [mEh]     -32.37040091 [kcal/mol]    -135.43775741 [kJ/mol]
      Elst10,r                    -54.28686525 [mEh]     -34.06552225 [kcal/mol]    -142.53014509 [kJ/mol]
      Elst12,r                      2.70134780 [mEh]       1.69512134 [kcal/mol]       7.09238768 [kJ/mol]

    Exchange                       13.75925626 [mEh]       8.63406365 [kcal/mol]      36.12492232 [kJ/mol]
      Exch10                       12.34981701 [mEh]       7.74962717 [kcal/mol]      32.42444010 [kJ/mol]
      Exch10(S^2)                  12.31314019 [mEh]       7.72661212 [kcal/mol]      32.32814510 [kJ/mol]
      Exch11(S^2)                   0.03596489 [mEh]       0.02256831 [kcal/mol]       0.09442581 [kJ/mol]
      Exch12(S^2)                   1.37347435 [mEh]       0.86186817 [kcal/mol]       3.60605642 [kJ/mol]

    Induction                     -11.00688579 [mEh]      -6.90692511 [kcal/mol]     -28.89857467 [kJ/mol]
      Ind20,r                     -18.69471504 [mEh]     -11.73111080 [kcal/mol]     -49.08296757 [kJ/mol]
      Ind22                        -2.78572440 [mEh]      -1.74806845 [kcal/mol]      -7.31391840 [kJ/mol]
      Exch-Ind20,r                  9.27566565 [mEh]       5.82056807 [kcal/mol]      24.35325682 [kJ/mol]
      Exch-Ind22                    1.38217930 [mEh]       0.86733060 [kcal/mol]       3.62891125 [kJ/mol]
      delta HF,r (2)               -0.18429131 [mEh]      -0.11564454 [kcal/mol]      -0.48385676 [kJ/mol]

    Dispersion                     -3.51197599 [mEh]      -2.20379821 [kcal/mol]      -9.22069170 [kJ/mol]
      Disp20                       -3.99083563 [mEh]      -2.50428717 [kcal/mol]     -10.47793751 [kJ/mol]
      Disp21                        0.48618259 [mEh]       0.30508418 [kcal/mol]       1.27647220 [kJ/mol]
      Disp22 (SDQ)                 -0.02972921 [mEh]      -0.01865536 [kcal/mol]      -0.07805403 [kJ/mol]
      Disp22 (T)                   -0.38203716 [mEh]      -0.23973194 [kcal/mol]      -1.00303843 [kJ/mol]
      Est. Disp22 (T)              -0.42617305 [mEh]      -0.26742763 [kcal/mol]      -1.11891719 [kJ/mol]
      Exch-Disp20                   0.44857931 [mEh]       0.28148777 [kcal/mol]       1.17774483 [kJ/mol]

  Total HF                        -51.54038894 [mEh]     -32.34208234 [kcal/mol]    -135.31927251 [kJ/mol]
  Total SAPT0                     -55.08264525 [mEh]     -34.56488174 [kcal/mol]    -144.61946519 [kJ/mol]
  Total SAPT2                     -52.37540330 [mEh]     -32.86606177 [kcal/mol]    -137.51160243 [kJ/mol]
  Total SAPT2+                    -52.34512298 [mEh]     -32.84706058 [kcal/mol]    -137.43210145 [kJ/mol]

  Special recipe for scaled SAPT0 (see Manual):
    Electrostatics sSAPT0         -54.28686525 [mEh]     -34.06552225 [kcal/mol]    -142.53014509 [kJ/mol]
    Exchange sSAPT0                12.34981701 [mEh]       7.74962717 [kcal/mol]      32.42444010 [kJ/mol]
    Induction sSAPT0               -9.52020601 [mEh]      -5.97401946 [kcal/mol]     -24.99529744 [kJ/mol]
    Dispersion sSAPT0              -3.53823585 [mEh]      -2.22027652 [kcal/mol]      -9.28963695 [kJ/mol]
  Total sSAPT0                    -54.99549010 [mEh]     -34.51019105 [kcal/mol]    -144.39063937 [kJ/mol]
  --------------------------------------------------------------------------------------------------------

*** tstop() called on moses-razer at Sat Dec 30 17:13:51 2023
Module time:
	user time   =     207.65 seconds =       3.46 minutes
	system time =       7.97 seconds =       0.13 minutes
	total time  =         44 seconds =       0.73 minutes
Total time:
	user time   =     247.21 seconds =       4.12 minutes
	system time =      13.82 seconds =       0.23 minutes
	total time  =         63 seconds =       1.05 minutes

    Psi4 stopped on: Saturday, 30 December 2023 05:13PM
    Psi4 wall time for execution: 0:01:03.20

*** Psi4 exiting successfully. Buy a developer a beer!
