
    -----------------------------------------------------------------------
          Psi4: An Open-Source Ab Initio Electronic Structure Package
                               Psi4 1.9 release

                         Git: Rev {} zzzzzzz 


    D. G. A. Smith, L. A. Burns, A. C. Simmonett, R. M. Parrish,
    M. C. Schieber, R. Galvelis, P. Kraus, H. Kruse, R. Di Remigio,
    A. Alenaizan, A. M. James, S. Lehtola, J. P. Misiewicz, M. Scheurer,
    R. A. Shaw, J. B. Schriber, Y. Xie, Z. L. Glick, D. A. Sirianni,
    J. S. O'Brien, J. M. Waldrop, A. Kumar, E. G. Hohenstein,
    B. P. Pritchard, B. R. Brooks, H. F. Schaefer III, A. Yu. Sokolov,
    K. Patkowski, A. E. DePrince III, U. Bozkaya, R. A. King,
    F. A. Evangelista, J. M. Turney, T. D. Crawford, C. D. Sherrill,
    J. Chem. Phys. 152(18) 184108 (2020). https://doi.org/10.1063/5.0006002

                            Additional Code Authors
    E. T. Seidl, C. L. Janssen, E. F. Valeev, M. L. Leininger,
    J. F. Gonthier, R. M. Richard, H. R. McAlexander, M. Saitow, X. Wang,
    P. Verma, M. H. Lechner, A. Jiang, S. Behnle, A. G. Heide,
    M. F. Herbst, and D. L. Poole

             Previous Authors, Complete List of Code Contributors,
                       and Citations for Specific Modules
    https://github.com/psi4/psi4/blob/master/codemeta.json
    https://github.com/psi4/psi4/graphs/contributors
    http://psicode.org/psi4manual/master/introduction.html#citing-psifour

    -----------------------------------------------------------------------


    Psi4 started on: Saturday, 30 December 2023 05:56PM

    Process ID: 218955
    Host:       moses-razer
    PSIDATADIR: /home/kchung25/anaconda3/envs/psi4_19/share/psi4
    Memory:     500.0 MiB
    Threads:    6
    
  ==> Input File <==

--------------------------------------------------------------------------
MEMORY 60 GB

molecule dimer {
-1 1
Br     5.665650     0.000000     0.000000
--
0 1
O      0.000000    -0.112811     1.567716
H     -0.349529     0.578740     1.000386
H      0.921124    -0.169041     1.237825
O      0.000000     0.112811    -1.567716
H     -0.349529    -0.578740    -1.000386
H      0.921124     0.169041    -1.237825

units ang
no_reorient
no_com
symmetry c1
}

set {
basis        aug-cc-pVTZ
scf_type     df
}

energy("sapt2+")
--------------------------------------------------------------------------

  Memory set to  55.879 GiB by Python driver.

Scratch directory: /scratch/
   => Loading Basis Set <=

    Name: AUG-CC-PVTZ
    Role: ORBITAL
    Keyword: BASIS
    atoms 1        entry BR         line  4564 file /home/kchung25/anaconda3/envs/p415env/share/psi4/basis/aug-cc-pvtz.gbs 
    atoms 2, 5     entry O          line   331 file /home/kchung25/anaconda3/envs/p415env/share/psi4/basis/aug-cc-pvtz.gbs 
    atoms 3-4, 6-7 entry H          line    40 file /home/kchung25/anaconda3/envs/p415env/share/psi4/basis/aug-cc-pvtz.gbs 

   => Loading Basis Set <=

    Name: AUG-CC-PVTZ
    Role: ORBITAL
    Keyword: BASIS
    atoms 1        entry BR         line  4564 file /home/kchung25/anaconda3/envs/p415env/share/psi4/basis/aug-cc-pvtz.gbs 
    atoms 2, 5     entry O          line   331 file /home/kchung25/anaconda3/envs/p415env/share/psi4/basis/aug-cc-pvtz.gbs 
    atoms 3-4, 6-7 entry H          line    40 file /home/kchung25/anaconda3/envs/p415env/share/psi4/basis/aug-cc-pvtz.gbs 


  //>>>>>>>>>>>>>>>>>>>>>>>>>>>>>>>>>>>//
  //              Dimer HF             //
  //<<<<<<<<<<<<<<<<<<<<<<<<<<<<<<<<<<<//

   => Libint2 <=

    Primary   basis highest AM E, G, H:  5, 4, 3
    Auxiliary basis highest AM E, G, H:  6, 5, 4
    Onebody   basis highest AM E, G, H:  6, 5, 4
    Solid Harmonics ordering:            gaussian

*** tstart() called on moses-razer
*** at Sat Dec 30 17:56:26 2023

   => Loading Basis Set <=

    Name: AUG-CC-PVTZ
    Role: ORBITAL
    Keyword: BASIS
    atoms 1        entry BR         line  4564 file /home/kchung25/anaconda3/envs/p415env/share/psi4/basis/aug-cc-pvtz.gbs 
    atoms 2, 5     entry O          line   331 file /home/kchung25/anaconda3/envs/p415env/share/psi4/basis/aug-cc-pvtz.gbs 
    atoms 3-4, 6-7 entry H          line    40 file /home/kchung25/anaconda3/envs/p415env/share/psi4/basis/aug-cc-pvtz.gbs 


         ---------------------------------------------------------
                                   SCF
               by Justin Turney, Rob Parrish, Andy Simmonett
                          and Daniel G. A. Smith
                              RHF Reference
                        6 Threads,  57220 MiB Core
         ---------------------------------------------------------

  ==> Geometry <==

    Molecular point group: c1
    Full point group: C2

    Geometry (in Angstrom), charge = -1, multiplicity = 1:

       Center              X                  Y                   Z               Mass       
    ------------   -----------------  -----------------  -----------------  -----------------
         BR           5.665650000000     0.000000000000     0.000000000000    78.918337600000
         O            0.000000000000    -0.112811000000     1.567716000000    15.994914619570
         H           -0.349529000000     0.578740000000     1.000386000000     1.007825032230
         H            0.921124000000    -0.169041000000     1.237825000000     1.007825032230
         O            0.000000000000     0.112811000000    -1.567716000000    15.994914619570
         H           -0.349529000000    -0.578740000000    -1.000386000000     1.007825032230
         H            0.921124000000     0.169041000000    -1.237825000000     1.007825032230

  Running in c1 symmetry.

  Rotational constants: A =      0.19863  B =      0.00665  C =      0.00644 [cm^-1]
  Rotational constants: A =   5954.88914  B =    199.27790  C =    192.95005 [MHz]
  Nuclear repulsion =   99.853091736289002

  Charge       = -1
  Multiplicity = 1
  Electrons    = 56
  Nalpha       = 28
  Nbeta        = 28

  ==> Algorithm <==

  SCF Algorithm Type is DF.
  DIIS enabled.
  MOM disabled.
  Fractional occupation disabled.
  Guess Type is SAD.
  Energy threshold   = 1.00e-08
  Density threshold  = 1.00e-08
  Integral threshold = 1.00e-12

  ==> Primary Basis <==

  Basis Set: AUG-CC-PVTZ
    Blend: AUG-CC-PVTZ
    Number of shells: 83
    Number of basis functions: 243
    Number of Cartesian functions: 279
    Spherical Harmonics?: true
    Max angular momentum: 3

   => Loading Basis Set <=

    Name: (AUG-CC-PVTZ AUX)
    Role: JKFIT
    Keyword: DF_BASIS_SCF
    atoms 1        entry BR         line  1492 file /home/kchung25/anaconda3/envs/p415env/share/psi4/basis/aug-cc-pvtz-jkfit.gbs 
    atoms 2, 5     entry O          line   286 file /home/kchung25/anaconda3/envs/p415env/share/psi4/basis/aug-cc-pvtz-jkfit.gbs 
    atoms 3-4, 6-7 entry H          line    70 file /home/kchung25/anaconda3/envs/p415env/share/psi4/basis/aug-cc-pvtz-jkfit.gbs 

  ==> Integral Setup <==

  ==> DiskDFJK: Density-Fitted J/K Matrices <==

    J tasked:                  Yes
    K tasked:                  Yes
    wK tasked:                  No
    OpenMP threads:              6
    Integrals threads:           6
    Memory [MiB]:            42915
    Algorithm:                Core
    Integral Cache:           SAVE
    Schwarz Cutoff:          1E-12
    Fitting Condition:       1E-10

   => Auxiliary Basis Set <=

  Basis Set: (AUG-CC-PVTZ AUX)
    Blend: AUG-CC-PVTZ-JKFIT
    Number of shells: 174
    Number of basis functions: 640
    Number of Cartesian functions: 811
    Spherical Harmonics?: true
    Max angular momentum: 4

  Minimum eigenvalue in the overlap matrix is 2.8614046353E-04.
  Reciprocal condition number of the overlap matrix is 2.9156967164E-05.
    Using symmetric orthogonalization.

  ==> Pre-Iterations <==

  SCF Guess: Superposition of Atomic Densities via on-the-fly atomic UHF (no occupation information).

   -------------------------
    Irrep   Nso     Nmo    
   -------------------------
     A        243     243 
   -------------------------
    Total     243     243
   -------------------------

  ==> Iterations <==

                           Total Energy        Delta E     RMS |[F,P]|

   @DF-RHF iter SAD: -2721.42110376007304   -2.72142e+03   0.00000e+00 
   @DF-RHF iter   1: -2724.22460787933142   -2.80350e+00   5.05722e-03 DIIS/ADIIS
   @DF-RHF iter   2: -2724.53294191215764   -3.08334e-01   2.98683e-03 DIIS/ADIIS
   @DF-RHF iter   3: -2724.66034919005278   -1.27407e-01   1.83188e-04 DIIS/ADIIS
   @DF-RHF iter   4: -2724.66131774610767   -9.68556e-04   9.14464e-05 DIIS
   @DF-RHF iter   5: -2724.66151512686201   -1.97381e-04   1.55690e-05 DIIS
   @DF-RHF iter   6: -2724.66153165473997   -1.65279e-05   3.51443e-06 DIIS
   @DF-RHF iter   7: -2724.66153266781976   -1.01308e-06   9.51041e-07 DIIS
   @DF-RHF iter   8: -2724.66153273739928   -6.95795e-08   2.04681e-07 DIIS
   @DF-RHF iter   9: -2724.66153274057842   -3.17914e-09   3.80604e-08 DIIS
   @DF-RHF iter  10: -2724.66153274067210   -9.36780e-11   1.24786e-08 DIIS
   @DF-RHF iter  11: -2724.66153274068847   -1.63709e-11   3.51821e-09 DIIS
  Energy and wave function converged.


  ==> Post-Iterations <==

    Orbital Energies [Eh]
    ---------------------

    Doubly Occupied:                                                      

       1A   -489.732059     2A    -64.872158     3A    -58.226639  
       4A    -58.226617     5A    -58.226617     6A    -20.488225  
       7A    -20.488221     8A     -9.544568     9A     -7.151987  
      10A     -7.151870    11A     -7.151868    12A     -2.893668  
      13A     -2.893624    14A     -2.893621    15A     -2.893477  
      16A     -2.893477    17A     -1.272292    18A     -1.265120  
      19A     -0.697697    20A     -0.624538    21A     -0.618445  
      22A     -0.518880    23A     -0.502855    24A     -0.435048  
      25A     -0.422969    26A     -0.151499    27A     -0.150798  
      28A     -0.150789  

    Virtual:                                                              

      29A      0.107762    30A      0.126315    31A      0.148667  
      32A      0.150324    33A      0.217035    34A      0.227507  
      35A      0.244869    36A      0.245919    37A      0.249900  
      38A      0.256154    39A      0.261652    40A      0.272841  
      41A      0.275663    42A      0.287488    43A      0.296968  
      44A      0.311896    45A      0.327450    46A      0.345414  
      47A      0.347568    48A      0.362101    49A      0.391192  
      50A      0.402954    51A      0.434437    52A      0.435114  
      53A      0.467216    54A      0.477725    55A      0.479759  
      56A      0.487965    57A      0.488448    58A      0.496341  
      59A      0.516833    60A      0.519386    61A      0.552410  
      62A      0.562416    63A      0.568882    64A      0.608687  
      65A      0.621389    66A      0.690969    67A      0.697376  
      68A      0.715570    69A      0.732684    70A      0.745436  
      71A      0.760803    72A      0.766093    73A      0.776656  
      74A      0.805404    75A      0.808284    76A      0.831376  
      77A      0.861073    78A      0.906377    79A      0.917335  
      80A      0.949613    81A      0.956687    82A      0.969375  
      83A      0.983592    84A      0.995804    85A      1.012099  
      86A      1.021430    87A      1.024132    88A      1.029843  
      89A      1.036795    90A      1.048615    91A      1.054402  
      92A      1.061151    93A      1.064573    94A      1.071130  
      95A      1.085904    96A      1.117020    97A      1.137456  
      98A      1.144483    99A      1.146604   100A      1.164975  
     101A      1.170826   102A      1.198291   103A      1.198948  
     104A      1.199327   105A      1.199368   106A      1.199990  
     107A      1.220160   108A      1.231719   109A      1.259660  
     110A      1.270235   111A      1.288268   112A      1.292652  
     113A      1.308947   114A      1.333159   115A      1.351835  
     116A      1.355308   117A      1.402806   118A      1.469898  
     119A      1.475065   120A      1.568280   121A      1.596885  
     122A      1.627056   123A      1.656627   124A      1.677871  
     125A      1.695138   126A      1.756970   127A      1.777283  
     128A      1.930016   129A      1.946303   130A      1.951484  
     131A      1.970852   132A      2.070844   133A      2.099326  
     134A      2.258846   135A      2.273876   136A      2.351799  
     137A      2.398565   138A      2.403212   139A      2.417251  
     140A      2.421425   141A      2.443481   142A      2.449344  
     143A      2.508326   144A      2.528290   145A      2.553243  
     146A      2.556481   147A      2.559432   148A      2.561323  
     149A      2.567740   150A      2.568698   151A      2.573919  
     152A      2.574366   153A      2.574589   154A      2.574598  
     155A      2.575182   156A      2.576219   157A      2.578410  
     158A      2.606524   159A      2.626300   160A      2.649037  
     161A      2.655956   162A      2.687390   163A      2.780401  
     164A      2.785021   165A      2.792090   166A      2.801840  
     167A      2.856713   168A      2.875212   169A      2.925474  
     170A      2.932868   171A      2.942237   172A      2.945238  
     173A      2.976262   174A      3.036083   175A      3.763876  
     176A      3.766013   177A      3.841208   178A      3.864310  
     179A      3.936302   180A      4.167393   181A      4.224618  
     182A      4.227534   183A      4.252054   184A      4.269195  
     185A      4.342819   186A      4.350500   187A      4.366811  
     188A      4.369152   189A      4.380289   190A      4.414112  
     191A      4.480102   192A      4.481780   193A      4.567362  
     194A      4.612288   195A      4.661673   196A      4.725041  
     197A      4.758319   198A      4.840655   199A      4.854110  
     200A      4.930376   201A      4.944309   202A      5.220707  
     203A      5.228682   204A      5.280072   205A      5.319578  
     206A      5.319802   207A      5.345295   208A      5.418218  
     209A      5.488898   210A      5.602643   211A      5.643451  
     212A      5.716221   213A      5.728985   214A      6.364433  
     215A      6.369109   216A      6.601495   217A      6.608144  
     218A      6.882381   219A      6.888628   220A      7.032476  
     221A      7.087071   222A      7.255997   223A      7.281015  
     224A      7.307273   225A      7.336665   226A      7.356885  
     227A      7.408653   228A      7.409309   229A      7.433243  
     230A      7.450210   231A      7.487448   232A      7.505331  
     233A      7.535850   234A      7.611238   235A      7.619899  
     236A      7.930724   237A      7.957261   238A      8.042900  
     239A      8.055316   240A      8.874613   241A      8.892715  
     242A     15.659332   243A     15.885874  

    Final Occupation by Irrep:
              A 
    DOCC [    28 ]
    NA   [    28 ]
    NB   [    28 ]

  @DF-RHF Final Energy: -2724.66153274068847

   => Energetics <=

    Nuclear Repulsion Energy =             99.8530917362890023
    One-Electron Energy =               -4003.9499914696739324
    Two-Electron Energy =                1179.4353669926963448
    Total Energy =                      -2724.6615327406884717

Computation Completed


Properties will be evaluated at   0.000000,   0.000000,   0.000000 [a0]

Properties computed using the SCF density matrix


 Multipole Moments:

 ------------------------------------------------------------------------------------
     Multipole            Electronic (a.u.)      Nuclear  (a.u.)        Total (a.u.)
 ------------------------------------------------------------------------------------

 L = 1.  Multiply by 2.5417464519 to convert [e a0] to [Debye]
 Dipole X            :       -386.6408983          376.8887548           -9.7521435
 Dipole Y            :          0.0000000            0.0000000            0.0000000
 Dipole Z            :          0.0000000            0.0000000            0.0000000
 Magnitude           :                                                    9.7521435

 ------------------------------------------------------------------------------------

*** tstop() called on moses-razer at Sat Dec 30 17:56:30 2023
Module time:
	user time   =      16.13 seconds =       0.27 minutes
	system time =       1.66 seconds =       0.03 minutes
	total time  =          4 seconds =       0.07 minutes
Total time:
	user time   =      16.13 seconds =       0.27 minutes
	system time =       1.66 seconds =       0.03 minutes
	total time  =          4 seconds =       0.07 minutes

  //>>>>>>>>>>>>>>>>>>>>>>>>>>>>>>>>>>>//
  //            Monomer A HF           //
  //<<<<<<<<<<<<<<<<<<<<<<<<<<<<<<<<<<<//

   => Libint2 <=

    Primary   basis highest AM E, G, H:  5, 4, 3
    Auxiliary basis highest AM E, G, H:  6, 5, 4
    Onebody   basis highest AM E, G, H:  6, 5, 4
    Solid Harmonics ordering:            gaussian

*** tstart() called on moses-razer
*** at Sat Dec 30 17:56:30 2023

   => Loading Basis Set <=

    Name: AUG-CC-PVTZ
    Role: ORBITAL
    Keyword: BASIS
    atoms 1        entry BR         line  4564 file /home/kchung25/anaconda3/envs/p415env/share/psi4/basis/aug-cc-pvtz.gbs 
    atoms 2, 5     entry O          line   331 file /home/kchung25/anaconda3/envs/p415env/share/psi4/basis/aug-cc-pvtz.gbs 
    atoms 3-4, 6-7 entry H          line    40 file /home/kchung25/anaconda3/envs/p415env/share/psi4/basis/aug-cc-pvtz.gbs 


         ---------------------------------------------------------
                                   SCF
               by Justin Turney, Rob Parrish, Andy Simmonett
                          and Daniel G. A. Smith
                              RHF Reference
                        6 Threads,  57220 MiB Core
         ---------------------------------------------------------

  ==> Geometry <==

    Molecular point group: c1
    Full point group: C2

    Geometry (in Angstrom), charge = -1, multiplicity = 1:

       Center              X                  Y                   Z               Mass       
    ------------   -----------------  -----------------  -----------------  -----------------
         BR           5.665650000000     0.000000000000     0.000000000000    78.918337600000
      Gh(O)           0.000000000000    -0.112811000000     1.567716000000    15.994914619570
      Gh(H)          -0.349529000000     0.578740000000     1.000386000000     1.007825032230
      Gh(H)           0.921124000000    -0.169041000000     1.237825000000     1.007825032230
      Gh(O)           0.000000000000     0.112811000000    -1.567716000000    15.994914619570
      Gh(H)          -0.349529000000    -0.578740000000    -1.000386000000     1.007825032230
      Gh(H)           0.921124000000     0.169041000000    -1.237825000000     1.007825032230

  Running in c1 symmetry.

  Rotational constants: A =      0.19863  B =      0.00665  C =      0.00644 [cm^-1]
  Rotational constants: A =   5954.88914  B =    199.27790  C =    192.95005 [MHz]
  Nuclear repulsion =    0.000000000000000

  Charge       = -1
  Multiplicity = 1
  Electrons    = 36
  Nalpha       = 18
  Nbeta        = 18

  ==> Algorithm <==

  SCF Algorithm Type is DF.
  DIIS enabled.
  MOM disabled.
  Fractional occupation disabled.
  Guess Type is SAD.
  Energy threshold   = 1.00e-08
  Density threshold  = 1.00e-08
  Integral threshold = 1.00e-12

  ==> Primary Basis <==

  Basis Set: AUG-CC-PVTZ
    Blend: AUG-CC-PVTZ
    Number of shells: 83
    Number of basis functions: 243
    Number of Cartesian functions: 279
    Spherical Harmonics?: true
    Max angular momentum: 3

   => Loading Basis Set <=

    Name: (AUG-CC-PVTZ AUX)
    Role: JKFIT
    Keyword: DF_BASIS_SCF
    atoms 1        entry BR         line  1492 file /home/kchung25/anaconda3/envs/p415env/share/psi4/basis/aug-cc-pvtz-jkfit.gbs 
    atoms 2, 5     entry O          line   286 file /home/kchung25/anaconda3/envs/p415env/share/psi4/basis/aug-cc-pvtz-jkfit.gbs 
    atoms 3-4, 6-7 entry H          line    70 file /home/kchung25/anaconda3/envs/p415env/share/psi4/basis/aug-cc-pvtz-jkfit.gbs 

  ==> Integral Setup <==

  ==> DiskDFJK: Density-Fitted J/K Matrices <==

    J tasked:                  Yes
    K tasked:                  Yes
    wK tasked:                  No
    OpenMP threads:              6
    Integrals threads:           6
    Memory [MiB]:            42915
    Algorithm:                Core
    Integral Cache:           LOAD
    Schwarz Cutoff:          1E-12
    Fitting Condition:       1E-10

   => Auxiliary Basis Set <=

  Basis Set: (AUG-CC-PVTZ AUX)
    Blend: AUG-CC-PVTZ-JKFIT
    Number of shells: 174
    Number of basis functions: 640
    Number of Cartesian functions: 811
    Spherical Harmonics?: true
    Max angular momentum: 4

  Minimum eigenvalue in the overlap matrix is 2.8614046353E-04.
  Reciprocal condition number of the overlap matrix is 2.9156967164E-05.
    Using symmetric orthogonalization.

  ==> Pre-Iterations <==

  SCF Guess: Superposition of Atomic Densities via on-the-fly atomic UHF (no occupation information).

   -------------------------
    Irrep   Nso     Nmo    
   -------------------------
     A        243     243 
   -------------------------
    Total     243     243
   -------------------------

  ==> Iterations <==

                           Total Energy        Delta E     RMS |[F,P]|

   @DF-RHF iter SAD: -2570.41423518553029   -2.57041e+03   0.00000e+00 
   @DF-RHF iter   1: -2572.25591930518885   -1.84168e+00   4.30799e-03 DIIS/ADIIS
   @DF-RHF iter   2: -2572.46480077891192   -2.08881e-01   2.38917e-03 DIIS/ADIIS
   @DF-RHF iter   3: -2572.53364218379966   -6.88414e-02   3.11648e-05 DIIS
   @DF-RHF iter   4: -2572.53366767767011   -2.54939e-05   4.36397e-06 DIIS
   @DF-RHF iter   5: -2572.53366869877709   -1.02111e-06   1.20598e-06 DIIS
   @DF-RHF iter   6: -2572.53366877031840   -7.15413e-08   2.18848e-07 DIIS
   @DF-RHF iter   7: -2572.53366877927965   -8.96125e-09   1.86544e-08 DIIS
   @DF-RHF iter   8: -2572.53366877934877   -6.91216e-11   5.82643e-09 DIIS
  Energy and wave function converged.


  ==> Post-Iterations <==

    Orbital Energies [Eh]
    ---------------------

    Doubly Occupied:                                                      

       1A   -489.720365     2A    -64.860454     3A    -58.214923  
       4A    -58.214923     5A    -58.214922     6A     -9.532853  
       7A     -7.140194     8A     -7.140194     9A     -7.140193  
      10A     -2.881861    11A     -2.881861    12A     -2.881860  
      13A     -2.881859    14A     -2.881856    15A     -0.686000  
      16A     -0.139337    17A     -0.139337    18A     -0.139337  

    Virtual:                                                              

      19A      0.100782    20A      0.122672    21A      0.139838  
      22A      0.151606    23A      0.204628    24A      0.216620  
      25A      0.224879    26A      0.227558    27A      0.246491  
      28A      0.249482    29A      0.253278    30A      0.263293  
      31A      0.267744    32A      0.275819    33A      0.299128  
      34A      0.309762    35A      0.351819    36A      0.374172  
      37A      0.375566    38A      0.383682    39A      0.406428  
      40A      0.415109    41A      0.425222    42A      0.444864  
      43A      0.445942    44A      0.467057    45A      0.479428  
      46A      0.486526    47A      0.492774    48A      0.501044  
      49A      0.501173    50A      0.507684    51A      0.531993  
      52A      0.551395    53A      0.552794    54A      0.580846  
      55A      0.584490    56A      0.730342    57A      0.743413  
      58A      0.748156    59A      0.766129    60A      0.776119  
      61A      0.793376    62A      0.806747    63A      0.822024  
      64A      0.856788    65A      0.866373    66A      0.877774  
      67A      0.893609    68A      0.896005    69A      0.915293  
      70A      0.918017    71A      0.941966    72A      0.944805  
      73A      0.962622    74A      0.965691    75A      1.005499  
      76A      1.022825    77A      1.023117    78A      1.034561  
      79A      1.035778    80A      1.041850    81A      1.053193  
      82A      1.067913    83A      1.075844    84A      1.091048  
      85A      1.108637    86A      1.108836    87A      1.132948  
      88A      1.135205    89A      1.163613    90A      1.166755  
      91A      1.209736    92A      1.209988    93A      1.210050  
      94A      1.210711    95A      1.212931    96A      1.212999  
      97A      1.224334    98A      1.240343    99A      1.251635  
     100A      1.285145   101A      1.321669   102A      1.339493  
     103A      1.344054   104A      1.379147   105A      1.405474  
     106A      1.420635   107A      1.546385   108A      1.563095  
     109A      1.583577   110A      1.585985   111A      1.627693  
     112A      1.631261   113A      1.653379   114A      1.786515  
     115A      1.839395   116A      1.848524   117A      1.873038  
     118A      1.880387   119A      1.908336   120A      1.953162  
     121A      1.967112   122A      1.972204   123A      2.013518  
     124A      2.189255   125A      2.196287   126A      2.410202  
     127A      2.416920   128A      2.428890   129A      2.484768  
     130A      2.526272   131A      2.542205   132A      2.567426  
     133A      2.567871   134A      2.571543   135A      2.578247  
     136A      2.583905   137A      2.585764   138A      2.585769  
     139A      2.586239   140A      2.586830   141A      2.587523  
     142A      2.594222   143A      2.602043   144A      2.623021  
     145A      2.625037   146A      2.643017   147A      2.653146  
     148A      2.659997   149A      2.682763   150A      2.730382  
     151A      2.754740   152A      2.793683   153A      2.811713  
     154A      2.836285   155A      2.964732   156A      2.967738  
     157A      3.009542   158A      3.022494   159A      3.243441  
     160A      3.258804   161A      3.281433   162A      3.283981  
     163A      3.333120   164A      3.339841   165A      3.389493  
     166A      3.459518   167A      3.468378   168A      3.479127  
     169A      3.658881   170A      3.692085   171A      3.776708  
     172A      3.777054   173A      3.857015   174A      4.490812  
     175A      4.514025   176A      4.522101   177A      4.575364  
     178A      4.598401   179A      4.642268   180A      4.665733  
     181A      4.692598   182A      4.767283   183A      4.801212  
     184A      4.815493   185A      4.819636   186A      4.899141  
     187A      4.969888   188A      4.991098   189A      5.111835  
     190A      5.207401   191A      5.295824   192A      5.326326  
     193A      5.354993   194A      5.640955   195A      5.668492  
     196A      5.685737   197A      5.727229   198A      5.752694  
     199A      5.775311   200A      5.968350   201A      6.016228  
     202A      6.204214   203A      6.236711   204A      6.471714  
     205A      6.495832   206A      6.646609   207A      6.666415  
     208A      7.117220   209A      7.119510   210A      7.821165  
     211A      7.838053   212A      7.961136   213A      8.008607  
     214A      8.180918   215A      8.185948   216A      8.194333  
     217A      8.222053   218A      8.381402   219A      8.396439  
     220A      8.742545   221A      8.767728   222A      8.921373  
     223A      8.921616   224A      9.742227   225A      9.807211  
     226A      9.953510   227A     10.014379   228A     10.081389  
     229A     10.109628   230A     10.326589   231A     10.350150  
     232A     11.285275   233A     11.286200   234A     11.771587  
     235A     11.796670   236A     12.098438   237A     12.116975  
     238A     13.628497   239A     13.661245   240A     13.888025  
     241A     13.895837   242A     64.286824   243A     64.714527  

    Final Occupation by Irrep:
              A 
    DOCC [    18 ]
    NA   [    18 ]
    NB   [    18 ]

  @DF-RHF Final Energy: -2572.53366877934877

   => Energetics <=

    Nuclear Repulsion Energy =              0.0000000000000000
    One-Electron Energy =               -3593.6826749485162509
    Two-Electron Energy =                1021.1490061691677056
    Total Energy =                      -2572.5336687793487727

Computation Completed


Properties will be evaluated at   0.000000,   0.000000,   0.000000 [a0]

Properties computed using the SCF density matrix


 Multipole Moments:

 ------------------------------------------------------------------------------------
     Multipole            Electronic (a.u.)      Nuclear  (a.u.)        Total (a.u.)
 ------------------------------------------------------------------------------------

 L = 1.  Multiply by 2.5417464519 to convert [e a0] to [Debye]
 Dipole X            :       -385.4348253          374.7284388          -10.7063865
 Dipole Y            :         -0.0000000            0.0000000           -0.0000000
 Dipole Z            :         -0.0000000            0.0000000           -0.0000000
 Magnitude           :                                                   10.7063865

 ------------------------------------------------------------------------------------

*** tstop() called on moses-razer at Sat Dec 30 17:56:34 2023
Module time:
	user time   =      10.53 seconds =       0.18 minutes
	system time =       1.02 seconds =       0.02 minutes
	total time  =          4 seconds =       0.07 minutes
Total time:
	user time   =      26.69 seconds =       0.44 minutes
	system time =       2.68 seconds =       0.04 minutes
	total time  =          8 seconds =       0.13 minutes

  //>>>>>>>>>>>>>>>>>>>>>>>>>>>>>>>>>>>//
  //            Monomer B HF           //
  //<<<<<<<<<<<<<<<<<<<<<<<<<<<<<<<<<<<//

   => Libint2 <=

    Primary   basis highest AM E, G, H:  5, 4, 3
    Auxiliary basis highest AM E, G, H:  6, 5, 4
    Onebody   basis highest AM E, G, H:  6, 5, 4
    Solid Harmonics ordering:            gaussian

*** tstart() called on moses-razer
*** at Sat Dec 30 17:56:34 2023

   => Loading Basis Set <=

    Name: AUG-CC-PVTZ
    Role: ORBITAL
    Keyword: BASIS
    atoms 1        entry BR         line  4564 file /home/kchung25/anaconda3/envs/p415env/share/psi4/basis/aug-cc-pvtz.gbs 
    atoms 2, 5     entry O          line   331 file /home/kchung25/anaconda3/envs/p415env/share/psi4/basis/aug-cc-pvtz.gbs 
    atoms 3-4, 6-7 entry H          line    40 file /home/kchung25/anaconda3/envs/p415env/share/psi4/basis/aug-cc-pvtz.gbs 


         ---------------------------------------------------------
                                   SCF
               by Justin Turney, Rob Parrish, Andy Simmonett
                          and Daniel G. A. Smith
                              RHF Reference
                        6 Threads,  57220 MiB Core
         ---------------------------------------------------------

  ==> Geometry <==

    Molecular point group: c1
    Full point group: C2

    Geometry (in Angstrom), charge = 0, multiplicity = 1:

       Center              X                  Y                   Z               Mass       
    ------------   -----------------  -----------------  -----------------  -----------------
      Gh(BR)          5.665650000000     0.000000000000     0.000000000000    78.918337600000
         O            0.000000000000    -0.112811000000     1.567716000000    15.994914619570
         H           -0.349529000000     0.578740000000     1.000386000000     1.007825032230
         H            0.921124000000    -0.169041000000     1.237825000000     1.007825032230
         O            0.000000000000     0.112811000000    -1.567716000000    15.994914619570
         H           -0.349529000000    -0.578740000000    -1.000386000000     1.007825032230
         H            0.921124000000     0.169041000000    -1.237825000000     1.007825032230

  Running in c1 symmetry.

  Rotational constants: A =      0.19863  B =      0.00665  C =      0.00644 [cm^-1]
  Rotational constants: A =   5954.88914  B =    199.27790  C =    192.95005 [MHz]
  Nuclear repulsion =   35.854509788005693

  Charge       = 0
  Multiplicity = 1
  Electrons    = 20
  Nalpha       = 10
  Nbeta        = 10

  ==> Algorithm <==

  SCF Algorithm Type is DF.
  DIIS enabled.
  MOM disabled.
  Fractional occupation disabled.
  Guess Type is SAD.
  Energy threshold   = 1.00e-08
  Density threshold  = 1.00e-08
  Integral threshold = 1.00e-12

  ==> Primary Basis <==

  Basis Set: AUG-CC-PVTZ
    Blend: AUG-CC-PVTZ
    Number of shells: 83
    Number of basis functions: 243
    Number of Cartesian functions: 279
    Spherical Harmonics?: true
    Max angular momentum: 3

   => Loading Basis Set <=

    Name: (AUG-CC-PVTZ AUX)
    Role: JKFIT
    Keyword: DF_BASIS_SCF
    atoms 1        entry BR         line  1492 file /home/kchung25/anaconda3/envs/p415env/share/psi4/basis/aug-cc-pvtz-jkfit.gbs 
    atoms 2, 5     entry O          line   286 file /home/kchung25/anaconda3/envs/p415env/share/psi4/basis/aug-cc-pvtz-jkfit.gbs 
    atoms 3-4, 6-7 entry H          line    70 file /home/kchung25/anaconda3/envs/p415env/share/psi4/basis/aug-cc-pvtz-jkfit.gbs 

  ==> Integral Setup <==

  ==> DiskDFJK: Density-Fitted J/K Matrices <==

    J tasked:                  Yes
    K tasked:                  Yes
    wK tasked:                  No
    OpenMP threads:              6
    Integrals threads:           6
    Memory [MiB]:            42915
    Algorithm:                Core
    Integral Cache:           LOAD
    Schwarz Cutoff:          1E-12
    Fitting Condition:       1E-10

   => Auxiliary Basis Set <=

  Basis Set: (AUG-CC-PVTZ AUX)
    Blend: AUG-CC-PVTZ-JKFIT
    Number of shells: 174
    Number of basis functions: 640
    Number of Cartesian functions: 811
    Spherical Harmonics?: true
    Max angular momentum: 4

  Minimum eigenvalue in the overlap matrix is 2.8614046353E-04.
  Reciprocal condition number of the overlap matrix is 2.9156967164E-05.
    Using symmetric orthogonalization.

  ==> Pre-Iterations <==

  SCF Guess: Superposition of Atomic Densities via on-the-fly atomic UHF (no occupation information).

   -------------------------
    Irrep   Nso     Nmo    
   -------------------------
     A        243     243 
   -------------------------
    Total     243     243
   -------------------------

  ==> Iterations <==

                           Total Energy        Delta E     RMS |[F,P]|

   @DF-RHF iter SAD:  -151.00647678202310   -1.51006e+02   0.00000e+00 
   @DF-RHF iter   1:  -151.95254528170955   -9.46068e-01   2.67306e-03 DIIS/ADIIS
   @DF-RHF iter   2:  -152.05534603424888   -1.02801e-01   1.81853e-03 DIIS/ADIIS
   @DF-RHF iter   3:  -152.11589739556712   -6.05514e-02   1.31240e-04 DIIS/ADIIS
   @DF-RHF iter   4:  -152.11676768444971   -8.70289e-04   3.14433e-05 DIIS
   @DF-RHF iter   5:  -152.11682350497171   -5.58205e-05   7.87743e-06 DIIS
   @DF-RHF iter   6:  -152.11682872974734   -5.22478e-06   1.70842e-06 DIIS
   @DF-RHF iter   7:  -152.11682899276053   -2.63013e-07   3.08190e-07 DIIS
   @DF-RHF iter   8:  -152.11682900016066   -7.40013e-09   6.02421e-08 DIIS
   @DF-RHF iter   9:  -152.11682900043050   -2.69836e-10   1.75012e-08 DIIS
   @DF-RHF iter  10:  -152.11682900045713   -2.66311e-11   4.28408e-09 DIIS
  Energy and wave function converged.


  ==> Post-Iterations <==

    Orbital Energies [Eh]
    ---------------------

    Doubly Occupied:                                                      

       1A    -20.581864     2A    -20.581860     3A     -1.365501  
       4A     -1.358301     5A     -0.717905     6A     -0.711737  
       7A     -0.611038     8A     -0.594483     9A     -0.527601  
      10A     -0.515638  

    Virtual:                                                              

      11A      0.019031    12A      0.042965    13A      0.050201  
      14A      0.051423    15A      0.066540    16A      0.075066  
      17A      0.085894    18A      0.097822    19A      0.126865  
      20A      0.150312    21A      0.166804    22A      0.174821  
      23A      0.181606    24A      0.189281    25A      0.197974  
      26A      0.222606    27A      0.224003    28A      0.230449  
      29A      0.256193    30A      0.258769    31A      0.289724  
      32A      0.293419    33A      0.299941    34A      0.305308  
      35A      0.306089    36A      0.309740    37A      0.319623  
      38A      0.322142    39A      0.328402    40A      0.345967  
      41A      0.354544    42A      0.372953    43A      0.375726  
      44A      0.388605    45A      0.418668    46A      0.419911  
      47A      0.469920    48A      0.471648    49A      0.485836  
      50A      0.507061    51A      0.511132    52A      0.601175  
      53A      0.602850    54A      0.623424    55A      0.668796  
      56A      0.683490    57A      0.715996    58A      0.717122  
      59A      0.735625    60A      0.768892    61A      0.821206  
      62A      0.824640    63A      0.864873    64A      0.870209  
      65A      0.885126    66A      0.906294    67A      0.922475  
      68A      0.930888    69A      0.953204    70A      0.955337  
      71A      0.969468    72A      0.977218    73A      0.981160  
      74A      0.985241    75A      0.989950    76A      1.020889  
      77A      1.021849    78A      1.036238    79A      1.045087  
      80A      1.047945    81A      1.049457    82A      1.049609  
      83A      1.049926    84A      1.050737    85A      1.053670  
      86A      1.056744    87A      1.078960    88A      1.097239  
      89A      1.105394    90A      1.105980    91A      1.108182  
      92A      1.112702    93A      1.130903    94A      1.152642  
      95A      1.160984    96A      1.177689    97A      1.189390  
      98A      1.207391    99A      1.214275   100A      1.252627  
     101A      1.260896   102A      1.264898   103A      1.306527  
     104A      1.374320   105A      1.378945   106A      1.473189  
     107A      1.497953   108A      1.529694   109A      1.566607  
     110A      1.581339   111A      1.602656   112A      1.663272  
     113A      1.683020   114A      1.837180   115A      1.853134  
     116A      1.855232   117A      1.879137   118A      1.970519  
     119A      2.002559   120A      2.167011   121A      2.178488  
     122A      2.261022   123A      2.329413   124A      2.352931  
     125A      2.357960   126A      2.416663   127A      2.438577  
     128A      2.475532   129A      2.483283   130A      2.523103  
     131A      2.528039   132A      2.544228   133A      2.592296  
     134A      2.680928   135A      2.689449   136A      2.691799  
     137A      2.708650   138A      2.763373   139A      2.782136  
     140A      2.824143   141A      2.837747   142A      2.844676  
     143A      2.849736   144A      2.853730   145A      2.857505  
     146A      2.866312   147A      2.883420   148A      2.893964  
     149A      2.942579   150A      3.114697   151A      3.114700  
     152A      3.114731   153A      3.115180   154A      3.116065  
     155A      3.129344   156A      3.132913   157A      3.281905  
     158A      3.282401   159A      3.287442   160A      3.303401  
     161A      3.330659   162A      3.672476   163A      3.672985  
     164A      3.768921   165A      3.842169   166A      4.072148  
     167A      4.127910   168A      4.131477   169A      4.157706  
     170A      4.174409   171A      4.247654   172A      4.257473  
     173A      4.272446   174A      4.276783   175A      4.285747  
     176A      4.321941   177A      4.381917   178A      4.387736  
     179A      4.471661   180A      4.516167   181A      4.564947  
     182A      4.630074   183A      4.664888   184A      4.746267  
     185A      4.759441   186A      4.835239   187A      4.849112  
     188A      5.125595   189A      5.134045   190A      5.184086  
     191A      5.224298   192A      5.225432   193A      5.250773  
     194A      5.325769   195A      5.393727   196A      5.508734  
     197A      5.550233   198A      5.622990   199A      5.635356  
     200A      6.271248   201A      6.275855   202A      6.508537  
     203A      6.515376   204A      6.789819   205A      6.796182  
     206A      6.939509   207A      6.994127   208A      7.162935  
     209A      7.187556   210A      7.214062   211A      7.243379  
     212A      7.263639   213A      7.315551   214A      7.316982  
     215A      7.341234   216A      7.357361   217A      7.394856  
     218A      7.412697   219A      7.443003   220A      7.517650  
     221A      7.526680   222A      7.837589   223A      7.864160  
     224A      7.950264   225A      7.962535   226A      8.780645  
     227A      8.798752   228A      9.189200   229A     13.439330  
     230A     13.444473   231A     13.458784   232A     15.565524  
     233A     15.791843   234A     26.124824   235A     26.125321  
     236A     26.129781   237A     26.143600   238A     26.165394  
     239A     45.194259   240A    138.385215   241A    138.392915  
     242A    138.414073   243A    707.885194  

    Final Occupation by Irrep:
              A 
    DOCC [    10 ]
    NA   [    10 ]
    NB   [    10 ]

  @DF-RHF Final Energy:  -152.11682900045713

   => Energetics <=

    Nuclear Repulsion Energy =             35.8545097880056929
    One-Electron Energy =                -280.8108203208591931
    Two-Electron Energy =                  92.8394815323963769
    Total Energy =                       -152.1168290004571304

Computation Completed


Properties will be evaluated at   0.000000,   0.000000,   0.000000 [a0]

Properties computed using the SCF density matrix


 Multipole Moments:

 ------------------------------------------------------------------------------------
     Multipole            Electronic (a.u.)      Nuclear  (a.u.)        Total (a.u.)
 ------------------------------------------------------------------------------------

 L = 1.  Multiply by 2.5417464519 to convert [e a0] to [Debye]
 Dipole X            :         -1.4581935            2.1603160            0.7021225
 Dipole Y            :          0.0000000            0.0000000            0.0000000
 Dipole Z            :          0.0000000            0.0000000            0.0000000
 Magnitude           :                                                    0.7021225

 ------------------------------------------------------------------------------------

*** tstop() called on moses-razer at Sat Dec 30 17:56:36 2023
Module time:
	user time   =       8.83 seconds =       0.15 minutes
	system time =       0.49 seconds =       0.01 minutes
	total time  =          2 seconds =       0.03 minutes
Total time:
	user time   =      35.56 seconds =       0.59 minutes
	system time =       3.17 seconds =       0.05 minutes
	total time  =         10 seconds =       0.17 minutes
  Constructing Basis Sets for SAPT...

   => Loading Basis Set <=

    Name: (AUG-CC-PVTZ AUX)
    Role: RIFIT
    Keyword: DF_BASIS_SAPT
    atoms 1        entry BR         line  1248 file /home/kchung25/anaconda3/envs/p415env/share/psi4/basis/aug-cc-pvtz-ri.gbs 
    atoms 2, 5     entry O          line   264 file /home/kchung25/anaconda3/envs/p415env/share/psi4/basis/aug-cc-pvtz-ri.gbs 
    atoms 3-4, 6-7 entry H          line    30 file /home/kchung25/anaconda3/envs/p415env/share/psi4/basis/aug-cc-pvtz-ri.gbs 

   => Loading Basis Set <=

    Name: (AUG-CC-PVTZ AUX)
    Role: JKFIT
    Keyword: DF_BASIS_ELST
    atoms 1        entry BR         line  1492 file /home/kchung25/anaconda3/envs/p415env/share/psi4/basis/aug-cc-pvtz-jkfit.gbs 
    atoms 2, 5     entry O          line   286 file /home/kchung25/anaconda3/envs/p415env/share/psi4/basis/aug-cc-pvtz-jkfit.gbs 
    atoms 3-4, 6-7 entry H          line    70 file /home/kchung25/anaconda3/envs/p415env/share/psi4/basis/aug-cc-pvtz-jkfit.gbs 


  //>>>>>>>>>>>>>>>>>>>>>>>>>>>>>>>>>>>//
  //               SAPT2+              //
  //<<<<<<<<<<<<<<<<<<<<<<<<<<<<<<<<<<<//


*** tstart() called on moses-razer
*** at Sat Dec 30 17:56:36 2023

        SAPT2+  
    Ed Hohenstein
     6 June 2009

      Orbital Information
  --------------------------
    NSO        =       243
    NMO        =       243
    NRI        =       587
    NOCC A     =        18
    NOCC B     =        10
    FOCC A     =         0
    FOCC B     =         0
    NVIR A     =       225
    NVIR B     =       233

    Estimated memory usage: 677.1 MB

    Natural Orbital Cutoff:   1.000E-06
    Disp(T3) Truncation:            Yes
    CCD (vv|vv) Truncation:         Yes
    MBPT T2 Truncation:             Yes

    Monomer A: 180 virtual orbitals dropped
    Monomer B: 79 virtual orbitals dropped

    Elst10,r            =    -0.010226940760 [Eh]
    Exch10 (S^2)        =     0.000048748206 [Eh]
    Exch10              =     0.000048751151 [Eh]
    Ind20,r (A<-B)      =    -0.000168257794 [Eh]
    Ind20,r (B<-A)      =    -0.000707333639 [Eh]
    Ind20,r             =    -0.000875591433 [Eh]
    Exch-Ind20,r (A<-B) =     0.000038938888 [Eh]
    Exch-Ind20,r (B<-A) =     0.000001268169 [Eh]
    Exch-Ind20,r        =     0.000040207057 [Eh]
    Disp20              =    -0.000263642849 [Eh]
    Disp20 (NO)         =    -0.000239194742 [Eh]
    Exch-Disp20         =     0.000008259121 [Eh]
    Elst12,r            =     0.000512404797 [Eh]
    Exch11              =     0.000002408154 [Eh]
    Exch12              =     0.000010669784 [Eh]
    Ind22               =    -0.000079662758 [Eh]
    Disp21              =     0.000028178384 [Eh]
    Disp22 (SDQ)        =    -0.000004483678 [Eh]

    (i =   1 of  10)          2 seconds
    (i =   2 of  10)          3 seconds
    (i =   3 of  10)          4 seconds
    (i =   4 of  10)          5 seconds
    (i =   5 of  10)          7 seconds
    (i =   6 of  10)          8 seconds
    (i =   7 of  10)          9 seconds
    (i =   8 of  10)         10 seconds
    (i =   9 of  10)         12 seconds
    (i =  10 of  10)         13 seconds

    Disp220 (T)         =    -0.000021189075 [Eh]

    (i =   1 of  18)          2 seconds
    (i =   2 of  18)          4 seconds
    (i =   3 of  18)          6 seconds
    (i =   4 of  18)          8 seconds
    (i =   5 of  18)         10 seconds
    (i =   6 of  18)         12 seconds
    (i =   7 of  18)         13 seconds
    (i =   8 of  18)         15 seconds
    (i =   9 of  18)         17 seconds
    (i =  10 of  18)         19 seconds
    (i =  11 of  18)         21 seconds
    (i =  12 of  18)         23 seconds
    (i =  13 of  18)         25 seconds
    (i =  14 of  18)         27 seconds
    (i =  15 of  18)         29 seconds
    (i =  16 of  18)         30 seconds
    (i =  17 of  18)         32 seconds
    (i =  18 of  18)         34 seconds

    Disp202 (T)         =    -0.000029421595 [Eh]

    Disp22 (T)          =    -0.000050610671 [Eh]

    Est. Disp220 (T)    =    -0.000023354812 [Eh]
    Est. Disp202 (T)    =    -0.000032428778 [Eh]

    Est. Disp22 (T)     =    -0.000055783590 [Eh]

    SAPT Results 
  --------------------------------------------------------------------------------------------------------
    Electrostatics                 -9.71453596 [mEh]      -6.09596335 [kcal/mol]     -25.50551066 [kJ/mol]
      Elst10,r                    -10.22694076 [mEh]      -6.41750221 [kcal/mol]     -26.85082927 [kJ/mol]
      Elst12,r                      0.51240480 [mEh]       0.32153886 [kcal/mol]       1.34531861 [kJ/mol]

    Exchange                        0.06182909 [mEh]       0.03879834 [kcal/mol]       0.16233225 [kJ/mol]
      Exch10                        0.04875115 [mEh]       0.03059181 [kcal/mol]       0.12799613 [kJ/mol]
      Exch10(S^2)                   0.04874821 [mEh]       0.03058996 [kcal/mol]       0.12798840 [kJ/mol]
      Exch11(S^2)                   0.00240815 [mEh]       0.00151114 [kcal/mol]       0.00632261 [kJ/mol]
      Exch12(S^2)                   0.01066978 [mEh]       0.00669539 [kcal/mol]       0.02801351 [kJ/mol]

    Induction                      -0.93277593 [mEh]      -0.58532573 [kcal/mol]      -2.44900286 [kJ/mol]
      Ind20,r                      -0.87559143 [mEh]      -0.54944192 [kcal/mol]      -2.29886499 [kJ/mol]
      Ind22                        -0.07966276 [mEh]      -0.04998914 [kcal/mol]      -0.20915454 [kJ/mol]
      Exch-Ind20,r                  0.04020706 [mEh]       0.02523031 [kcal/mol]       0.10556361 [kJ/mol]
      Exch-Ind22                    0.00365810 [mEh]       0.00229550 [kcal/mol]       0.00960435 [kJ/mol]
      delta HF,r (2)               -0.02138690 [mEh]      -0.01342048 [kcal/mol]      -0.05615129 [kJ/mol]

    Dispersion                     -0.28747261 [mEh]      -0.18039179 [kcal/mol]      -0.75475924 [kJ/mol]
      Disp20                       -0.26364285 [mEh]      -0.16543839 [kcal/mol]      -0.69219420 [kJ/mol]
      Disp21                        0.02817838 [mEh]       0.01768220 [kcal/mol]       0.07398234 [kJ/mol]
      Disp22 (SDQ)                 -0.00448368 [mEh]      -0.00281355 [kcal/mol]      -0.01177189 [kJ/mol]
      Disp22 (T)                   -0.05061067 [mEh]      -0.03175868 [kcal/mol]      -0.13287830 [kJ/mol]
      Est. Disp22 (T)              -0.05578359 [mEh]      -0.03500473 [kcal/mol]      -0.14645980 [kJ/mol]
      Exch-Disp20                   0.00825912 [mEh]       0.00518268 [kcal/mol]       0.02168432 [kJ/mol]

  Total HF                        -11.03496088 [mEh]      -6.92454250 [kcal/mol]     -28.97228581 [kJ/mol]
  Total SAPT0                     -11.29034461 [mEh]      -7.08479820 [kcal/mol]     -29.64279569 [kJ/mol]
  Total SAPT2                     -10.84086653 [mEh]      -6.80274645 [kcal/mol]     -28.46269115 [kJ/mol]
  Total SAPT2+                    -10.87295541 [mEh]      -6.82288253 [kcal/mol]     -28.54694050 [kJ/mol]

  Special recipe for scaled SAPT0 (see Manual):
    Electrostatics sSAPT0         -10.22694076 [mEh]      -6.41750221 [kcal/mol]     -26.85082927 [kJ/mol]
    Exchange sSAPT0                 0.04875115 [mEh]       0.03059181 [kcal/mol]       0.12799613 [kJ/mol]
    Induction sSAPT0               -0.85676399 [mEh]      -0.53762752 [kcal/mol]      -2.24943354 [kJ/mol]
    Dispersion sSAPT0              -0.25538223 [mEh]      -0.16025477 [kcal/mol]      -0.67050595 [kJ/mol]
  Total sSAPT0                    -11.29033583 [mEh]      -7.08479269 [kcal/mol]     -29.64277263 [kJ/mol]
  --------------------------------------------------------------------------------------------------------

*** tstop() called on moses-razer at Sat Dec 30 17:58:01 2023
Module time:
	user time   =     476.16 seconds =       7.94 minutes
	system time =      12.65 seconds =       0.21 minutes
	total time  =         85 seconds =       1.42 minutes
Total time:
	user time   =     512.12 seconds =       8.54 minutes
	system time =      15.82 seconds =       0.26 minutes
	total time  =         95 seconds =       1.58 minutes

    Psi4 stopped on: Saturday, 30 December 2023 05:58PM
    Psi4 wall time for execution: 0:01:35.93

*** Psi4 exiting successfully. Buy a developer a beer!
