
    -----------------------------------------------------------------------
          Psi4: An Open-Source Ab Initio Electronic Structure Package
                               Psi4 1.9 release

                         Git: Rev {} zzzzzzz 


    D. G. A. Smith, L. A. Burns, A. C. Simmonett, R. M. Parrish,
    M. C. Schieber, R. Galvelis, P. Kraus, H. Kruse, R. Di Remigio,
    A. Alenaizan, A. M. James, S. Lehtola, J. P. Misiewicz, M. Scheurer,
    R. A. Shaw, J. B. Schriber, Y. Xie, Z. L. Glick, D. A. Sirianni,
    J. S. O'Brien, J. M. Waldrop, A. Kumar, E. G. Hohenstein,
    B. P. Pritchard, B. R. Brooks, H. F. Schaefer III, A. Yu. Sokolov,
    K. Patkowski, A. E. DePrince III, U. Bozkaya, R. A. King,
    F. A. Evangelista, J. M. Turney, T. D. Crawford, C. D. Sherrill,
    J. Chem. Phys. 152(18) 184108 (2020). https://doi.org/10.1063/5.0006002

                            Additional Code Authors
    E. T. Seidl, C. L. Janssen, E. F. Valeev, M. L. Leininger,
    J. F. Gonthier, R. M. Richard, H. R. McAlexander, M. Saitow, X. Wang,
    P. Verma, M. H. Lechner, A. Jiang, S. Behnle, A. G. Heide,
    M. F. Herbst, and D. L. Poole

             Previous Authors, Complete List of Code Contributors,
                       and Citations for Specific Modules
    https://github.com/psi4/psi4/blob/master/codemeta.json
    https://github.com/psi4/psi4/graphs/contributors
    http://psicode.org/psi4manual/master/introduction.html#citing-psifour

    -----------------------------------------------------------------------


    Psi4 started on: Saturday, 30 December 2023 05:40PM

    Process ID: 217263
    Host:       moses-razer
    PSIDATADIR: /home/kchung25/anaconda3/envs/psi4_19/share/psi4
    Memory:     500.0 MiB
    Threads:    6
    
  ==> Input File <==

--------------------------------------------------------------------------
MEMORY 60 GB

molecule dimer {
-1 1
Br     2.832825     0.000000     0.000000
--
0 1
O      0.000000    -0.112811     1.567716
H     -0.349529     0.578740     1.000386
H      0.921124    -0.169041     1.237825
O      0.000000     0.112811    -1.567716
H     -0.349529    -0.578740    -1.000386
H      0.921124     0.169041    -1.237825

units ang
no_reorient
no_com
symmetry c1
}

set {
basis        aug-cc-pVTZ
scf_type     df
}

energy("sapt2+")
--------------------------------------------------------------------------

  Memory set to  55.879 GiB by Python driver.

Scratch directory: /scratch/
   => Loading Basis Set <=

    Name: AUG-CC-PVTZ
    Role: ORBITAL
    Keyword: BASIS
    atoms 1        entry BR         line  4564 file /home/kchung25/anaconda3/envs/p415env/share/psi4/basis/aug-cc-pvtz.gbs 
    atoms 2, 5     entry O          line   331 file /home/kchung25/anaconda3/envs/p415env/share/psi4/basis/aug-cc-pvtz.gbs 
    atoms 3-4, 6-7 entry H          line    40 file /home/kchung25/anaconda3/envs/p415env/share/psi4/basis/aug-cc-pvtz.gbs 

   => Loading Basis Set <=

    Name: AUG-CC-PVTZ
    Role: ORBITAL
    Keyword: BASIS
    atoms 1        entry BR         line  4564 file /home/kchung25/anaconda3/envs/p415env/share/psi4/basis/aug-cc-pvtz.gbs 
    atoms 2, 5     entry O          line   331 file /home/kchung25/anaconda3/envs/p415env/share/psi4/basis/aug-cc-pvtz.gbs 
    atoms 3-4, 6-7 entry H          line    40 file /home/kchung25/anaconda3/envs/p415env/share/psi4/basis/aug-cc-pvtz.gbs 


  //>>>>>>>>>>>>>>>>>>>>>>>>>>>>>>>>>>>//
  //              Dimer HF             //
  //<<<<<<<<<<<<<<<<<<<<<<<<<<<<<<<<<<<//

   => Libint2 <=

    Primary   basis highest AM E, G, H:  5, 4, 3
    Auxiliary basis highest AM E, G, H:  6, 5, 4
    Onebody   basis highest AM E, G, H:  6, 5, 4
    Solid Harmonics ordering:            gaussian

*** tstart() called on moses-razer
*** at Sat Dec 30 17:40:55 2023

   => Loading Basis Set <=

    Name: AUG-CC-PVTZ
    Role: ORBITAL
    Keyword: BASIS
    atoms 1        entry BR         line  4564 file /home/kchung25/anaconda3/envs/p415env/share/psi4/basis/aug-cc-pvtz.gbs 
    atoms 2, 5     entry O          line   331 file /home/kchung25/anaconda3/envs/p415env/share/psi4/basis/aug-cc-pvtz.gbs 
    atoms 3-4, 6-7 entry H          line    40 file /home/kchung25/anaconda3/envs/p415env/share/psi4/basis/aug-cc-pvtz.gbs 


         ---------------------------------------------------------
                                   SCF
               by Justin Turney, Rob Parrish, Andy Simmonett
                          and Daniel G. A. Smith
                              RHF Reference
                        6 Threads,  57220 MiB Core
         ---------------------------------------------------------

  ==> Geometry <==

    Molecular point group: c1
    Full point group: C2

    Geometry (in Angstrom), charge = -1, multiplicity = 1:

       Center              X                  Y                   Z               Mass       
    ------------   -----------------  -----------------  -----------------  -----------------
         BR           2.832825000000     0.000000000000     0.000000000000    78.918337600000
         O            0.000000000000    -0.112811000000     1.567716000000    15.994914619570
         H           -0.349529000000     0.578740000000     1.000386000000     1.007825032230
         H            0.921124000000    -0.169041000000     1.237825000000     1.007825032230
         O            0.000000000000     0.112811000000    -1.567716000000    15.994914619570
         H           -0.349529000000    -0.578740000000    -1.000386000000     1.007825032230
         H            0.921124000000     0.169041000000    -1.237825000000     1.007825032230

  Running in c1 symmetry.

  Rotational constants: A =      0.19863  B =      0.02650  C =      0.02344 [cm^-1]
  Rotational constants: A =   5954.88914  B =    794.47529  C =    702.61080 [MHz]
  Nuclear repulsion =  154.487980456233373

  Charge       = -1
  Multiplicity = 1
  Electrons    = 56
  Nalpha       = 28
  Nbeta        = 28

  ==> Algorithm <==

  SCF Algorithm Type is DF.
  DIIS enabled.
  MOM disabled.
  Fractional occupation disabled.
  Guess Type is SAD.
  Energy threshold   = 1.00e-08
  Density threshold  = 1.00e-08
  Integral threshold = 1.00e-12

  ==> Primary Basis <==

  Basis Set: AUG-CC-PVTZ
    Blend: AUG-CC-PVTZ
    Number of shells: 83
    Number of basis functions: 243
    Number of Cartesian functions: 279
    Spherical Harmonics?: true
    Max angular momentum: 3

   => Loading Basis Set <=

    Name: (AUG-CC-PVTZ AUX)
    Role: JKFIT
    Keyword: DF_BASIS_SCF
    atoms 1        entry BR         line  1492 file /home/kchung25/anaconda3/envs/p415env/share/psi4/basis/aug-cc-pvtz-jkfit.gbs 
    atoms 2, 5     entry O          line   286 file /home/kchung25/anaconda3/envs/p415env/share/psi4/basis/aug-cc-pvtz-jkfit.gbs 
    atoms 3-4, 6-7 entry H          line    70 file /home/kchung25/anaconda3/envs/p415env/share/psi4/basis/aug-cc-pvtz-jkfit.gbs 

  ==> Integral Setup <==

  ==> DiskDFJK: Density-Fitted J/K Matrices <==

    J tasked:                  Yes
    K tasked:                  Yes
    wK tasked:                  No
    OpenMP threads:              6
    Integrals threads:           6
    Memory [MiB]:            42915
    Algorithm:                Core
    Integral Cache:           SAVE
    Schwarz Cutoff:          1E-12
    Fitting Condition:       1E-10

   => Auxiliary Basis Set <=

  Basis Set: (AUG-CC-PVTZ AUX)
    Blend: AUG-CC-PVTZ-JKFIT
    Number of shells: 174
    Number of basis functions: 640
    Number of Cartesian functions: 811
    Spherical Harmonics?: true
    Max angular momentum: 4

  Minimum eigenvalue in the overlap matrix is 2.2231582314E-04.
  Reciprocal condition number of the overlap matrix is 2.0476157864E-05.
    Using symmetric orthogonalization.

  ==> Pre-Iterations <==

  SCF Guess: Superposition of Atomic Densities via on-the-fly atomic UHF (no occupation information).

   -------------------------
    Irrep   Nso     Nmo    
   -------------------------
     A        243     243 
   -------------------------
    Total     243     243
   -------------------------

  ==> Iterations <==

                           Total Energy        Delta E     RMS |[F,P]|

   @DF-RHF iter SAD: -2721.60514670298517   -2.72161e+03   0.00000e+00 
   @DF-RHF iter   1: -2724.29439273728030   -2.68925e+00   5.00514e-03 ADIIS/DIIS
   @DF-RHF iter   2: -2724.57640453515069   -2.82012e-01   2.80389e-03 ADIIS/DIIS
   @DF-RHF iter   3: -2724.67971777365301   -1.03313e-01   1.90907e-04 ADIIS/DIIS
   @DF-RHF iter   4: -2724.68077023908427   -1.05247e-03   9.62162e-05 DIIS
   @DF-RHF iter   5: -2724.68100192459860   -2.31686e-04   1.45413e-05 DIIS
   @DF-RHF iter   6: -2724.68101814655483   -1.62220e-05   3.56260e-06 DIIS
   @DF-RHF iter   7: -2724.68101929631575   -1.14976e-06   8.60735e-07 DIIS
   @DF-RHF iter   8: -2724.68101936611220   -6.97964e-08   1.64264e-07 DIIS
   @DF-RHF iter   9: -2724.68101936815583   -2.04363e-09   3.70987e-08 DIIS
   @DF-RHF iter  10: -2724.68101936824633   -9.04947e-11   9.97809e-09 DIIS
  Energy and wave function converged.


  ==> Post-Iterations <==

    Orbital Energies [Eh]
    ---------------------

    Doubly Occupied:                                                      

       1A   -489.761826     2A    -64.902263     3A    -58.256744  
       4A    -58.256729     5A    -58.256728     6A    -20.398025  
       7A    -20.398021     8A     -9.574788     9A     -7.182375  
      10A     -7.182257    11A     -7.182086    12A     -2.924003  
      13A     -2.924000    14A     -2.923783    15A     -2.923714  
      16A     -2.923673    17A     -1.187121    18A     -1.179909  
      19A     -0.738809    20A     -0.540226    21A     -0.536239  
      22A     -0.438865    23A     -0.423721    24A     -0.350310  
      25A     -0.338545    26A     -0.189300    27A     -0.186876  
      28A     -0.183425  

    Virtual:                                                              

      29A      0.140948    30A      0.153760    31A      0.164212  
      32A      0.166973    33A      0.227166    34A      0.241573  
      35A      0.252826    36A      0.278509    37A      0.286771  
      38A      0.294800    39A      0.298726    40A      0.314610  
      41A      0.331853    42A      0.338801    43A      0.341914  
      44A      0.360928    45A      0.393742    46A      0.398322  
      47A      0.419855    48A      0.436573    49A      0.474588  
      50A      0.480033    51A      0.491374    52A      0.507348  
      53A      0.521779    54A      0.535195    55A      0.557478  
      56A      0.560759    57A      0.578091    58A      0.593727  
      59A      0.609705    60A      0.617718    61A      0.624030  
      62A      0.635522    63A      0.653769    64A      0.693821  
      65A      0.697459    66A      0.749481    67A      0.752306  
      68A      0.786641    69A      0.792680    70A      0.825854  
      71A      0.842950    72A      0.861055    73A      0.868079  
      74A      0.878483    75A      0.886835    76A      0.897088  
      77A      0.939360    78A      0.974218    79A      0.986616  
      80A      0.990101    81A      1.021563    82A      1.023055  
      83A      1.029618    84A      1.049024    85A      1.056184  
      86A      1.056732    87A      1.090377    88A      1.103411  
      89A      1.118879    90A      1.133894    91A      1.136135  
      92A      1.157550    93A      1.170065    94A      1.181610  
      95A      1.205127    96A      1.215252    97A      1.231607  
      98A      1.248363    99A      1.254662   100A      1.269589  
     101A      1.292618   102A      1.330162   103A      1.357287  
     104A      1.369561   105A      1.378235   106A      1.400064  
     107A      1.435547   108A      1.441668   109A      1.468217  
     110A      1.469511   111A      1.479313   112A      1.523925  
     113A      1.528471   114A      1.567939   115A      1.579798  
     116A      1.618789   117A      1.672310   118A      1.697398  
     119A      1.697832   120A      1.717066   121A      1.730856  
     122A      1.737639   123A      1.783837   124A      1.810849  
     125A      1.824497   126A      1.871048   127A      1.931225  
     128A      2.045434   129A      2.061633   130A      2.083724  
     131A      2.101141   132A      2.223129   133A      2.231663  
     134A      2.408570   135A      2.427447   136A      2.435157  
     137A      2.444351   138A      2.505643   139A      2.532771  
     140A      2.559068   141A      2.564839   142A      2.564866  
     143A      2.584571   144A      2.591684   145A      2.599656  
     146A      2.601032   147A      2.613740   148A      2.641794  
     149A      2.658952   150A      2.659709   151A      2.696412  
     152A      2.703770   153A      2.725910   154A      2.727846  
     155A      2.743108   156A      2.760524   157A      2.760813  
     158A      2.788789   159A      2.833588   160A      2.846274  
     161A      2.888552   162A      2.900052   163A      2.910796  
     164A      2.955541   165A      2.980121   166A      2.991701  
     167A      3.056644   168A      3.094642   169A      3.124099  
     170A      3.150597   171A      3.163209   172A      3.177473  
     173A      3.192783   174A      3.220696   175A      3.884187  
     176A      3.957516   177A      4.136830   178A      4.155016  
     179A      4.271251   180A      4.332093   181A      4.342065  
     182A      4.365214   183A      4.382751   184A      4.443415  
     185A      4.457080   186A      4.474350   187A      4.479656  
     188A      4.491829   189A      4.548293   190A      4.612897  
     191A      4.621321   192A      4.680031   193A      4.760263  
     194A      4.773563   195A      4.849608   196A      4.852432  
     197A      4.953730   198A      4.992845   199A      5.074859  
     200A      5.127007   201A      5.198388   202A      5.318944  
     203A      5.325568   204A      5.430766   205A      5.437995  
     206A      5.453191   207A      5.509673   208A      5.527969  
     209A      5.600759   210A      5.708399   211A      5.736660  
     212A      5.831417   213A      5.841826   214A      6.470795  
     215A      6.474022   216A      6.710258   217A      6.711080  
     218A      6.976972   219A      6.990449   220A      7.145077  
     221A      7.188903   222A      7.348020   223A      7.382450  
     224A      7.430605   225A      7.463765   226A      7.468851  
     227A      7.508824   228A      7.511879   229A      7.529370  
     230A      7.589970   231A      7.609014   232A      7.636501  
     233A      7.641751   234A      7.811990   235A      7.840902  
     236A      8.076473   237A      8.087599   238A      8.162622  
     239A      8.170403   240A      8.991101   241A      9.000921  
     242A     16.453812   243A     16.600257  

    Final Occupation by Irrep:
              A 
    DOCC [    28 ]
    NA   [    28 ]
    NB   [    28 ]

  @DF-RHF Final Energy: -2724.68101936824633

   => Energetics <=

    Nuclear Repulsion Energy =            154.4879804562333732
    One-Electron Energy =               -4113.8092775266359240
    Two-Electron Energy =                1234.6402777021564816
    Total Energy =                      -2724.6810193682458703

Computation Completed


Properties will be evaluated at   0.000000,   0.000000,   0.000000 [a0]

Properties computed using the SCF density matrix


 Multipole Moments:

 ------------------------------------------------------------------------------------
     Multipole            Electronic (a.u.)      Nuclear  (a.u.)        Total (a.u.)
 ------------------------------------------------------------------------------------

 L = 1.  Multiply by 2.5417464519 to convert [e a0] to [Debye]
 Dipole X            :       -193.3070284          189.5245354           -3.7824930
 Dipole Y            :          0.0000000            0.0000000            0.0000000
 Dipole Z            :         -0.0000000            0.0000000           -0.0000000
 Magnitude           :                                                    3.7824930

 ------------------------------------------------------------------------------------

*** tstop() called on moses-razer at Sat Dec 30 17:40:59 2023
Module time:
	user time   =      16.08 seconds =       0.27 minutes
	system time =       1.54 seconds =       0.03 minutes
	total time  =          4 seconds =       0.07 minutes
Total time:
	user time   =      16.08 seconds =       0.27 minutes
	system time =       1.54 seconds =       0.03 minutes
	total time  =          4 seconds =       0.07 minutes

  //>>>>>>>>>>>>>>>>>>>>>>>>>>>>>>>>>>>//
  //            Monomer A HF           //
  //<<<<<<<<<<<<<<<<<<<<<<<<<<<<<<<<<<<//

   => Libint2 <=

    Primary   basis highest AM E, G, H:  5, 4, 3
    Auxiliary basis highest AM E, G, H:  6, 5, 4
    Onebody   basis highest AM E, G, H:  6, 5, 4
    Solid Harmonics ordering:            gaussian

*** tstart() called on moses-razer
*** at Sat Dec 30 17:40:59 2023

   => Loading Basis Set <=

    Name: AUG-CC-PVTZ
    Role: ORBITAL
    Keyword: BASIS
    atoms 1        entry BR         line  4564 file /home/kchung25/anaconda3/envs/p415env/share/psi4/basis/aug-cc-pvtz.gbs 
    atoms 2, 5     entry O          line   331 file /home/kchung25/anaconda3/envs/p415env/share/psi4/basis/aug-cc-pvtz.gbs 
    atoms 3-4, 6-7 entry H          line    40 file /home/kchung25/anaconda3/envs/p415env/share/psi4/basis/aug-cc-pvtz.gbs 


         ---------------------------------------------------------
                                   SCF
               by Justin Turney, Rob Parrish, Andy Simmonett
                          and Daniel G. A. Smith
                              RHF Reference
                        6 Threads,  57220 MiB Core
         ---------------------------------------------------------

  ==> Geometry <==

    Molecular point group: c1
    Full point group: C2

    Geometry (in Angstrom), charge = -1, multiplicity = 1:

       Center              X                  Y                   Z               Mass       
    ------------   -----------------  -----------------  -----------------  -----------------
         BR           2.832825000000     0.000000000000     0.000000000000    78.918337600000
      Gh(O)           0.000000000000    -0.112811000000     1.567716000000    15.994914619570
      Gh(H)          -0.349529000000     0.578740000000     1.000386000000     1.007825032230
      Gh(H)           0.921124000000    -0.169041000000     1.237825000000     1.007825032230
      Gh(O)           0.000000000000     0.112811000000    -1.567716000000    15.994914619570
      Gh(H)          -0.349529000000    -0.578740000000    -1.000386000000     1.007825032230
      Gh(H)           0.921124000000     0.169041000000    -1.237825000000     1.007825032230

  Running in c1 symmetry.

  Rotational constants: A =      0.19863  B =      0.02650  C =      0.02344 [cm^-1]
  Rotational constants: A =   5954.88914  B =    794.47529  C =    702.61080 [MHz]
  Nuclear repulsion =    0.000000000000000

  Charge       = -1
  Multiplicity = 1
  Electrons    = 36
  Nalpha       = 18
  Nbeta        = 18

  ==> Algorithm <==

  SCF Algorithm Type is DF.
  DIIS enabled.
  MOM disabled.
  Fractional occupation disabled.
  Guess Type is SAD.
  Energy threshold   = 1.00e-08
  Density threshold  = 1.00e-08
  Integral threshold = 1.00e-12

  ==> Primary Basis <==

  Basis Set: AUG-CC-PVTZ
    Blend: AUG-CC-PVTZ
    Number of shells: 83
    Number of basis functions: 243
    Number of Cartesian functions: 279
    Spherical Harmonics?: true
    Max angular momentum: 3

   => Loading Basis Set <=

    Name: (AUG-CC-PVTZ AUX)
    Role: JKFIT
    Keyword: DF_BASIS_SCF
    atoms 1        entry BR         line  1492 file /home/kchung25/anaconda3/envs/p415env/share/psi4/basis/aug-cc-pvtz-jkfit.gbs 
    atoms 2, 5     entry O          line   286 file /home/kchung25/anaconda3/envs/p415env/share/psi4/basis/aug-cc-pvtz-jkfit.gbs 
    atoms 3-4, 6-7 entry H          line    70 file /home/kchung25/anaconda3/envs/p415env/share/psi4/basis/aug-cc-pvtz-jkfit.gbs 

  ==> Integral Setup <==

  ==> DiskDFJK: Density-Fitted J/K Matrices <==

    J tasked:                  Yes
    K tasked:                  Yes
    wK tasked:                  No
    OpenMP threads:              6
    Integrals threads:           6
    Memory [MiB]:            42915
    Algorithm:                Core
    Integral Cache:           LOAD
    Schwarz Cutoff:          1E-12
    Fitting Condition:       1E-10

   => Auxiliary Basis Set <=

  Basis Set: (AUG-CC-PVTZ AUX)
    Blend: AUG-CC-PVTZ-JKFIT
    Number of shells: 174
    Number of basis functions: 640
    Number of Cartesian functions: 811
    Spherical Harmonics?: true
    Max angular momentum: 4

  Minimum eigenvalue in the overlap matrix is 2.2231582314E-04.
  Reciprocal condition number of the overlap matrix is 2.0476157864E-05.
    Using symmetric orthogonalization.

  ==> Pre-Iterations <==

  SCF Guess: Superposition of Atomic Densities via on-the-fly atomic UHF (no occupation information).

   -------------------------
    Irrep   Nso     Nmo    
   -------------------------
     A        243     243 
   -------------------------
    Total     243     243
   -------------------------

  ==> Iterations <==

                           Total Energy        Delta E     RMS |[F,P]|

   @DF-RHF iter SAD: -2570.41423546932037   -2.57041e+03   0.00000e+00 
   @DF-RHF iter   1: -2572.25358250541422   -1.83935e+00   4.40571e-03 ADIIS/DIIS
   @DF-RHF iter   2: -2572.46329863403435   -2.09716e-01   2.45574e-03 ADIIS/DIIS
   @DF-RHF iter   3: -2572.53366677218628   -7.03681e-02   3.44388e-05 DIIS
   @DF-RHF iter   4: -2572.53369736333616   -3.05911e-05   4.94638e-06 DIIS
   @DF-RHF iter   5: -2572.53369870272263   -1.33939e-06   1.21824e-06 DIIS
   @DF-RHF iter   6: -2572.53369879287493   -9.01523e-08   2.37665e-07 DIIS
   @DF-RHF iter   7: -2572.53369880455057   -1.16756e-08   1.97317e-08 DIIS
   @DF-RHF iter   8: -2572.53369880460968   -5.91172e-11   5.55926e-09 DIIS
  Energy and wave function converged.


  ==> Post-Iterations <==

    Orbital Energies [Eh]
    ---------------------

    Doubly Occupied:                                                      

       1A   -489.721356     2A    -64.861155     3A    -58.215667  
       4A    -58.215664     5A    -58.215662     6A     -9.533074  
       7A     -7.140432     8A     -7.140410     9A     -7.140400  
      10A     -2.882112    11A     -2.882111    12A     -2.882105  
      13A     -2.882095    14A     -2.882082    15A     -0.685999  
      16A     -0.139343    17A     -0.139340    18A     -0.139338  

    Virtual:                                                              

      19A      0.129936    20A      0.147301    21A      0.158455  
      22A      0.166711    23A      0.231967    24A      0.249379  
      25A      0.253830    26A      0.262129    27A      0.262826  
      28A      0.277132    29A      0.281135    30A      0.287067  
      31A      0.301947    32A      0.313307    33A      0.344729  
      34A      0.349248    35A      0.403232    36A      0.421563  
      37A      0.446835    38A      0.453729    39A      0.465933  
      40A      0.485704    41A      0.496800    42A      0.505410  
      43A      0.521640    44A      0.527270    45A      0.546726  
      46A      0.572698    47A      0.574057    48A      0.581570  
      49A      0.588674    50A      0.600078    51A      0.605923  
      52A      0.616296    53A      0.639454    54A      0.676235  
      55A      0.685638    56A      0.772885    57A      0.780375  
      58A      0.819344    59A      0.861430    60A      0.873098  
      61A      0.875097    62A      0.892938    63A      0.918495  
      64A      0.923920    65A      0.946676    66A      0.954689  
      67A      0.978994    68A      0.979012    69A      0.984943  
      70A      0.996380    71A      1.015305    72A      1.015707  
      73A      1.035659    74A      1.048539    75A      1.061440  
      76A      1.077527    77A      1.079174    78A      1.090050  
      79A      1.093302    80A      1.102973    81A      1.139848  
      82A      1.147102    83A      1.162763    84A      1.197814  
      85A      1.215936    86A      1.228535    87A      1.248306  
      88A      1.249265    89A      1.262244    90A      1.266300  
      91A      1.305468    92A      1.306323    93A      1.339062  
      94A      1.367871    95A      1.417496    96A      1.440413  
      97A      1.452763    98A      1.480791    99A      1.510573  
     100A      1.513733   101A      1.525737   102A      1.595345  
     103A      1.621852   104A      1.659964   105A      1.664071  
     106A      1.685160   107A      1.701163   108A      1.722476  
     109A      1.736132   110A      1.787757   111A      1.799019  
     112A      1.828161   113A      1.844401   114A      1.889951  
     115A      1.930901   116A      1.957828   117A      1.997228  
     118A      2.016904   119A      2.020850   120A      2.038672  
     121A      2.069590   122A      2.088467   123A      2.139241  
     124A      2.300637   125A      2.315788   126A      2.467007  
     127A      2.548737   128A      2.574910   129A      2.607873  
     130A      2.613150   131A      2.619949   132A      2.626556  
     133A      2.638502   134A      2.650141   135A      2.669988  
     136A      2.671898   137A      2.681297   138A      2.691935  
     139A      2.705736   140A      2.720232   141A      2.737331  
     142A      2.776774   143A      2.777927   144A      2.800113  
     145A      2.824190   146A      2.855136   147A      2.862348  
     148A      2.884572   149A      2.907268   150A      2.927021  
     151A      2.939965   152A      3.002040   153A      3.065713  
     154A      3.093195   155A      3.115658   156A      3.134660  
     157A      3.210260   158A      3.240755   159A      3.366060  
     160A      3.388548   161A      3.396750   162A      3.447871  
     163A      3.528771   164A      3.546964   165A      3.587856  
     166A      3.593167   167A      3.621422   168A      3.653535  
     169A      3.801911   170A      3.805082   171A      3.949863  
     172A      3.969858   173A      4.618145   174A      4.626923  
     175A      4.632296   176A      4.697551   177A      4.701982  
     178A      4.737875   179A      4.767377   180A      4.811080  
     181A      4.862266   182A      4.902367   183A      4.970278  
     184A      5.032490   185A      5.064677   186A      5.116584  
     187A      5.118036   188A      5.233647   189A      5.266236  
     190A      5.303885   191A      5.436620   192A      5.461984  
     193A      5.466749   194A      5.753946   195A      5.766842  
     196A      5.790562   197A      5.811433   198A      5.849776  
     199A      5.853724   200A      6.067251   201A      6.114243  
     202A      6.318524   203A      6.341051   204A      6.568423  
     205A      6.602728   206A      6.795311   207A      6.809201  
     208A      7.237215   209A      7.255659   210A      7.911640  
     211A      7.920415   212A      8.070618   213A      8.105209  
     214A      8.272461   215A      8.281217   216A      8.321232  
     217A      8.356721   218A      8.466060   219A      8.479919  
     220A      8.917379   221A      8.960674   222A      9.069864  
     223A      9.074634   224A      9.868742   225A      9.946760  
     226A     10.044370   227A     10.094752   228A     10.220445  
     229A     10.229204   230A     10.487267   231A     10.492859  
     232A     11.379887   233A     11.390244   234A     11.910358  
     235A     11.920490   236A     12.248016   237A     12.254704  
     238A     13.795738   239A     13.829800   240A     14.064106  
     241A     14.090340   242A     66.028837   243A     66.223922  

    Final Occupation by Irrep:
              A 
    DOCC [    18 ]
    NA   [    18 ]
    NB   [    18 ]

  @DF-RHF Final Energy: -2572.53369880460968

   => Energetics <=

    Nuclear Repulsion Energy =              0.0000000000000000
    One-Electron Energy =               -3593.6707080853966545
    Two-Electron Energy =                1021.1370092807869696
    Total Energy =                      -2572.5336988046096849

Computation Completed


Properties will be evaluated at   0.000000,   0.000000,   0.000000 [a0]

Properties computed using the SCF density matrix


 Multipole Moments:

 ------------------------------------------------------------------------------------
     Multipole            Electronic (a.u.)      Nuclear  (a.u.)        Total (a.u.)
 ------------------------------------------------------------------------------------

 L = 1.  Multiply by 2.5417464519 to convert [e a0] to [Debye]
 Dipole X            :       -192.7175822          187.3642194           -5.3533628
 Dipole Y            :         -0.0000000            0.0000000           -0.0000000
 Dipole Z            :         -0.0000000            0.0000000           -0.0000000
 Magnitude           :                                                    5.3533628

 ------------------------------------------------------------------------------------

*** tstop() called on moses-razer at Sat Dec 30 17:41:03 2023
Module time:
	user time   =      10.69 seconds =       0.18 minutes
	system time =       1.07 seconds =       0.02 minutes
	total time  =          4 seconds =       0.07 minutes
Total time:
	user time   =      26.80 seconds =       0.45 minutes
	system time =       2.61 seconds =       0.04 minutes
	total time  =          8 seconds =       0.13 minutes

  //>>>>>>>>>>>>>>>>>>>>>>>>>>>>>>>>>>>//
  //            Monomer B HF           //
  //<<<<<<<<<<<<<<<<<<<<<<<<<<<<<<<<<<<//

   => Libint2 <=

    Primary   basis highest AM E, G, H:  5, 4, 3
    Auxiliary basis highest AM E, G, H:  6, 5, 4
    Onebody   basis highest AM E, G, H:  6, 5, 4
    Solid Harmonics ordering:            gaussian

*** tstart() called on moses-razer
*** at Sat Dec 30 17:41:03 2023

   => Loading Basis Set <=

    Name: AUG-CC-PVTZ
    Role: ORBITAL
    Keyword: BASIS
    atoms 1        entry BR         line  4564 file /home/kchung25/anaconda3/envs/p415env/share/psi4/basis/aug-cc-pvtz.gbs 
    atoms 2, 5     entry O          line   331 file /home/kchung25/anaconda3/envs/p415env/share/psi4/basis/aug-cc-pvtz.gbs 
    atoms 3-4, 6-7 entry H          line    40 file /home/kchung25/anaconda3/envs/p415env/share/psi4/basis/aug-cc-pvtz.gbs 


         ---------------------------------------------------------
                                   SCF
               by Justin Turney, Rob Parrish, Andy Simmonett
                          and Daniel G. A. Smith
                              RHF Reference
                        6 Threads,  57220 MiB Core
         ---------------------------------------------------------

  ==> Geometry <==

    Molecular point group: c1
    Full point group: C2

    Geometry (in Angstrom), charge = 0, multiplicity = 1:

       Center              X                  Y                   Z               Mass       
    ------------   -----------------  -----------------  -----------------  -----------------
      Gh(BR)          2.832825000000     0.000000000000     0.000000000000    78.918337600000
         O            0.000000000000    -0.112811000000     1.567716000000    15.994914619570
         H           -0.349529000000     0.578740000000     1.000386000000     1.007825032230
         H            0.921124000000    -0.169041000000     1.237825000000     1.007825032230
         O            0.000000000000     0.112811000000    -1.567716000000    15.994914619570
         H           -0.349529000000    -0.578740000000    -1.000386000000     1.007825032230
         H            0.921124000000     0.169041000000    -1.237825000000     1.007825032230

  Running in c1 symmetry.

  Rotational constants: A =      0.19863  B =      0.02650  C =      0.02344 [cm^-1]
  Rotational constants: A =   5954.88914  B =    794.47529  C =    702.61080 [MHz]
  Nuclear repulsion =   35.854509788005693

  Charge       = 0
  Multiplicity = 1
  Electrons    = 20
  Nalpha       = 10
  Nbeta        = 10

  ==> Algorithm <==

  SCF Algorithm Type is DF.
  DIIS enabled.
  MOM disabled.
  Fractional occupation disabled.
  Guess Type is SAD.
  Energy threshold   = 1.00e-08
  Density threshold  = 1.00e-08
  Integral threshold = 1.00e-12

  ==> Primary Basis <==

  Basis Set: AUG-CC-PVTZ
    Blend: AUG-CC-PVTZ
    Number of shells: 83
    Number of basis functions: 243
    Number of Cartesian functions: 279
    Spherical Harmonics?: true
    Max angular momentum: 3

   => Loading Basis Set <=

    Name: (AUG-CC-PVTZ AUX)
    Role: JKFIT
    Keyword: DF_BASIS_SCF
    atoms 1        entry BR         line  1492 file /home/kchung25/anaconda3/envs/p415env/share/psi4/basis/aug-cc-pvtz-jkfit.gbs 
    atoms 2, 5     entry O          line   286 file /home/kchung25/anaconda3/envs/p415env/share/psi4/basis/aug-cc-pvtz-jkfit.gbs 
    atoms 3-4, 6-7 entry H          line    70 file /home/kchung25/anaconda3/envs/p415env/share/psi4/basis/aug-cc-pvtz-jkfit.gbs 

  ==> Integral Setup <==

  ==> DiskDFJK: Density-Fitted J/K Matrices <==

    J tasked:                  Yes
    K tasked:                  Yes
    wK tasked:                  No
    OpenMP threads:              6
    Integrals threads:           6
    Memory [MiB]:            42915
    Algorithm:                Core
    Integral Cache:           LOAD
    Schwarz Cutoff:          1E-12
    Fitting Condition:       1E-10

   => Auxiliary Basis Set <=

  Basis Set: (AUG-CC-PVTZ AUX)
    Blend: AUG-CC-PVTZ-JKFIT
    Number of shells: 174
    Number of basis functions: 640
    Number of Cartesian functions: 811
    Spherical Harmonics?: true
    Max angular momentum: 4

  Minimum eigenvalue in the overlap matrix is 2.2231582314E-04.
  Reciprocal condition number of the overlap matrix is 2.0476157864E-05.
    Using symmetric orthogonalization.

  ==> Pre-Iterations <==

  SCF Guess: Superposition of Atomic Densities via on-the-fly atomic UHF (no occupation information).

   -------------------------
    Irrep   Nso     Nmo    
   -------------------------
     A        243     243 
   -------------------------
    Total     243     243
   -------------------------

  ==> Iterations <==

                           Total Energy        Delta E     RMS |[F,P]|

   @DF-RHF iter SAD:  -151.00647695158352   -1.51006e+02   0.00000e+00 
   @DF-RHF iter   1:  -151.95257709884413   -9.46100e-01   2.67321e-03 ADIIS/DIIS
   @DF-RHF iter   2:  -152.05538780011918   -1.02811e-01   1.81876e-03 ADIIS/DIIS
   @DF-RHF iter   3:  -152.11594395868298   -6.05562e-02   1.31248e-04 ADIIS/DIIS
   @DF-RHF iter   4:  -152.11681446759553   -8.70509e-04   3.14526e-05 DIIS
   @DF-RHF iter   5:  -152.11687034871414   -5.58811e-05   7.88049e-06 DIIS
   @DF-RHF iter   6:  -152.11687557823024   -5.22952e-06   1.71030e-06 DIIS
   @DF-RHF iter   7:  -152.11687584199402   -2.63764e-07   3.08795e-07 DIIS
   @DF-RHF iter   8:  -152.11687584942658   -7.43256e-09   6.03066e-08 DIIS
   @DF-RHF iter   9:  -152.11687584969727   -2.70688e-10   1.75286e-08 DIIS
   @DF-RHF iter  10:  -152.11687584972373   -2.64606e-11   4.29027e-09 DIIS
  Energy and wave function converged.


  ==> Post-Iterations <==

    Orbital Energies [Eh]
    ---------------------

    Doubly Occupied:                                                      

       1A    -20.581849     2A    -20.581845     3A     -1.365471  
       4A     -1.358271     5A     -0.717875     6A     -0.711706  
       7A     -0.611014     8A     -0.594459     9A     -0.527580  
      10A     -0.515619  

    Virtual:                                                              

      11A      0.018080    12A      0.045529    13A      0.050122  
      14A      0.053590    15A      0.081050    16A      0.083088  
      17A      0.090775    18A      0.099887    19A      0.163537  
      20A      0.164320    21A      0.172680    22A      0.175984  
      23A      0.188484    24A      0.197016    25A      0.201965  
      26A      0.235211    27A      0.239038    28A      0.247007  
      29A      0.254408    30A      0.259108    31A      0.290055  
      32A      0.295049    33A      0.300469    34A      0.310753  
      35A      0.341369    36A      0.355965    37A      0.375151  
      38A      0.377763    39A      0.391944    40A      0.401263  
      41A      0.433122    42A      0.439751    43A      0.457978  
      44A      0.459792    45A      0.480920    46A      0.481645  
      47A      0.485615    48A      0.523310    49A      0.552772  
      50A      0.576146    51A      0.594224    52A      0.622565  
      53A      0.660492    54A      0.662197    55A      0.683509  
      56A      0.717730    57A      0.721886    58A      0.729359  
      59A      0.742120    60A      0.781788    61A      0.850371  
      62A      0.851072    63A      0.868804    64A      0.880216  
      65A      0.911884    66A      0.915115    67A      0.918605  
      68A      0.931066    69A      0.939669    70A      0.941528  
      71A      0.958674    72A      0.974906    73A      0.977479  
      74A      1.000495    75A      1.012585    76A      1.040866  
      77A      1.048904    78A      1.049543    79A      1.072003  
      80A      1.075621    81A      1.088653    82A      1.113167  
      83A      1.136200    84A      1.140176    85A      1.163420  
      86A      1.166094    87A      1.173454    88A      1.200781  
      89A      1.200888    90A      1.229405    91A      1.231521  
      92A      1.266356    93A      1.280936    94A      1.305972  
      95A      1.310188    96A      1.333375    97A      1.374196  
      98A      1.402996    99A      1.406868   100A      1.428602  
     101A      1.460166   102A      1.511122   103A      1.542515  
     104A      1.559525   105A      1.579323   106A      1.590028  
     107A      1.598547   108A      1.626912   109A      1.628137  
     110A      1.676208   111A      1.680146   112A      1.713807  
     113A      1.799388   114A      1.883754   115A      1.903990  
     116A      1.973242   117A      1.986587   118A      2.074569  
     119A      2.080964   120A      2.274943   121A      2.356896  
     122A      2.369503   123A      2.380510   124A      2.437760  
     125A      2.444233   126A      2.475462   127A      2.490125  
     128A      2.506887   129A      2.553684   130A      2.554810  
     131A      2.582437   132A      2.591235   133A      2.629324  
     134A      2.701310   135A      2.702771   136A      2.732001  
     137A      2.734914   138A      2.779977   139A      2.804424  
     140A      2.861911   141A      2.869892   142A      2.895835  
     143A      2.923856   144A      2.928346   145A      2.949516  
     146A      2.996959   147A      3.062047   148A      3.124831  
     149A      3.130706   150A      3.141537   151A      3.215518  
     152A      3.227289   153A      3.255730   154A      3.314724  
     155A      3.333299   156A      3.354212   157A      3.395494  
     158A      3.448507   159A      3.450034   160A      3.605783  
     161A      3.716190   162A      3.740692   163A      3.818326  
     164A      3.999253   165A      4.002669   166A      4.088495  
     167A      4.149708   168A      4.158656   169A      4.183822  
     170A      4.205505   171A      4.264496   172A      4.284738  
     173A      4.306786   174A      4.308717   175A      4.312426  
     176A      4.372495   177A      4.427196   178A      4.444653  
     179A      4.496481   180A      4.588167   181A      4.588258  
     182A      4.670767   183A      4.675917   184A      4.802378  
     185A      4.818681   186A      4.938272   187A      4.947420  
     188A      5.136954   189A      5.145183   190A      5.237505  
     191A      5.262659   192A      5.271691   193A      5.298245  
     194A      5.352949   195A      5.418254   196A      5.525728  
     197A      5.559072   198A      5.655245   199A      5.656563  
     200A      6.293181   201A      6.296140   202A      6.526747  
     203A      6.534701   204A      6.800551   205A      6.814023  
     206A      6.967021   207A      7.009759   208A      7.170741  
     209A      7.204973   210A      7.252442   211A      7.284187  
     212A      7.291562   213A      7.330320   214A      7.334317  
     215A      7.354336   216A      7.408621   217A      7.430905  
     218A      7.458291   219A      7.463977   220A      7.632773  
     221A      7.660830   222A      7.897714   223A      7.909160  
     224A      7.984970   225A      7.992544   226A      8.808917  
     227A      8.818268   228A     10.468054   229A     13.459972  
     230A     13.699245   231A     13.808681   232A     16.307965  
     233A     16.455378   234A     26.155644   235A     26.171335  
     236A     26.218283   237A     26.335288   238A     26.428906  
     239A     46.138301   240A    138.430599   241A    138.868954  
     242A    139.025389   243A    710.668377  

    Final Occupation by Irrep:
              A 
    DOCC [    10 ]
    NA   [    10 ]
    NB   [    10 ]

  @DF-RHF Final Energy:  -152.11687584972373

   => Energetics <=

    Nuclear Repulsion Energy =             35.8545097880056929
    One-Electron Energy =                -280.8113915927768289
    Two-Electron Energy =                  92.8400059550474452
    Total Energy =                       -152.1168758497236979

Computation Completed


Properties will be evaluated at   0.000000,   0.000000,   0.000000 [a0]

Properties computed using the SCF density matrix


 Multipole Moments:

 ------------------------------------------------------------------------------------
     Multipole            Electronic (a.u.)      Nuclear  (a.u.)        Total (a.u.)
 ------------------------------------------------------------------------------------

 L = 1.  Multiply by 2.5417464519 to convert [e a0] to [Debye]
 Dipole X            :         -1.4581040            2.1603160            0.7022120
 Dipole Y            :         -0.0000000            0.0000000           -0.0000000
 Dipole Z            :          0.0000000            0.0000000            0.0000000
 Magnitude           :                                                    0.7022120

 ------------------------------------------------------------------------------------

*** tstop() called on moses-razer at Sat Dec 30 17:41:05 2023
Module time:
	user time   =       9.07 seconds =       0.15 minutes
	system time =       0.56 seconds =       0.01 minutes
	total time  =          2 seconds =       0.03 minutes
Total time:
	user time   =      35.90 seconds =       0.60 minutes
	system time =       3.17 seconds =       0.05 minutes
	total time  =         10 seconds =       0.17 minutes
  Constructing Basis Sets for SAPT...

   => Loading Basis Set <=

    Name: (AUG-CC-PVTZ AUX)
    Role: RIFIT
    Keyword: DF_BASIS_SAPT
    atoms 1        entry BR         line  1248 file /home/kchung25/anaconda3/envs/p415env/share/psi4/basis/aug-cc-pvtz-ri.gbs 
    atoms 2, 5     entry O          line   264 file /home/kchung25/anaconda3/envs/p415env/share/psi4/basis/aug-cc-pvtz-ri.gbs 
    atoms 3-4, 6-7 entry H          line    30 file /home/kchung25/anaconda3/envs/p415env/share/psi4/basis/aug-cc-pvtz-ri.gbs 

   => Loading Basis Set <=

    Name: (AUG-CC-PVTZ AUX)
    Role: JKFIT
    Keyword: DF_BASIS_ELST
    atoms 1        entry BR         line  1492 file /home/kchung25/anaconda3/envs/p415env/share/psi4/basis/aug-cc-pvtz-jkfit.gbs 
    atoms 2, 5     entry O          line   286 file /home/kchung25/anaconda3/envs/p415env/share/psi4/basis/aug-cc-pvtz-jkfit.gbs 
    atoms 3-4, 6-7 entry H          line    70 file /home/kchung25/anaconda3/envs/p415env/share/psi4/basis/aug-cc-pvtz-jkfit.gbs 


  //>>>>>>>>>>>>>>>>>>>>>>>>>>>>>>>>>>>//
  //               SAPT2+              //
  //<<<<<<<<<<<<<<<<<<<<<<<<<<<<<<<<<<<//


*** tstart() called on moses-razer
*** at Sat Dec 30 17:41:05 2023

        SAPT2+  
    Ed Hohenstein
     6 June 2009

      Orbital Information
  --------------------------
    NSO        =       243
    NMO        =       243
    NRI        =       587
    NOCC A     =        18
    NOCC B     =        10
    FOCC A     =         0
    FOCC B     =         0
    NVIR A     =       225
    NVIR B     =       233

    Estimated memory usage: 677.1 MB

    Natural Orbital Cutoff:   1.000E-06
    Disp(T3) Truncation:            Yes
    CCD (vv|vv) Truncation:         Yes
    MBPT T2 Truncation:             Yes

    Monomer A: 154 virtual orbitals dropped
    Monomer B: 77 virtual orbitals dropped

    Elst10,r            =    -0.055466628970 [Eh]
    Exch10 (S^2)        =     0.044089238183 [Eh]
    Exch10              =     0.044968269764 [Eh]
    Ind20,r (A<-B)      =    -0.026688869174 [Eh]
    Ind20,r (B<-A)      =    -0.012222863573 [Eh]
    Ind20,r             =    -0.038911732747 [Eh]
    Exch-Ind20,r (A<-B) =     0.019742840828 [Eh]
    Exch-Ind20,r (B<-A) =     0.006322739882 [Eh]
    Exch-Ind20,r        =     0.026065580710 [Eh]
    Disp20              =    -0.017287475131 [Eh]
    Disp20 (NO)         =    -0.015161757584 [Eh]
    Exch-Disp20         =     0.004301470305 [Eh]
    Elst12,r            =    -0.000285903136 [Eh]
    Exch11              =     0.001828062041 [Eh]
    Exch12              =     0.002979990096 [Eh]
    Ind22               =    -0.004857859817 [Eh]
    Disp21              =     0.001254753697 [Eh]
    Disp22 (SDQ)        =    -0.000000940856 [Eh]

    (i =   1 of  10)          4 seconds
    (i =   2 of  10)          8 seconds
    (i =   3 of  10)         12 seconds
    (i =   4 of  10)         16 seconds
    (i =   5 of  10)         20 seconds
    (i =   6 of  10)         24 seconds
    (i =   7 of  10)         28 seconds
    (i =   8 of  10)         32 seconds
    (i =   9 of  10)         36 seconds
    (i =  10 of  10)         40 seconds

    Disp220 (T)         =    -0.001115942988 [Eh]

    (i =   1 of  18)          3 seconds
    (i =   2 of  18)          7 seconds
    (i =   3 of  18)         10 seconds
    (i =   4 of  18)         13 seconds
    (i =   5 of  18)         16 seconds
    (i =   6 of  18)         20 seconds
    (i =   7 of  18)         23 seconds
    (i =   8 of  18)         26 seconds
    (i =   9 of  18)         30 seconds
    (i =  10 of  18)         33 seconds
    (i =  11 of  18)         36 seconds
    (i =  12 of  18)         40 seconds
    (i =  13 of  18)         43 seconds
    (i =  14 of  18)         46 seconds
    (i =  15 of  18)         50 seconds
    (i =  16 of  18)         53 seconds
    (i =  17 of  18)         56 seconds
    (i =  18 of  18)         60 seconds

    Disp202 (T)         =    -0.001556257871 [Eh]

    Disp22 (T)          =    -0.002672200859 [Eh]

    Est. Disp220 (T)    =    -0.001272401075 [Eh]
    Est. Disp202 (T)    =    -0.001774449241 [Eh]

    Est. Disp22 (T)     =    -0.003046850317 [Eh]

    SAPT Results 
  --------------------------------------------------------------------------------------------------------
    Electrostatics                -55.75253211 [mEh]     -34.98524208 [kcal/mol]    -146.37825288 [kJ/mol]
      Elst10,r                    -55.46662897 [mEh]     -34.80583516 [kcal/mol]    -145.62761430 [kJ/mol]
      Elst12,r                     -0.28590314 [mEh]      -0.17940693 [kcal/mol]      -0.75063858 [kJ/mol]

    Exchange                       49.77632190 [mEh]      31.23511356 [kcal/mol]     130.68771514 [kJ/mol]
      Exch10                       44.96826976 [mEh]      28.21801530 [kcal/mol]     118.06417600 [kJ/mol]
      Exch10(S^2)                  44.08923818 [mEh]      27.66641465 [kcal/mol]     115.75627890 [kJ/mol]
      Exch11(S^2)                   1.82806204 [mEh]       1.14712625 [kcal/mol]       4.79957623 [kJ/mol]
      Exch12(S^2)                   2.97999010 [mEh]       1.86997202 [kcal/mol]       7.82396292 [kJ/mol]

    Induction                     -21.55010765 [mEh]     -13.52289671 [kcal/mol]     -56.57979983 [kJ/mol]
      Ind20,r                     -38.91173275 [mEh]     -24.41748094 [kcal/mol]    -102.16274025 [kJ/mol]
      Ind22                        -4.85785982 [mEh]      -3.04835306 [kcal/mol]     -12.75430919 [kJ/mol]
      Exch-Ind20,r                 26.06558071 [mEh]      16.35639884 [kcal/mol]      68.43517273 [kJ/mol]
      Exch-Ind22                    3.25410688 [mEh]       2.04198289 [kcal/mol]       8.54365643 [kJ/mol]
      delta HF,r (2)               -7.10020267 [mEh]      -4.45544444 [kcal/mol]     -18.64157954 [kJ/mol]

    Dispersion                    -14.77904230 [mEh]      -9.27398906 [kcal/mol]     -38.80237022 [kJ/mol]
      Disp20                      -17.28747513 [mEh]     -10.84805442 [kcal/mol]     -45.38825970 [kJ/mol]
      Disp21                        1.25475370 [mEh]       0.78736983 [kcal/mol]       3.29435538 [kJ/mol]
      Disp22 (SDQ)                 -0.00094086 [mEh]      -0.00059040 [kcal/mol]      -0.00247022 [kJ/mol]
      Disp22 (T)                   -2.67220086 [mEh]      -1.67683135 [kcal/mol]      -7.01586239 [kJ/mol]
      Est. Disp22 (T)              -3.04685032 [mEh]      -1.91192744 [kcal/mol]      -7.99950441 [kJ/mol]
      Exch-Disp20                   4.30147031 [mEh]       2.69921337 [kcal/mol]      11.29350873 [kJ/mol]

  Total HF                        -30.44471391 [mEh]     -19.10434641 [kcal/mol]     -79.93258537 [kJ/mol]
  Total SAPT0                     -43.43071874 [mEh]     -27.25318746 [kcal/mol]    -114.02733634 [kJ/mol]
  Total SAPT2                     -40.51232268 [mEh]     -25.42186629 [kcal/mol]    -106.36508854 [kJ/mol]
  Total SAPT2+                    -42.30536015 [mEh]     -26.54701429 [kcal/mol]    -111.07270778 [kJ/mol]

  Special recipe for scaled SAPT0 (see Manual):
    Electrostatics sSAPT0         -55.46662897 [mEh]     -34.80583516 [kcal/mol]    -145.62761430 [kJ/mol]
    Exchange sSAPT0                44.96826976 [mEh]      28.21801530 [kcal/mol]     118.06417600 [kJ/mol]
    Induction sSAPT0              -18.35601266 [mEh]     -11.51857184 [kcal/mol]     -48.19370459 [kJ/mol]
    Dispersion sSAPT0             -12.72355876 [mEh]      -7.98415366 [kcal/mol]     -33.40569892 [kJ/mol]
  Total sSAPT0                    -41.57793062 [mEh]     -26.09054537 [kcal/mol]    -109.16284181 [kJ/mol]
  --------------------------------------------------------------------------------------------------------

*** tstop() called on moses-razer at Sat Dec 30 17:43:24 2023
Module time:
	user time   =     796.86 seconds =      13.28 minutes
	system time =      13.70 seconds =       0.23 minutes
	total time  =        139 seconds =       2.32 minutes
Total time:
	user time   =     833.19 seconds =      13.89 minutes
	system time =      16.87 seconds =       0.28 minutes
	total time  =        149 seconds =       2.48 minutes

    Psi4 stopped on: Saturday, 30 December 2023 05:43PM
    Psi4 wall time for execution: 0:02:29.47

*** Psi4 exiting successfully. Buy a developer a beer!
