
    -----------------------------------------------------------------------
          Psi4: An Open-Source Ab Initio Electronic Structure Package
                               Psi4 1.9 release

                         Git: Rev {} zzzzzzz 


    D. G. A. Smith, L. A. Burns, A. C. Simmonett, R. M. Parrish,
    M. C. Schieber, R. Galvelis, P. Kraus, H. Kruse, R. Di Remigio,
    A. Alenaizan, A. M. James, S. Lehtola, J. P. Misiewicz, M. Scheurer,
    R. A. Shaw, J. B. Schriber, Y. Xie, Z. L. Glick, D. A. Sirianni,
    J. S. O'Brien, J. M. Waldrop, A. Kumar, E. G. Hohenstein,
    B. P. Pritchard, B. R. Brooks, H. F. Schaefer III, A. Yu. Sokolov,
    K. Patkowski, A. E. DePrince III, U. Bozkaya, R. A. King,
    F. A. Evangelista, J. M. Turney, T. D. Crawford, C. D. Sherrill,
    J. Chem. Phys. 152(18) 184108 (2020). https://doi.org/10.1063/5.0006002

                            Additional Code Authors
    E. T. Seidl, C. L. Janssen, E. F. Valeev, M. L. Leininger,
    J. F. Gonthier, R. M. Richard, H. R. McAlexander, M. Saitow, X. Wang,
    P. Verma, M. H. Lechner, A. Jiang, S. Behnle, A. G. Heide,
    M. F. Herbst, and D. L. Poole

             Previous Authors, Complete List of Code Contributors,
                       and Citations for Specific Modules
    https://github.com/psi4/psi4/blob/master/codemeta.json
    https://github.com/psi4/psi4/graphs/contributors
    http://psicode.org/psi4manual/master/introduction.html#citing-psifour

    -----------------------------------------------------------------------


    Psi4 started on: Monday, 01 January 2024 07:01PM

    Process ID: 322419
    Host:       moses-razer
    PSIDATADIR: /home/kchung25/anaconda3/envs/psi4_19/share/psi4
    Memory:     500.0 MiB
    Threads:    6
    
  ==> Input File <==

--------------------------------------------------------------------------
MEMORY 60 GB

molecule dimer {
1 1
Na     0.000000     0.000000     0.000000
--
0 1
O      1.870172    -0.000000    -1.173415
H      2.316655     0.760558    -1.552451
H      2.316655    -0.760558    -1.552451
O     -1.871411    -0.000000    -1.171436
H     -2.318235     0.760557    -1.550073
H     -2.318235    -0.760557    -1.550073
O      0.000572     1.870196     1.173356
H     -0.759836     2.316556     1.552839
H      0.761280     2.316751     1.552004
O      0.000572    -1.870196     1.173356
H     -0.759836    -2.316556     1.552839
H      0.761280    -2.316751     1.552004

units ang
no_reorient
no_com
symmetry c1
}

set {
basis        aug-cc-pVTZ
scf_type     df
}

energy("sapt2+")
--------------------------------------------------------------------------

  Memory set to  55.879 GiB by Python driver.

Scratch directory: /scratch/
   => Loading Basis Set <=

    Name: AUG-CC-PVTZ
    Role: ORBITAL
    Keyword: BASIS
    atoms 1                     entry NA         line   469 file /home/kchung25/anaconda3/envs/p415env/share/psi4/basis/aug-cc-pvtz.gbs 
    atoms 2, 5, 8, 11           entry O          line   331 file /home/kchung25/anaconda3/envs/p415env/share/psi4/basis/aug-cc-pvtz.gbs 
    atoms 3-4, 6-7, 9-10, 12-13 entry H          line    40 file /home/kchung25/anaconda3/envs/p415env/share/psi4/basis/aug-cc-pvtz.gbs 

   => Loading Basis Set <=

    Name: AUG-CC-PVTZ
    Role: ORBITAL
    Keyword: BASIS
    atoms 1                     entry NA         line   469 file /home/kchung25/anaconda3/envs/p415env/share/psi4/basis/aug-cc-pvtz.gbs 
    atoms 2, 5, 8, 11           entry O          line   331 file /home/kchung25/anaconda3/envs/p415env/share/psi4/basis/aug-cc-pvtz.gbs 
    atoms 3-4, 6-7, 9-10, 12-13 entry H          line    40 file /home/kchung25/anaconda3/envs/p415env/share/psi4/basis/aug-cc-pvtz.gbs 


  //>>>>>>>>>>>>>>>>>>>>>>>>>>>>>>>>>>>//
  //              Dimer HF             //
  //<<<<<<<<<<<<<<<<<<<<<<<<<<<<<<<<<<<//

   => Libint2 <=

    Primary   basis highest AM E, G, H:  5, 4, 3
    Auxiliary basis highest AM E, G, H:  6, 5, 4
    Onebody   basis highest AM E, G, H:  6, 5, 4
    Solid Harmonics ordering:            gaussian

*** tstart() called on moses-razer
*** at Mon Jan  1 19:01:07 2024

   => Loading Basis Set <=

    Name: AUG-CC-PVTZ
    Role: ORBITAL
    Keyword: BASIS
    atoms 1                     entry NA         line   469 file /home/kchung25/anaconda3/envs/p415env/share/psi4/basis/aug-cc-pvtz.gbs 
    atoms 2, 5, 8, 11           entry O          line   331 file /home/kchung25/anaconda3/envs/p415env/share/psi4/basis/aug-cc-pvtz.gbs 
    atoms 3-4, 6-7, 9-10, 12-13 entry H          line    40 file /home/kchung25/anaconda3/envs/p415env/share/psi4/basis/aug-cc-pvtz.gbs 


         ---------------------------------------------------------
                                   SCF
               by Justin Turney, Rob Parrish, Andy Simmonett
                          and Daniel G. A. Smith
                              RHF Reference
                        6 Threads,  57220 MiB Core
         ---------------------------------------------------------

  ==> Geometry <==

    Molecular point group: c1
    Full point group: Cs

    Geometry (in Angstrom), charge = 1, multiplicity = 1:

       Center              X                  Y                   Z               Mass       
    ------------   -----------------  -----------------  -----------------  -----------------
         NA           0.000000000000     0.000000000000     0.000000000000    22.989769282000
         O            1.870172000000     0.000000000000    -1.173415000000    15.994914619570
         H            2.316655000000     0.760558000000    -1.552451000000     1.007825032230
         H            2.316655000000    -0.760558000000    -1.552451000000     1.007825032230
         O           -1.871411000000     0.000000000000    -1.171436000000    15.994914619570
         H           -2.318235000000     0.760557000000    -1.550073000000     1.007825032230
         H           -2.318235000000    -0.760557000000    -1.550073000000     1.007825032230
         O            0.000572000000     1.870196000000     1.173356000000    15.994914619570
         H           -0.759836000000     2.316556000000     1.552839000000     1.007825032230
         H            0.761280000000     2.316751000000     1.552004000000     1.007825032230
         O            0.000572000000    -1.870196000000     1.173356000000    15.994914619570
         H           -0.759836000000    -2.316556000000     1.552839000000     1.007825032230
         H            0.761280000000    -2.316751000000     1.552004000000     1.007825032230

  Running in c1 symmetry.

  Rotational constants: A =      0.06929  B =      0.06927  C =      0.06202 [cm^-1]
  Rotational constants: A =   2077.28985  B =   2076.55502  C =   1859.38994 [MHz]
  Nuclear repulsion =  220.926436520325439

  Charge       = 1
  Multiplicity = 1
  Electrons    = 50
  Nalpha       = 25
  Nbeta        = 25

  ==> Algorithm <==

  SCF Algorithm Type is DF.
  DIIS enabled.
  MOM disabled.
  Fractional occupation disabled.
  Guess Type is SAD.
  Energy threshold   = 1.00e-08
  Density threshold  = 1.00e-08
  Integral threshold = 1.00e-12

  ==> Primary Basis <==

  Basis Set: AUG-CC-PVTZ
    Blend: AUG-CC-PVTZ
    Number of shells: 144
    Number of basis functions: 418
    Number of Cartesian functions: 479
    Spherical Harmonics?: true
    Max angular momentum: 3

   => Loading Basis Set <=

    Name: (AUG-CC-PVTZ AUX)
    Role: JKFIT
    Keyword: DF_BASIS_SCF
    atoms 1                     entry NA         line   498 file /home/kchung25/anaconda3/envs/p415env/share/psi4/basis/def2-universal-jkfit.gbs 
    atoms 2, 5, 8, 11           entry O          line   286 file /home/kchung25/anaconda3/envs/p415env/share/psi4/basis/aug-cc-pvtz-jkfit.gbs 
    atoms 3-4, 6-7, 9-10, 12-13 entry H          line    70 file /home/kchung25/anaconda3/envs/p415env/share/psi4/basis/aug-cc-pvtz-jkfit.gbs 

  ==> Integral Setup <==

  ==> DiskDFJK: Density-Fitted J/K Matrices <==

    J tasked:                  Yes
    K tasked:                  Yes
    wK tasked:                  No
    OpenMP threads:              6
    Integrals threads:           6
    Memory [MiB]:            42915
    Algorithm:                Core
    Integral Cache:           SAVE
    Schwarz Cutoff:          1E-12
    Fitting Condition:       1E-10

   => Auxiliary Basis Set <=

  Basis Set: (AUG-CC-PVTZ AUX)
    Blend: AUG-CC-PVTZ-JKFIT + DEF2-UNIVERSAL-JKFIT
    Number of shells: 266
    Number of basis functions: 896
    Number of Cartesian functions: 1101
    Spherical Harmonics?: true
    Max angular momentum: 4

  Minimum eigenvalue in the overlap matrix is 4.0444182176E-05.
  Reciprocal condition number of the overlap matrix is 3.4139180227E-06.
    Using symmetric orthogonalization.

  ==> Pre-Iterations <==

  SCF Guess: Superposition of Atomic Densities via on-the-fly atomic UHF (no occupation information).

   -------------------------
    Irrep   Nso     Nmo    
   -------------------------
     A        418     418 
   -------------------------
    Total     418     418
   -------------------------

  ==> Iterations <==

                           Total Energy        Delta E     RMS |[F,P]|

   @DF-RHF iter SAD:  -463.93649649532773   -4.63936e+02   0.00000e+00 
   @DF-RHF iter   1:  -465.68531110456729   -1.74881e+00   2.31521e-03 ADIIS/DIIS
   @DF-RHF iter   2:  -465.91270684711139   -2.27396e-01   1.51964e-03 ADIIS/DIIS
   @DF-RHF iter   3:  -466.03672923629301   -1.24022e-01   1.07852e-04 ADIIS/DIIS
   @DF-RHF iter   4:  -466.03828770119657   -1.55846e-03   2.57425e-05 DIIS
   @DF-RHF iter   5:  -466.03838202686444   -9.43257e-05   5.61573e-06 DIIS
   @DF-RHF iter   6:  -466.03838908496743   -7.05810e-06   1.08678e-06 DIIS
   @DF-RHF iter   7:  -466.03838937278874   -2.87821e-07   1.96066e-07 DIIS
   @DF-RHF iter   8:  -466.03838938103513   -8.24639e-09   3.41033e-08 DIIS
   @DF-RHF iter   9:  -466.03838938120958   -1.74452e-10   6.26633e-09 DIIS
  Energy and wave function converged.


  ==> Post-Iterations <==

    Orbital Energies [Eh]
    ---------------------

    Doubly Occupied:                                                      

       1A    -40.537192     2A    -20.728683     3A    -20.728682  
       4A    -20.728674     5A    -20.728674     6A     -2.865126  
       7A     -1.592141     8A     -1.592139     9A     -1.591185  
      10A     -1.519132    11A     -1.515665    12A     -1.515421  
      13A     -1.515414    14A     -0.882890    15A     -0.881543  
      16A     -0.881536    17A     -0.879480    18A     -0.777018  
      19A     -0.763265    20A     -0.763253    21A     -0.761140  
      22A     -0.680843    23A     -0.680034    24A     -0.676091  
      25A     -0.676075  

    Virtual:                                                              

      26A     -0.091037    27A     -0.071712    28A     -0.071708  
      29A     -0.069245    30A     -0.042676    31A     -0.042384  
      32A     -0.042383    33A     -0.040160    34A     -0.037620  
      35A     -0.031541    36A     -0.028767    37A     -0.028765  
      38A     -0.026846    39A     -0.014322    40A     -0.006375  
      41A     -0.006367    42A     -0.003687    43A     -0.002880  
      44A      0.006693    45A      0.006726    46A      0.030716  
      47A      0.043825    48A      0.043829    49A      0.046462  
      50A      0.055214    51A      0.062602    52A      0.062609  
      53A      0.071374    54A      0.071585    55A      0.079874  
      56A      0.079923    57A      0.092359    58A      0.096704  
      59A      0.104044    60A      0.110164    61A      0.110206  
      62A      0.123698    63A      0.132249    64A      0.132276  
      65A      0.136615    66A      0.141351    67A      0.159348  
      68A      0.163701    69A      0.167053    70A      0.167055  
      71A      0.192895    72A      0.192897    73A      0.197167  
      74A      0.203917    75A      0.207254    76A      0.212467  
      77A      0.228340    78A      0.228358    79A      0.256963  
      80A      0.257012    81A      0.257389    82A      0.257401  
      83A      0.269295    84A      0.291089    85A      0.291123  
      86A      0.294163    87A      0.297485    88A      0.299289  
      89A      0.311113    90A      0.317077    91A      0.317116  
      92A      0.324220    93A      0.324242    94A      0.332266  
      95A      0.342314    96A      0.342343    97A      0.355263  
      98A      0.355269    99A      0.355828   100A      0.359301  
     101A      0.359378   102A      0.360622   103A      0.375130  
     104A      0.393350   105A      0.393382   106A      0.407563  
     107A      0.415281   108A      0.415386   109A      0.419998  
     110A      0.447201   111A      0.467283   112A      0.492064  
     113A      0.492084   114A      0.532152   115A      0.559351  
     116A      0.561995   117A      0.562840   118A      0.562888  
     119A      0.569030   120A      0.590333   121A      0.590365  
     122A      0.611598   123A      0.616996   124A      0.620626  
     125A      0.623358   126A      0.625103   127A      0.625194  
     128A      0.687570   129A      0.689187   130A      0.689302  
     131A      0.710606   132A      0.712075   133A      0.716970  
     134A      0.717051   135A      0.734869   136A      0.741413  
     137A      0.741487   138A      0.761109   139A      0.763868  
     140A      0.786480   141A      0.787742   142A      0.787756  
     143A      0.789540   144A      0.799392   145A      0.799477  
     146A      0.817771   147A      0.836451   148A      0.837263  
     149A      0.853454   150A      0.853514   151A      0.853546  
     152A      0.870741   153A      0.870835   154A      0.875102  
     155A      0.878454   156A      0.899649   157A      0.899666  
     158A      0.916227   159A      0.918074   160A      0.938122  
     161A      0.938135   162A      0.948993   163A      0.952103  
     164A      0.952152   165A      0.960362   166A      0.975281  
     167A      0.975403   168A      0.988001   169A      0.996851  
     170A      1.019084   171A      1.019136   172A      1.021734  
     173A      1.039478   174A      1.054231   175A      1.054257  
     176A      1.059860   177A      1.059899   178A      1.061437  
     179A      1.061476   180A      1.066018   181A      1.089667  
     182A      1.135560   183A      1.138419   184A      1.143123  
     185A      1.143281   186A      1.163908   187A      1.163967  
     188A      1.179503   189A      1.218320   190A      1.230775  
     191A      1.253913   192A      1.263656   193A      1.263801  
     194A      1.298844   195A      1.328501   196A      1.328667  
     197A      1.332779   198A      1.395751   199A      1.395798  
     200A      1.408564   201A      1.448230   202A      1.451147  
     203A      1.459480   204A      1.496791   205A      1.496865  
     206A      1.540697   207A      1.559877   208A      1.566938  
     209A      1.567055   210A      1.567189   211A      1.575635  
     212A      1.597775   213A      1.603514   214A      1.603545  
     215A      1.647585   216A      1.647715   217A      1.664332  
     218A      1.686910   219A      1.750553   220A      1.750609  
     221A      1.787584   222A      1.850188   223A      1.877919  
     224A      1.912252   225A      1.912265   226A      1.932739  
     227A      1.933517   228A      1.933557   229A      1.940747  
     230A      1.993365   231A      2.041355   232A      2.048816  
     233A      2.048963   234A      2.140009   235A      2.169863  
     236A      2.169972   237A      2.203923   238A      2.211547  
     239A      2.211553   240A      2.216167   241A      2.216305  
     242A      2.234916   243A      2.295032   244A      2.295925  
     245A      2.296000   246A      2.344107   247A      2.354392  
     248A      2.370073   249A      2.370173   250A      2.378151  
     251A      2.396657   252A      2.439443   253A      2.439525  
     254A      2.461675   255A      2.508536   256A      2.533720  
     257A      2.533822   258A      2.586240   259A      2.586243  
     260A      2.595642   261A      2.607312   262A      2.616616  
     263A      2.656607   264A      2.656655   265A      2.661598  
     266A      2.690458   267A      2.690505   268A      2.691488  
     269A      2.706558   270A      2.714138   271A      2.714192  
     272A      2.732362   273A      2.742783   274A      2.772876  
     275A      2.772879   276A      2.779214   277A      2.828897  
     278A      2.830143   279A      2.841575   280A      2.841607  
     281A      2.866408   282A      3.015276   283A      3.634898  
     284A      3.677451   285A      3.677524   286A      3.685887  
     287A      3.713513   288A      3.744381   289A      3.744573  
     290A      3.780432   291A      3.861614   292A      3.918744  
     293A      3.918807   294A      3.929458   295A      4.061451  
     296A      4.073670   297A      4.073844   298A      4.089122  
     299A      4.089126   300A      4.103944   301A      4.121506  
     302A      4.124409   303A      4.151088   304A      4.151155  
     305A      4.153819   306A      4.172005   307A      4.184001  
     308A      4.184017   309A      4.245342   310A      4.260169  
     311A      4.312608   312A      4.333710   313A      4.360846  
     314A      4.360894   315A      4.364279   316A      4.391243  
     317A      4.430448   318A      4.430574   319A      4.450301  
     320A      4.450312   321A      4.454968   322A      4.459182  
     323A      4.464751   324A      4.465722   325A      4.488077  
     326A      4.488303   327A      4.687242   328A      4.722976  
     329A      4.723003   330A      4.735352   331A      4.764135  
     332A      4.768043   333A      4.768101   334A      4.771965  
     335A      4.992236   336A      4.993041   337A      5.000751  
     338A      5.023331   339A      5.023365   340A      5.038672  
     341A      5.038679   342A      5.041245   343A      5.112967  
     344A      5.130137   345A      5.130151   346A      5.210539  
     347A      5.215182   348A      5.236720   349A      5.236787  
     350A      5.252903   351A      5.378921   352A      5.378938  
     353A      5.383550   354A      5.398906   355A      5.639155  
     356A      5.712419   357A      5.712612   358A      5.752931  
     359A      6.094139   360A      6.179760   361A      6.179764  
     362A      6.193537   363A      6.453897   364A      6.464057  
     365A      6.464079   366A      6.489533   367A      6.588213  
     368A      6.593781   369A      6.593920   370A      6.611349  
     371A      6.783698   372A      6.783778   373A      6.792853  
     374A      6.838987   375A      7.010889   376A      7.016573  
     377A      7.025392   378A      7.025454   379A      7.153903  
     380A      7.155055   381A      7.155976   382A      7.155977  
     383A      7.176819   384A      7.190924   385A      7.190927  
     386A      7.202272   387A      7.224262   388A      7.224295  
     389A      7.234682   390A      7.243189   391A      7.243986  
     392A      7.244296   393A      7.244312   394A      7.246471  
     395A      7.282742   396A      7.282769   397A      7.290350  
     398A      7.298303   399A      7.552839   400A      7.554151  
     401A      7.554306   402A      7.563912   403A      7.766884  
     404A      7.768178   405A      7.768185   406A      7.770045  
     407A      7.787083   408A      7.802032   409A      7.816812  
     410A      7.816874   411A      8.665051   412A      8.702663  
     413A      8.702753   414A      8.719582   415A     15.803621  
     416A     15.902729   417A     15.903063   418A     16.276649  

    Final Occupation by Irrep:
              A 
    DOCC [    25 ]
    NA   [    25 ]
    NB   [    25 ]

  @DF-RHF Final Energy:  -466.03838938120958

   => Energetics <=

    Nuclear Repulsion Energy =            220.9264365203254386
    One-Electron Energy =               -1081.0070489538538823
    Two-Electron Energy =                 394.0422230523188887
    Total Energy =                       -466.0383893812095835

Computation Completed


Properties will be evaluated at   0.000000,   0.000000,   0.000000 [a0]

Properties computed using the SCF density matrix


 Multipole Moments:

 ------------------------------------------------------------------------------------
     Multipole            Electronic (a.u.)      Nuclear  (a.u.)        Total (a.u.)
 ------------------------------------------------------------------------------------

 L = 1.  Multiply by 2.5417464519 to convert [e a0] to [Debye]
 Dipole X            :          0.0018928           -0.0019502           -0.0000574
 Dipole Y            :          0.0000000           -0.0000000            0.0000000
 Dipole Z            :         -0.0360810            0.0368988            0.0008178
 Magnitude           :                                                    0.0008198

 ------------------------------------------------------------------------------------

*** tstop() called on moses-razer at Mon Jan  1 19:01:16 2024
Module time:
	user time   =      42.95 seconds =       0.72 minutes
	system time =       2.11 seconds =       0.04 minutes
	total time  =          9 seconds =       0.15 minutes
Total time:
	user time   =      42.95 seconds =       0.72 minutes
	system time =       2.11 seconds =       0.04 minutes
	total time  =          9 seconds =       0.15 minutes

  //>>>>>>>>>>>>>>>>>>>>>>>>>>>>>>>>>>>//
  //            Monomer A HF           //
  //<<<<<<<<<<<<<<<<<<<<<<<<<<<<<<<<<<<//

   => Libint2 <=

    Primary   basis highest AM E, G, H:  5, 4, 3
    Auxiliary basis highest AM E, G, H:  6, 5, 4
    Onebody   basis highest AM E, G, H:  6, 5, 4
    Solid Harmonics ordering:            gaussian

*** tstart() called on moses-razer
*** at Mon Jan  1 19:01:16 2024

   => Loading Basis Set <=

    Name: AUG-CC-PVTZ
    Role: ORBITAL
    Keyword: BASIS
    atoms 1                     entry NA         line   469 file /home/kchung25/anaconda3/envs/p415env/share/psi4/basis/aug-cc-pvtz.gbs 
    atoms 2, 5, 8, 11           entry O          line   331 file /home/kchung25/anaconda3/envs/p415env/share/psi4/basis/aug-cc-pvtz.gbs 
    atoms 3-4, 6-7, 9-10, 12-13 entry H          line    40 file /home/kchung25/anaconda3/envs/p415env/share/psi4/basis/aug-cc-pvtz.gbs 


         ---------------------------------------------------------
                                   SCF
               by Justin Turney, Rob Parrish, Andy Simmonett
                          and Daniel G. A. Smith
                              RHF Reference
                        6 Threads,  57220 MiB Core
         ---------------------------------------------------------

  ==> Geometry <==

    Molecular point group: c1
    Full point group: Cs

    Geometry (in Angstrom), charge = 1, multiplicity = 1:

       Center              X                  Y                   Z               Mass       
    ------------   -----------------  -----------------  -----------------  -----------------
         NA           0.000000000000     0.000000000000     0.000000000000    22.989769282000
      Gh(O)           1.870172000000     0.000000000000    -1.173415000000    15.994914619570
      Gh(H)           2.316655000000     0.760558000000    -1.552451000000     1.007825032230
      Gh(H)           2.316655000000    -0.760558000000    -1.552451000000     1.007825032230
      Gh(O)          -1.871411000000     0.000000000000    -1.171436000000    15.994914619570
      Gh(H)          -2.318235000000     0.760557000000    -1.550073000000     1.007825032230
      Gh(H)          -2.318235000000    -0.760557000000    -1.550073000000     1.007825032230
      Gh(O)           0.000572000000     1.870196000000     1.173356000000    15.994914619570
      Gh(H)          -0.759836000000     2.316556000000     1.552839000000     1.007825032230
      Gh(H)           0.761280000000     2.316751000000     1.552004000000     1.007825032230
      Gh(O)           0.000572000000    -1.870196000000     1.173356000000    15.994914619570
      Gh(H)          -0.759836000000    -2.316556000000     1.552839000000     1.007825032230
      Gh(H)           0.761280000000    -2.316751000000     1.552004000000     1.007825032230

  Running in c1 symmetry.

  Rotational constants: A =      0.06929  B =      0.06927  C =      0.06202 [cm^-1]
  Rotational constants: A =   2077.28985  B =   2076.55502  C =   1859.38994 [MHz]
  Nuclear repulsion =    0.000000000000000

  Charge       = 1
  Multiplicity = 1
  Electrons    = 10
  Nalpha       = 5
  Nbeta        = 5

  ==> Algorithm <==

  SCF Algorithm Type is DF.
  DIIS enabled.
  MOM disabled.
  Fractional occupation disabled.
  Guess Type is SAD.
  Energy threshold   = 1.00e-08
  Density threshold  = 1.00e-08
  Integral threshold = 1.00e-12

  ==> Primary Basis <==

  Basis Set: AUG-CC-PVTZ
    Blend: AUG-CC-PVTZ
    Number of shells: 144
    Number of basis functions: 418
    Number of Cartesian functions: 479
    Spherical Harmonics?: true
    Max angular momentum: 3

   => Loading Basis Set <=

    Name: (AUG-CC-PVTZ AUX)
    Role: JKFIT
    Keyword: DF_BASIS_SCF
    atoms 1                     entry NA         line   498 file /home/kchung25/anaconda3/envs/p415env/share/psi4/basis/def2-universal-jkfit.gbs 
    atoms 2, 5, 8, 11           entry O          line   286 file /home/kchung25/anaconda3/envs/p415env/share/psi4/basis/aug-cc-pvtz-jkfit.gbs 
    atoms 3-4, 6-7, 9-10, 12-13 entry H          line    70 file /home/kchung25/anaconda3/envs/p415env/share/psi4/basis/aug-cc-pvtz-jkfit.gbs 

  ==> Integral Setup <==

  ==> DiskDFJK: Density-Fitted J/K Matrices <==

    J tasked:                  Yes
    K tasked:                  Yes
    wK tasked:                  No
    OpenMP threads:              6
    Integrals threads:           6
    Memory [MiB]:            42915
    Algorithm:                Core
    Integral Cache:           LOAD
    Schwarz Cutoff:          1E-12
    Fitting Condition:       1E-10

   => Auxiliary Basis Set <=

  Basis Set: (AUG-CC-PVTZ AUX)
    Blend: AUG-CC-PVTZ-JKFIT + DEF2-UNIVERSAL-JKFIT
    Number of shells: 266
    Number of basis functions: 896
    Number of Cartesian functions: 1101
    Spherical Harmonics?: true
    Max angular momentum: 4

  Minimum eigenvalue in the overlap matrix is 4.0444182176E-05.
  Reciprocal condition number of the overlap matrix is 3.4139180227E-06.
    Using symmetric orthogonalization.

  ==> Pre-Iterations <==

  SCF Guess: Superposition of Atomic Densities via on-the-fly atomic UHF (no occupation information).

   -------------------------
    Irrep   Nso     Nmo    
   -------------------------
     A        418     418 
   -------------------------
    Total     418     418
   -------------------------

  ==> Iterations <==

                           Total Energy        Delta E     RMS |[F,P]|

   @DF-RHF iter SAD:  -161.74574260082241   -1.61746e+02   0.00000e+00 
   @DF-RHF iter   1:  -161.67607210343328    6.96705e-02   1.53055e-05 DIIS
   @DF-RHF iter   2:  -161.67609039872397   -1.82953e-05   2.81592e-06 DIIS
   @DF-RHF iter   3:  -161.67609090122554   -5.02502e-07   1.34864e-07 DIIS
   @DF-RHF iter   4:  -161.67609090207245   -8.46910e-10   1.88738e-08 DIIS
   @DF-RHF iter   5:  -161.67609090208808   -1.56319e-11   7.17733e-10 DIIS
  Energy and wave function converged.


  ==> Post-Iterations <==

    Orbital Energies [Eh]
    ---------------------

    Doubly Occupied:                                                      

       1A    -40.760054     2A     -3.073678     3A     -1.797045  
       4A     -1.797045     5A     -1.797014  

    Virtual:                                                              

       6A     -0.181803     7A     -0.109434     8A     -0.109434  
       9A     -0.109431    10A     -0.070054    11A     -0.051784  
      12A     -0.051784    13A     -0.051768    14A     -0.051613  
      15A     -0.050894    16A     -0.049205    17A     -0.049205  
      18A     -0.049165    19A     -0.025098    20A     -0.011733  
      21A     -0.009580    22A     -0.008530    23A     -0.008526  
      24A     -0.006230    25A     -0.006225    26A     -0.002307  
      27A      0.006189    28A      0.006230    29A      0.006399  
      30A      0.014318    31A      0.024449    32A      0.024820  
      33A      0.024821    34A      0.034232    35A      0.050078  
      36A      0.061619    37A      0.061664    38A      0.064794  
      39A      0.087425    40A      0.096336    41A      0.102049  
      42A      0.102051    43A      0.102206    44A      0.107283  
      45A      0.107293    46A      0.118872    47A      0.123527  
      48A      0.123567    49A      0.136719    50A      0.157628  
      51A      0.159570    52A      0.167511    53A      0.167537  
      54A      0.172296    55A      0.174952    56A      0.184340  
      57A      0.184350    58A      0.198262    59A      0.202649  
      60A      0.222947    61A      0.236059    62A      0.236076  
      63A      0.242798    64A      0.248565    65A      0.250138  
      66A      0.250143    67A      0.251628    68A      0.271333  
      69A      0.271378    70A      0.279084    71A      0.287048  
      72A      0.290650    73A      0.295978    74A      0.298888  
      75A      0.298949    76A      0.314572    77A      0.323726  
      78A      0.323750    79A      0.333834    80A      0.333840  
      81A      0.345269    82A      0.345758    83A      0.350014  
      84A      0.357658    85A      0.357695    86A      0.378853  
      87A      0.401270    88A      0.401296    89A      0.401854  
      90A      0.408260    91A      0.415500    92A      0.415546  
      93A      0.419250    94A      0.437738    95A      0.466898  
      96A      0.467083    97A      0.474354    98A      0.515760  
      99A      0.516525   100A      0.533923   101A      0.533946  
     102A      0.536640   103A      0.560630   104A      0.560668  
     105A      0.580279   106A      0.585231   107A      0.656586  
     108A      0.662838   109A      0.662842   110A      0.663013  
     111A      0.663162   112A      0.664847   113A      0.677470  
     114A      0.677515   115A      0.689244   116A      0.721135  
     117A      0.744277   118A      0.744310   119A      0.755575  
     120A      0.762414   121A      0.763101   122A      0.763225  
     123A      0.769806   124A      0.769842   125A      0.775403  
     126A      0.797504   127A      0.797524   128A      0.804721  
     129A      0.812303   130A      0.859147   131A      0.870692  
     132A      0.871012   133A      0.871076   134A      0.872542  
     135A      0.878268   136A      0.898878   137A      0.904688  
     138A      0.904773   139A      0.906281   140A      0.920812  
     141A      0.921221   142A      0.921259   143A      0.926625  
     144A      0.938025   145A      0.938056   146A      0.944077  
     147A      0.949531   148A      0.958974   149A      0.991592  
     150A      0.991671   151A      1.000741   152A      1.000742  
     153A      1.010111   154A      1.032937   155A      1.041572  
     156A      1.041705   157A      1.053407   158A      1.062983  
     159A      1.066120   160A      1.067931   161A      1.067965  
     162A      1.073510   163A      1.098398   164A      1.111414  
     165A      1.111416   166A      1.162765   167A      1.176989  
     168A      1.177067   169A      1.180531   170A      1.199385  
     171A      1.199414   172A      1.204772   173A      1.215506  
     174A      1.232128   175A      1.232158   176A      1.234692  
     177A      1.281633   178A      1.281718   179A      1.286054  
     180A      1.289874   181A      1.313247   182A      1.402515  
     183A      1.484929   184A      1.484962   185A      1.552047  
     186A      1.556507   187A      1.566374   188A      1.598691  
     189A      1.598810   190A      1.625470   191A      1.639144  
     192A      1.639278   193A      1.646364   194A      1.660797  
     195A      1.660860   196A      1.674738   197A      1.687888  
     198A      1.708028   199A      1.730722   200A      1.733159  
     201A      1.757619   202A      1.758326   203A      1.758431  
     204A      1.783376   205A      1.792526   206A      1.792619  
     207A      1.852683   208A      1.852804   209A      1.867269  
     210A      1.902162   211A      1.922981   212A      1.922999  
     213A      1.927810   214A      2.157898   215A      2.210650  
     216A      2.223216   217A      2.259641   218A      2.259655  
     219A      2.297170   220A      2.303522   221A      2.303597  
     222A      2.304222   223A      2.332000   224A      2.337658  
     225A      2.349636   226A      2.349675   227A      2.350516  
     228A      2.386085   229A      2.390280   230A      2.393086  
     231A      2.393104   232A      2.398357   233A      2.438474  
     234A      2.438626   235A      2.505560   236A      2.538233  
     237A      2.538339   238A      2.578264   239A      2.578531  
     240A      2.618191   241A      2.668953   242A      2.668983  
     243A      2.693485   244A      2.695366   245A      2.735258  
     246A      2.760297   247A      2.763034   248A      2.767114  
     249A      2.767213   250A      2.966976   251A      3.013625  
     252A      3.019396   253A      3.019428   254A      3.048717  
     255A      3.064537   256A      3.064552   257A      3.087840  
     258A      3.090879   259A      3.138632   260A      3.143077  
     261A      3.143087   262A      3.145578   263A      3.164120  
     264A      3.165654   265A      3.180274   266A      3.180300  
     267A      3.194974   268A      3.195057   269A      3.207092  
     270A      3.248765   271A      3.417265   272A      3.483024  
     273A      3.483071   274A      3.486489   275A      3.486857  
     276A      3.513423   277A      3.519586   278A      3.519594  
     279A      4.160252   280A      4.204305   281A      4.204357  
     282A      4.218531   283A      4.349295   284A      4.349303  
     285A      4.363231   286A      4.363919   287A      4.365511  
     288A      4.365534   289A      4.377378   290A      4.389237  
     291A      4.471225   292A      4.471250   293A      4.494690  
     294A      4.551166   295A      4.579821   296A      4.592307  
     297A      4.614732   298A      4.636764   299A      4.636928  
     300A      4.647736   301A      4.647746   302A      4.700871  
     303A      4.772350   304A      4.787635   305A      4.789186  
     306A      4.789345   307A      4.814706   308A      4.822909  
     309A      4.858515   310A      4.858532   311A      4.869105  
     312A      4.891525   313A      4.917045   314A      4.917105  
     315A      5.014500   316A      5.076293   317A      5.076307  
     318A      5.084419   319A      5.362333   320A      5.362343  
     321A      5.367867   322A      5.376519   323A      5.461666  
     324A      5.463460   325A      5.477634   326A      5.482845  
     327A      5.482931   328A      5.496352   329A      5.496419  
     330A      5.524635   331A      5.716904   332A      5.771212  
     333A      5.771416   334A      5.773581   335A      5.894259  
     336A      5.961324   337A      5.976103   338A      5.976240  
     339A      6.207194   340A      6.207197   341A      6.212539  
     342A      6.270237   343A      6.483669   344A      6.549209  
     345A      6.549326   346A      6.574946   347A      6.870461  
     348A      6.900854   349A      6.900866   350A      6.989999  
     351A      7.457335   352A      7.468368   353A      7.468498  
     354A      7.476710   355A      7.614753   356A      7.614792  
     357A      7.618933   358A      7.672681   359A      7.863508  
     360A      7.864500   361A      7.869836   362A      7.869866  
     363A      7.988910   364A      8.008904   365A      8.008949  
     366A      8.035927   367A      8.054514   368A      8.056076  
     369A      8.056081   370A      8.056944   371A      8.557989  
     372A      8.597388   373A      8.597460   374A      8.604208  
     375A      8.640423   376A      8.671286   377A      8.673176  
     378A      8.673221   379A      9.634519   380A      9.634578  
     381A      9.677790   382A      9.684600   383A      9.744229  
     384A      9.744230   385A      9.763412   386A      9.772175  
     387A      9.776891   388A      9.795054   389A      9.797858  
     390A      9.797870   391A     10.000547   392A     10.000564  
     393A     10.014610   394A     10.017760   395A     11.016470  
     396A     11.030297   397A     11.030298   398A     11.083768  
     399A     11.491791   400A     11.492048   401A     11.509162  
     402A     11.531408   403A     11.906691   404A     12.031710  
     405A     12.031932   406A     12.206952   407A     13.332772  
     408A     13.382805   409A     13.401584   410A     13.401620  
     411A     13.617052   412A     13.638423   413A     13.639780  
     414A     13.639826   415A     64.787231   416A     65.102693  
     417A     65.103686   418A     65.970621  

    Final Occupation by Irrep:
              A 
    DOCC [     5 ]
    NA   [     5 ]
    NB   [     5 ]

  @DF-RHF Final Energy:  -161.67609090208808

   => Energetics <=

    Nuclear Repulsion Energy =              0.0000000000000000
    One-Electron Energy =                -224.9025120449248902
    Two-Electron Energy =                  63.2264211428368128
    Total Energy =                       -161.6760909020880774

Computation Completed


Properties will be evaluated at   0.000000,   0.000000,   0.000000 [a0]

Properties computed using the SCF density matrix


 Multipole Moments:

 ------------------------------------------------------------------------------------
     Multipole            Electronic (a.u.)      Nuclear  (a.u.)        Total (a.u.)
 ------------------------------------------------------------------------------------

 L = 1.  Multiply by 2.5417464519 to convert [e a0] to [Debye]
 Dipole X            :         -0.0000000            0.0000000           -0.0000000
 Dipole Y            :         -0.0000000            0.0000000           -0.0000000
 Dipole Z            :         -0.0000000            0.0000000           -0.0000000
 Magnitude           :                                                    0.0000000

 ------------------------------------------------------------------------------------

*** tstop() called on moses-razer at Mon Jan  1 19:01:20 2024
Module time:
	user time   =      19.40 seconds =       0.32 minutes
	system time =       0.82 seconds =       0.01 minutes
	total time  =          4 seconds =       0.07 minutes
Total time:
	user time   =      62.37 seconds =       1.04 minutes
	system time =       2.93 seconds =       0.05 minutes
	total time  =         13 seconds =       0.22 minutes

  //>>>>>>>>>>>>>>>>>>>>>>>>>>>>>>>>>>>//
  //            Monomer B HF           //
  //<<<<<<<<<<<<<<<<<<<<<<<<<<<<<<<<<<<//

   => Libint2 <=

    Primary   basis highest AM E, G, H:  5, 4, 3
    Auxiliary basis highest AM E, G, H:  6, 5, 4
    Onebody   basis highest AM E, G, H:  6, 5, 4
    Solid Harmonics ordering:            gaussian

*** tstart() called on moses-razer
*** at Mon Jan  1 19:01:20 2024

   => Loading Basis Set <=

    Name: AUG-CC-PVTZ
    Role: ORBITAL
    Keyword: BASIS
    atoms 1                     entry NA         line   469 file /home/kchung25/anaconda3/envs/p415env/share/psi4/basis/aug-cc-pvtz.gbs 
    atoms 2, 5, 8, 11           entry O          line   331 file /home/kchung25/anaconda3/envs/p415env/share/psi4/basis/aug-cc-pvtz.gbs 
    atoms 3-4, 6-7, 9-10, 12-13 entry H          line    40 file /home/kchung25/anaconda3/envs/p415env/share/psi4/basis/aug-cc-pvtz.gbs 


         ---------------------------------------------------------
                                   SCF
               by Justin Turney, Rob Parrish, Andy Simmonett
                          and Daniel G. A. Smith
                              RHF Reference
                        6 Threads,  57220 MiB Core
         ---------------------------------------------------------

  ==> Geometry <==

    Molecular point group: c1
    Full point group: Cs

    Geometry (in Angstrom), charge = 0, multiplicity = 1:

       Center              X                  Y                   Z               Mass       
    ------------   -----------------  -----------------  -----------------  -----------------
      Gh(NA)          0.000000000000     0.000000000000     0.000000000000    22.989769282000
         O            1.870172000000     0.000000000000    -1.173415000000    15.994914619570
         H            2.316655000000     0.760558000000    -1.552451000000     1.007825032230
         H            2.316655000000    -0.760558000000    -1.552451000000     1.007825032230
         O           -1.871411000000     0.000000000000    -1.171436000000    15.994914619570
         H           -2.318235000000     0.760557000000    -1.550073000000     1.007825032230
         H           -2.318235000000    -0.760557000000    -1.550073000000     1.007825032230
         O            0.000572000000     1.870196000000     1.173356000000    15.994914619570
         H           -0.759836000000     2.316556000000     1.552839000000     1.007825032230
         H            0.761280000000     2.316751000000     1.552004000000     1.007825032230
         O            0.000572000000    -1.870196000000     1.173356000000    15.994914619570
         H           -0.759836000000    -2.316556000000     1.552839000000     1.007825032230
         H            0.761280000000    -2.316751000000     1.552004000000     1.007825032230

  Running in c1 symmetry.

  Rotational constants: A =      0.06929  B =      0.06927  C =      0.06202 [cm^-1]
  Rotational constants: A =   2077.28985  B =   2076.55502  C =   1859.38994 [MHz]
  Nuclear repulsion =  120.447363828965393

  Charge       = 0
  Multiplicity = 1
  Electrons    = 40
  Nalpha       = 20
  Nbeta        = 20

  ==> Algorithm <==

  SCF Algorithm Type is DF.
  DIIS enabled.
  MOM disabled.
  Fractional occupation disabled.
  Guess Type is SAD.
  Energy threshold   = 1.00e-08
  Density threshold  = 1.00e-08
  Integral threshold = 1.00e-12

  ==> Primary Basis <==

  Basis Set: AUG-CC-PVTZ
    Blend: AUG-CC-PVTZ
    Number of shells: 144
    Number of basis functions: 418
    Number of Cartesian functions: 479
    Spherical Harmonics?: true
    Max angular momentum: 3

   => Loading Basis Set <=

    Name: (AUG-CC-PVTZ AUX)
    Role: JKFIT
    Keyword: DF_BASIS_SCF
    atoms 1                     entry NA         line   498 file /home/kchung25/anaconda3/envs/p415env/share/psi4/basis/def2-universal-jkfit.gbs 
    atoms 2, 5, 8, 11           entry O          line   286 file /home/kchung25/anaconda3/envs/p415env/share/psi4/basis/aug-cc-pvtz-jkfit.gbs 
    atoms 3-4, 6-7, 9-10, 12-13 entry H          line    70 file /home/kchung25/anaconda3/envs/p415env/share/psi4/basis/aug-cc-pvtz-jkfit.gbs 

  ==> Integral Setup <==

  ==> DiskDFJK: Density-Fitted J/K Matrices <==

    J tasked:                  Yes
    K tasked:                  Yes
    wK tasked:                  No
    OpenMP threads:              6
    Integrals threads:           6
    Memory [MiB]:            42915
    Algorithm:                Core
    Integral Cache:           LOAD
    Schwarz Cutoff:          1E-12
    Fitting Condition:       1E-10

   => Auxiliary Basis Set <=

  Basis Set: (AUG-CC-PVTZ AUX)
    Blend: AUG-CC-PVTZ-JKFIT + DEF2-UNIVERSAL-JKFIT
    Number of shells: 266
    Number of basis functions: 896
    Number of Cartesian functions: 1101
    Spherical Harmonics?: true
    Max angular momentum: 4

  Minimum eigenvalue in the overlap matrix is 4.0444182176E-05.
  Reciprocal condition number of the overlap matrix is 3.4139180227E-06.
    Using symmetric orthogonalization.

  ==> Pre-Iterations <==

  SCF Guess: Superposition of Atomic Densities via on-the-fly atomic UHF (no occupation information).

   -------------------------
    Irrep   Nso     Nmo    
   -------------------------
     A        418     418 
   -------------------------
    Total     418     418
   -------------------------

  ==> Iterations <==

                           Total Energy        Delta E     RMS |[F,P]|

   @DF-RHF iter SAD:  -301.91432518535839   -3.01914e+02   0.00000e+00 
   @DF-RHF iter   1:  -303.86665217026740   -1.95233e+00   2.29423e-03 ADIIS/DIIS
   @DF-RHF iter   2:  -304.08166920776506   -2.15017e-01   1.61435e-03 ADIIS/DIIS
   @DF-RHF iter   3:  -304.22544855294268   -1.43779e-01   1.07340e-04 ADIIS/DIIS
   @DF-RHF iter   4:  -304.22712269691482   -1.67414e-03   2.64505e-05 DIIS
   @DF-RHF iter   5:  -304.22723208873401   -1.09392e-04   6.12862e-06 DIIS
   @DF-RHF iter   6:  -304.22724159581480   -9.50708e-06   1.36499e-06 DIIS
   @DF-RHF iter   7:  -304.22724211628798   -5.20473e-07   2.61754e-07 DIIS
   @DF-RHF iter   8:  -304.22724213363404   -1.73461e-08   4.80999e-08 DIIS
   @DF-RHF iter   9:  -304.22724213407452   -4.40480e-10   1.13319e-08 DIIS
   @DF-RHF iter  10:  -304.22724213409788   -2.33626e-11   2.63536e-09 DIIS
  Energy and wave function converged.


  ==> Post-Iterations <==

    Orbital Energies [Eh]
    ---------------------

    Doubly Occupied:                                                      

       1A    -20.536808     2A    -20.536807     3A    -20.536800  
       4A    -20.536800     5A     -1.321741     6A     -1.320879  
       7A     -1.320871     8A     -1.320611     9A     -0.687341  
      10A     -0.686242    11A     -0.686236    12A     -0.684416  
      13A     -0.558837    14A     -0.547376    15A     -0.547364  
      16A     -0.544488    17A     -0.480837    18A     -0.479775  
      19A     -0.476353    20A     -0.476339  

    Virtual:                                                              

      21A      0.011333    22A      0.017440    23A      0.017443  
      24A      0.018519    25A      0.053389    26A      0.057107  
      27A      0.057109    28A      0.057443    29A      0.060031  
      30A      0.061919    31A      0.061926    32A      0.065886  
      33A      0.072491    34A      0.080016    35A      0.088763  
      36A      0.088779    37A      0.099432    38A      0.106435  
      39A      0.106449    40A      0.108528    41A      0.129077  
      42A      0.167984    43A      0.167986    44A      0.169891  
      45A      0.179390    46A      0.186707    47A      0.186710  
      48A      0.192746    49A      0.195917    50A      0.200879  
      51A      0.200920    52A      0.214103    53A      0.224612  
      54A      0.225304    55A      0.235509    56A      0.235557  
      57A      0.266442    58A      0.270714    59A      0.270736  
      60A      0.287168    61A      0.294820    62A      0.305550  
      63A      0.315368    64A      0.316661    65A      0.316677  
      66A      0.350409    67A      0.351191    68A      0.357638  
      69A      0.357645    70A      0.362774    71A      0.369878  
      72A      0.369892    73A      0.379239    74A      0.392684  
      75A      0.394437    76A      0.394445    77A      0.402121  
      78A      0.427266    79A      0.427301    80A      0.427447  
      81A      0.432953    82A      0.434701    83A      0.440664  
      84A      0.445280    85A      0.459461    86A      0.459524  
      87A      0.462330    88A      0.462369    89A      0.480584  
      90A      0.487137    91A      0.487173    92A      0.500592  
      93A      0.502437    94A      0.502854    95A      0.502872  
      96A      0.504218    97A      0.505420    98A      0.537023  
      99A      0.542959   100A      0.542978   101A      0.553871  
     102A      0.578058   103A      0.578197   104A      0.586474  
     105A      0.618500   106A      0.675574   107A      0.695094  
     108A      0.695102   109A      0.746759   110A      0.753063  
     111A      0.755966   112A      0.760766   113A      0.762513  
     114A      0.762550   115A      0.768344   116A      0.768392  
     117A      0.782899   118A      0.790164   119A      0.794134  
     120A      0.806842   121A      0.806923   122A      0.813634  
     123A      0.845184   124A      0.879509   125A      0.879646  
     126A      0.879730   127A      0.890103   128A      0.890189  
     129A      0.921451   130A      0.930653   131A      0.935200  
     132A      0.935300   133A      0.942814   134A      0.953334  
     135A      0.956766   136A      0.958439   137A      0.971288  
     138A      0.971293   139A      0.997421   140A      0.997845  
     141A      0.997858   142A      1.001067   143A      1.007449  
     144A      1.014089   145A      1.014236   146A      1.033647  
     147A      1.036285   148A      1.036327   149A      1.037577  
     150A      1.039680   151A      1.076101   152A      1.076313  
     153A      1.082222   154A      1.082253   155A      1.110816  
     156A      1.110856   157A      1.122190   158A      1.122964  
     159A      1.123114   160A      1.138485   161A      1.138642  
     162A      1.140173   163A      1.156293   164A      1.198267  
     165A      1.203838   166A      1.205127   167A      1.205149  
     168A      1.219289   169A      1.220637   170A      1.220639  
     171A      1.223761   172A      1.223768   173A      1.226286  
     174A      1.235737   175A      1.237385   176A      1.268968  
     177A      1.303210   178A      1.318673   179A      1.327338  
     180A      1.327526   181A      1.349228   182A      1.349258  
     183A      1.359448   184A      1.385349   185A      1.416557  
     186A      1.428292   187A      1.470672   188A      1.475107  
     189A      1.475352   190A      1.521231   191A      1.521344  
     192A      1.536484   193A      1.551783   194A      1.592958  
     195A      1.596273   196A      1.596358   197A      1.633404  
     198A      1.674504   199A      1.693522   200A      1.711439  
     201A      1.711506   202A      1.733701   203A      1.744422  
     204A      1.744558   205A      1.755463   206A      1.774698  
     207A      1.782608   208A      1.782636   209A      1.787139  
     210A      1.828375   211A      1.828535   212A      1.845498  
     213A      1.856727   214A      1.890748   215A      1.929581  
     216A      1.929636   217A      2.001559   218A      2.057368  
     219A      2.089875   220A      2.089876   221A      2.122853  
     222A      2.130874   223A      2.130879   224A      2.138135  
     225A      2.154826   226A      2.264579   227A      2.264737  
     228A      2.266700   229A      2.267107   230A      2.380278  
     231A      2.381916   232A      2.415089   233A      2.418352  
     234A      2.418386   235A      2.419581   236A      2.427828  
     237A      2.427942   238A      2.475418   239A      2.517611  
     240A      2.523582   241A      2.523664   242A      2.561914  
     243A      2.574041   244A      2.595126   245A      2.606527  
     246A      2.606679   247A      2.615170   248A      2.623614  
     249A      2.623642   250A      2.669791   251A      2.682264  
     252A      2.745880   253A      2.745960   254A      2.780159  
     255A      2.780163   256A      2.801744   257A      2.805445  
     258A      2.812767   259A      2.842544   260A      2.842673  
     261A      2.845039   262A      2.875012   263A      2.875104  
     264A      2.892315   265A      2.892446   266A      2.909520  
     267A      2.926949   268A      2.932366   269A      2.943408  
     270A      2.944282   271A      2.976111   272A      2.976122  
     273A      3.047518   274A      3.057364   275A      3.057381  
     276A      3.065208   277A      3.081808   278A      3.823384  
     279A      3.865190   280A      3.865263   281A      3.880758  
     282A      3.882159   283A      3.936533   284A      3.936729  
     285A      3.969953   286A      4.044156   287A      4.101189  
     288A      4.101253   289A      4.111816   290A      4.250105  
     291A      4.260237   292A      4.260408   293A      4.273319  
     294A      4.280124   295A      4.280125   296A      4.294535  
     297A      4.315272   298A      4.335671   299A      4.335744  
     300A      4.337846   301A      4.355169   302A      4.370454  
     303A      4.370474   304A      4.429810   305A      4.440024  
     306A      4.463951   307A      4.494834   308A      4.511091  
     309A      4.531734   310A      4.531791   311A      4.550687  
     312A      4.616713   313A      4.616820   314A      4.627242  
     315A      4.627259   316A      4.639717   317A      4.644299  
     318A      4.650308   319A      4.651873   320A      4.671617  
     321A      4.671858   322A      4.871365   323A      4.909171  
     324A      4.909192   325A      4.920537   326A      4.943139  
     327A      4.949903   328A      4.954946   329A      4.955010  
     330A      5.176892   331A      5.177760   332A      5.192198  
     333A      5.215291   334A      5.215325   335A      5.224015  
     336A      5.224026   337A      5.232487   338A      5.316550  
     339A      5.326749   340A      5.329366   341A      5.329368  
     342A      5.390136   343A      5.420479   344A      5.420857  
     345A      5.420915   346A      5.561376   347A      5.567672  
     348A      5.567688   349A      5.571585   350A      5.722701  
     351A      5.908980   352A      5.909150   353A      5.940032  
     354A      5.964543   355A      6.303897   356A      6.318349  
     357A      6.318426   358A      6.321359   359A      6.646460  
     360A      6.646469   361A      6.648869   362A      6.685508  
     363A      6.795589   364A      6.795724   365A      6.796122  
     366A      6.829671   367A      6.971060   368A      6.971193  
     369A      6.983807   370A      7.050483   371A      7.177781  
     372A      7.212712   373A      7.225363   374A      7.225413  
     375A      7.257244   376A      7.257277   377A      7.264937  
     378A      7.355886   379A      7.357473   380A      7.358342  
     381A      7.358343   382A      7.375269   383A      7.397120  
     384A      7.397142   385A      7.399462   386A      7.436468  
     387A      7.436474   388A      7.437892   389A      7.438277  
     390A      7.439884   391A      7.439894   392A      7.443236  
     393A      7.444116   394A      7.498892   395A      7.696604  
     396A      7.696918   397A      7.733504   398A      7.778738  
     399A      7.918337   400A      7.959098   401A      7.959113  
     402A      7.970410   403A      7.978068   404A      7.982095  
     405A      7.982147   406A      7.988515   407A      8.005337  
     408A      8.038809   409A      8.038819   410A      8.859326  
     411A      8.898891   412A      8.898985   413A      8.914603  
     414A     15.994962   415A     16.107870   416A     16.108195  
     417A     16.479210   418A     65.020455  

    Final Occupation by Irrep:
              A 
    DOCC [    20 ]
    NA   [    20 ]
    NB   [    20 ]

  @DF-RHF Final Energy:  -304.22724213409788

   => Energetics <=

    Nuclear Repulsion Energy =            120.4473638289653934
    One-Electron Energy =                -660.7753713473264270
    Two-Electron Energy =                 236.1007653842630987
    Total Energy =                       -304.2272421340978781

Computation Completed


Properties will be evaluated at   0.000000,   0.000000,   0.000000 [a0]

Properties computed using the SCF density matrix


 Multipole Moments:

 ------------------------------------------------------------------------------------
     Multipole            Electronic (a.u.)      Nuclear  (a.u.)        Total (a.u.)
 ------------------------------------------------------------------------------------

 L = 1.  Multiply by 2.5417464519 to convert [e a0] to [Debye]
 Dipole X            :          0.0019032           -0.0019502           -0.0000470
 Dipole Y            :          0.0000000           -0.0000000            0.0000000
 Dipole Z            :         -0.0363497            0.0368988            0.0005491
 Magnitude           :                                                    0.0005511

 ------------------------------------------------------------------------------------

*** tstop() called on moses-razer at Mon Jan  1 19:01:27 2024
Module time:
	user time   =      33.91 seconds =       0.57 minutes
	system time =       0.79 seconds =       0.01 minutes
	total time  =          7 seconds =       0.12 minutes
Total time:
	user time   =      96.31 seconds =       1.61 minutes
	system time =       3.72 seconds =       0.06 minutes
	total time  =         20 seconds =       0.33 minutes
  Constructing Basis Sets for SAPT...

   => Loading Basis Set <=

    Name: (AUG-CC-PVTZ AUX)
    Role: RIFIT
    Keyword: DF_BASIS_SAPT
    atoms 1                     entry NA         line   610 file /home/kchung25/anaconda3/envs/p415env/share/psi4/basis/def2-qzvpp-ri.gbs 
    atoms 2, 5, 8, 11           entry O          line   264 file /home/kchung25/anaconda3/envs/p415env/share/psi4/basis/aug-cc-pvtz-ri.gbs 
    atoms 3-4, 6-7, 9-10, 12-13 entry H          line    30 file /home/kchung25/anaconda3/envs/p415env/share/psi4/basis/aug-cc-pvtz-ri.gbs 

   => Loading Basis Set <=

    Name: (AUG-CC-PVTZ AUX)
    Role: JKFIT
    Keyword: DF_BASIS_ELST
    atoms 1                     entry NA         line   498 file /home/kchung25/anaconda3/envs/p415env/share/psi4/basis/def2-universal-jkfit.gbs 
    atoms 2, 5, 8, 11           entry O          line   286 file /home/kchung25/anaconda3/envs/p415env/share/psi4/basis/aug-cc-pvtz-jkfit.gbs 
    atoms 3-4, 6-7, 9-10, 12-13 entry H          line    70 file /home/kchung25/anaconda3/envs/p415env/share/psi4/basis/aug-cc-pvtz-jkfit.gbs 


  //>>>>>>>>>>>>>>>>>>>>>>>>>>>>>>>>>>>//
  //               SAPT2+              //
  //<<<<<<<<<<<<<<<<<<<<<<<<<<<<<<<<<<<//


*** tstart() called on moses-razer
*** at Mon Jan  1 19:01:27 2024

        SAPT2+  
    Ed Hohenstein
     6 June 2009

      Orbital Information
  --------------------------
    NSO        =       418
    NMO        =       418
    NRI        =       958
    NOCC A     =         5
    NOCC B     =        20
    FOCC A     =         0
    FOCC B     =         0
    NVIR A     =       413
    NVIR B     =       398

    Estimated memory usage: 2944.7 MB

    Natural Orbital Cutoff:   1.000E-06
    Disp(T3) Truncation:            Yes
    CCD (vv|vv) Truncation:         Yes
    MBPT T2 Truncation:             Yes

    Monomer A: 395 virtual orbitals dropped
    Monomer B: 69 virtual orbitals dropped

    Elst10,r            =    -0.149668158567 [Eh]
    Exch10 (S^2)        =     0.047560783240 [Eh]
    Exch10              =     0.047615646177 [Eh]
    Ind20,r (A<-B)      =    -0.000294711458 [Eh]
    Ind20,r (B<-A)      =    -0.075043893537 [Eh]
    Ind20,r             =    -0.075338604995 [Eh]
    Exch-Ind20,r (A<-B) =     0.000286825377 [Eh]
    Exch-Ind20,r (B<-A) =     0.038838697006 [Eh]
    Exch-Ind20,r        =     0.039125522383 [Eh]
    Disp20              =    -0.003585633398 [Eh]
    Disp20 (NO)         =    -0.003137706514 [Eh]
    Exch-Disp20         =     0.000803804912 [Eh]
    Elst12,r            =     0.009311787988 [Eh]
    Exch11              =    -0.000955099895 [Eh]
    Exch12              =     0.004873618600 [Eh]
    Ind22               =    -0.009608382282 [Eh]
    Disp21              =    -0.000073636643 [Eh]
    Disp22 (SDQ)        =    -0.000208102287 [Eh]

    (i =   1 of  20)          0 seconds
    (i =   2 of  20)          0 seconds
    (i =   3 of  20)          0 seconds
    (i =   4 of  20)          1 seconds
    (i =   5 of  20)          1 seconds
    (i =   6 of  20)          1 seconds
    (i =   7 of  20)          1 seconds
    (i =   8 of  20)          1 seconds
    (i =   9 of  20)          1 seconds
    (i =  10 of  20)          1 seconds
    (i =  11 of  20)          1 seconds
    (i =  12 of  20)          1 seconds
    (i =  13 of  20)          1 seconds
    (i =  14 of  20)          1 seconds
    (i =  15 of  20)          1 seconds
    (i =  16 of  20)          1 seconds
    (i =  17 of  20)          2 seconds
    (i =  18 of  20)          2 seconds
    (i =  19 of  20)          2 seconds
    (i =  20 of  20)          2 seconds

    Disp220 (T)         =    -0.000103423027 [Eh]

    (i =   1 of   5)         21 seconds
    (i =   2 of   5)         41 seconds
    (i =   3 of   5)         61 seconds
    (i =   4 of   5)         81 seconds
    (i =   5 of   5)        102 seconds

    Disp202 (T)         =    -0.000188641523 [Eh]

    Disp22 (T)          =    -0.000292064549 [Eh]

    Est. Disp220 (T)    =    -0.000118187299 [Eh]
    Est. Disp202 (T)    =    -0.000215571259 [Eh]

    Est. Disp22 (T)     =    -0.000333758558 [Eh]

    SAPT Results 
  --------------------------------------------------------------------------------------------------------
    Electrostatics               -140.35637058 [mEh]     -88.07495224 [kcal/mol]    -368.50560019 [kJ/mol]
      Elst10,r                   -149.66815857 [mEh]     -93.91818742 [kcal/mol]    -392.95369618 [kJ/mol]
      Elst12,r                      9.31178799 [mEh]       5.84323518 [kcal/mol]      24.44809599 [kJ/mol]

    Exchange                       51.53416488 [mEh]      32.33817669 [kcal/mol]     135.30293126 [kJ/mol]
      Exch10                       47.61564618 [mEh]      29.87926908 [kcal/mol]     125.01486181 [kJ/mol]
      Exch10(S^2)                  47.56078324 [mEh]      29.84484206 [kcal/mol]     124.87081919 [kJ/mol]
      Exch11(S^2)                  -0.95509989 [mEh]      -0.59933423 [kcal/mol]      -2.50761443 [kJ/mol]
      Exch12(S^2)                   4.87361860 [mEh]       3.05824184 [kcal/mol]      12.79568387 [kJ/mol]

    Induction                     -37.62230335 [mEh]     -23.60835178 [kcal/mol]     -98.77734385 [kJ/mol]
      Ind20,r                     -75.33860499 [mEh]     -47.27568838 [kcal/mol]    -197.80148016 [kJ/mol]
      Ind22                        -9.60838228 [mEh]      -6.02935091 [kcal/mol]     -25.22680421 [kJ/mol]
      Exch-Ind20,r                 39.12552238 [mEh]      24.55163596 [kcal/mol]     102.72404487 [kJ/mol]
      Exch-Ind22                    4.98991156 [mEh]       3.13121678 [kcal/mol]      13.10101100 [kJ/mol]
      delta HF,r (2)                3.20924998 [mEh]       2.01383476 [kcal/mol]       8.42588466 [kJ/mol]

    Dispersion                     -3.39732597 [mEh]      -2.13185423 [kcal/mol]      -8.91967812 [kJ/mol]
      Disp20                       -3.58563340 [mEh]      -2.25001893 [kcal/mol]      -9.41407919 [kJ/mol]
      Disp21                       -0.07363664 [mEh]      -0.04620769 [kcal/mol]      -0.19333298 [kJ/mol]
      Disp22 (SDQ)                 -0.20810229 [mEh]      -0.13058616 [kcal/mol]      -0.54637248 [kJ/mol]
      Disp22 (T)                   -0.29206455 [mEh]      -0.18327327 [kcal/mol]      -0.76681537 [kJ/mol]
      Est. Disp22 (T)              -0.33375856 [mEh]      -0.20943666 [kcal/mol]      -0.87628297 [kJ/mol]
      Exch-Disp20                   0.80380491 [mEh]       0.50439520 [kcal/mol]       2.11038951 [kJ/mol]

  Total HF                       -135.05634502 [mEh]     -84.74913600 [kcal/mol]    -354.59038501 [kJ/mol]
  Total SAPT0                    -137.83817351 [mEh]     -86.49475973 [kcal/mol]    -361.89407469 [kJ/mol]
  Total SAPT2                    -129.22633754 [mEh]     -81.09075107 [kcal/mol]    -339.28370246 [kJ/mol]
  Total SAPT2+                   -129.84183503 [mEh]     -81.47698157 [kcal/mol]    -340.89969089 [kJ/mol]

  Special recipe for scaled SAPT0 (see Manual):
    Electrostatics sSAPT0        -149.66815857 [mEh]     -93.91818742 [kcal/mol]    -392.95369618 [kJ/mol]
    Exchange sSAPT0                47.61564618 [mEh]      29.87926908 [kcal/mol]     125.01486181 [kJ/mol]
    Induction sSAPT0              -32.86827863 [mEh]     -20.62515623 [kcal/mol]     -86.29565367 [kJ/mol]
    Dispersion sSAPT0              -2.77904363 [mEh]      -1.74387621 [kcal/mol]      -7.29637804 [kJ/mol]
  Total sSAPT0                   -137.69983465 [mEh]     -86.40795078 [kcal/mol]    -361.53086607 [kJ/mol]
  --------------------------------------------------------------------------------------------------------

*** tstop() called on moses-razer at Mon Jan  1 19:08:08 2024
Module time:
	user time   =    2136.46 seconds =      35.61 minutes
	system time =      46.35 seconds =       0.77 minutes
	total time  =        401 seconds =       6.68 minutes
Total time:
	user time   =    2233.65 seconds =      37.23 minutes
	system time =      50.09 seconds =       0.83 minutes
	total time  =        421 seconds =       7.02 minutes

    Psi4 stopped on: Monday, 01 January 2024 07:08PM
    Psi4 wall time for execution: 0:07:00.47

*** Psi4 exiting successfully. Buy a developer a beer!
