
    -----------------------------------------------------------------------
          Psi4: An Open-Source Ab Initio Electronic Structure Package
                               Psi4 1.9 release

                         Git: Rev {} zzzzzzz 


    D. G. A. Smith, L. A. Burns, A. C. Simmonett, R. M. Parrish,
    M. C. Schieber, R. Galvelis, P. Kraus, H. Kruse, R. Di Remigio,
    A. Alenaizan, A. M. James, S. Lehtola, J. P. Misiewicz, M. Scheurer,
    R. A. Shaw, J. B. Schriber, Y. Xie, Z. L. Glick, D. A. Sirianni,
    J. S. O'Brien, J. M. Waldrop, A. Kumar, E. G. Hohenstein,
    B. P. Pritchard, B. R. Brooks, H. F. Schaefer III, A. Yu. Sokolov,
    K. Patkowski, A. E. DePrince III, U. Bozkaya, R. A. King,
    F. A. Evangelista, J. M. Turney, T. D. Crawford, C. D. Sherrill,
    J. Chem. Phys. 152(18) 184108 (2020). https://doi.org/10.1063/5.0006002

                            Additional Code Authors
    E. T. Seidl, C. L. Janssen, E. F. Valeev, M. L. Leininger,
    J. F. Gonthier, R. M. Richard, H. R. McAlexander, M. Saitow, X. Wang,
    P. Verma, M. H. Lechner, A. Jiang, S. Behnle, A. G. Heide,
    M. F. Herbst, and D. L. Poole

             Previous Authors, Complete List of Code Contributors,
                       and Citations for Specific Modules
    https://github.com/psi4/psi4/blob/master/codemeta.json
    https://github.com/psi4/psi4/graphs/contributors
    http://psicode.org/psi4manual/master/introduction.html#citing-psifour

    -----------------------------------------------------------------------


    Psi4 started on: Tuesday, 02 January 2024 12:24AM

    Process ID: 336974
    Host:       moses-razer
    PSIDATADIR: /home/kchung25/anaconda3/envs/psi4_19/share/psi4
    Memory:     500.0 MiB
    Threads:    6
    
  ==> Input File <==

--------------------------------------------------------------------------
MEMORY 60 GB

molecule dimer {
-1 1
Cl     0.000000     0.000000     0.000000
--
0 1
O      3.130045    -0.039116     0.000000
H      2.155226    -0.129176     0.000000
H      3.237770     0.913004     0.000000
O     -1.531147     2.730256     0.000000
H     -0.965743     1.931069     0.000000
H     -2.409570     2.347489     0.000000
O     -1.598898    -2.691140     0.000000
H     -1.189483    -1.801893     0.000000
H     -0.828200    -3.260493     0.000000

units ang
no_reorient
no_com
symmetry c1
}

set {
basis        aug-cc-pVTZ
scf_type     df
}

energy("sapt2+")
--------------------------------------------------------------------------

  Memory set to  55.879 GiB by Python driver.

Scratch directory: /scratch/
   => Loading Basis Set <=

    Name: AUG-CC-PVTZ
    Role: ORBITAL
    Keyword: BASIS
    atoms 1              entry CL         line   988 file /home/kchung25/anaconda3/envs/p415env/share/psi4/basis/aug-cc-pvtz.gbs 
    atoms 2, 5, 8        entry O          line   331 file /home/kchung25/anaconda3/envs/p415env/share/psi4/basis/aug-cc-pvtz.gbs 
    atoms 3-4, 6-7, 9-10 entry H          line    40 file /home/kchung25/anaconda3/envs/p415env/share/psi4/basis/aug-cc-pvtz.gbs 

   => Loading Basis Set <=

    Name: AUG-CC-PVTZ
    Role: ORBITAL
    Keyword: BASIS
    atoms 1              entry CL         line   988 file /home/kchung25/anaconda3/envs/p415env/share/psi4/basis/aug-cc-pvtz.gbs 
    atoms 2, 5, 8        entry O          line   331 file /home/kchung25/anaconda3/envs/p415env/share/psi4/basis/aug-cc-pvtz.gbs 
    atoms 3-4, 6-7, 9-10 entry H          line    40 file /home/kchung25/anaconda3/envs/p415env/share/psi4/basis/aug-cc-pvtz.gbs 


  //>>>>>>>>>>>>>>>>>>>>>>>>>>>>>>>>>>>//
  //              Dimer HF             //
  //<<<<<<<<<<<<<<<<<<<<<<<<<<<<<<<<<<<//

   => Libint2 <=

    Primary   basis highest AM E, G, H:  5, 4, 3
    Auxiliary basis highest AM E, G, H:  6, 5, 4
    Onebody   basis highest AM E, G, H:  6, 5, 4
    Solid Harmonics ordering:            gaussian

*** tstart() called on moses-razer
*** at Tue Jan  2 00:24:41 2024

   => Loading Basis Set <=

    Name: AUG-CC-PVTZ
    Role: ORBITAL
    Keyword: BASIS
    atoms 1              entry CL         line   988 file /home/kchung25/anaconda3/envs/p415env/share/psi4/basis/aug-cc-pvtz.gbs 
    atoms 2, 5, 8        entry O          line   331 file /home/kchung25/anaconda3/envs/p415env/share/psi4/basis/aug-cc-pvtz.gbs 
    atoms 3-4, 6-7, 9-10 entry H          line    40 file /home/kchung25/anaconda3/envs/p415env/share/psi4/basis/aug-cc-pvtz.gbs 


         ---------------------------------------------------------
                                   SCF
               by Justin Turney, Rob Parrish, Andy Simmonett
                          and Daniel G. A. Smith
                              RHF Reference
                        6 Threads,  57220 MiB Core
         ---------------------------------------------------------

  ==> Geometry <==

    Molecular point group: c1
    Full point group: Cs

    Geometry (in Angstrom), charge = -1, multiplicity = 1:

       Center              X                  Y                   Z               Mass       
    ------------   -----------------  -----------------  -----------------  -----------------
         CL           0.000000000000     0.000000000000     0.000000000000    34.968852682000
         O            3.130045000000    -0.039116000000     0.000000000000    15.994914619570
         H            2.155226000000    -0.129176000000     0.000000000000     1.007825032230
         H            3.237770000000     0.913004000000     0.000000000000     1.007825032230
         O           -1.531147000000     2.730256000000     0.000000000000    15.994914619570
         H           -0.965743000000     1.931069000000     0.000000000000     1.007825032230
         H           -2.409570000000     2.347489000000     0.000000000000     1.007825032230
         O           -1.598898000000    -2.691140000000     0.000000000000    15.994914619570
         H           -1.189483000000    -1.801893000000     0.000000000000     1.007825032230
         H           -0.828200000000    -3.260493000000     0.000000000000     1.007825032230

  Running in c1 symmetry.

  Rotational constants: A =      0.06502  B =      0.06502  C =      0.03251 [cm^-1]
  Rotational constants: A =   1949.39296  B =   1949.39234  C =    974.69632 [MHz]
  Nuclear repulsion =  146.998615895064518

  Charge       = -1
  Multiplicity = 1
  Electrons    = 48
  Nalpha       = 24
  Nbeta        = 24

  ==> Algorithm <==

  SCF Algorithm Type is DF.
  DIIS enabled.
  MOM disabled.
  Fractional occupation disabled.
  Guess Type is SAD.
  Energy threshold   = 1.00e-08
  Density threshold  = 1.00e-08
  Integral threshold = 1.00e-12

  ==> Primary Basis <==

  Basis Set: AUG-CC-PVTZ
    Blend: AUG-CC-PVTZ
    Number of shells: 112
    Number of basis functions: 326
    Number of Cartesian functions: 374
    Spherical Harmonics?: true
    Max angular momentum: 3

   => Loading Basis Set <=

    Name: (AUG-CC-PVTZ AUX)
    Role: JKFIT
    Keyword: DF_BASIS_SCF
    atoms 1              entry CL         line   816 file /home/kchung25/anaconda3/envs/p415env/share/psi4/basis/aug-cc-pvtz-jkfit.gbs 
    atoms 2, 5, 8        entry O          line   286 file /home/kchung25/anaconda3/envs/p415env/share/psi4/basis/aug-cc-pvtz-jkfit.gbs 
    atoms 3-4, 6-7, 9-10 entry H          line    70 file /home/kchung25/anaconda3/envs/p415env/share/psi4/basis/aug-cc-pvtz-jkfit.gbs 

  ==> Integral Setup <==

  ==> DiskDFJK: Density-Fitted J/K Matrices <==

    J tasked:                  Yes
    K tasked:                  Yes
    wK tasked:                  No
    OpenMP threads:              6
    Integrals threads:           6
    Memory [MiB]:            42915
    Algorithm:                Core
    Integral Cache:           SAVE
    Schwarz Cutoff:          1E-12
    Fitting Condition:       1E-10

   => Auxiliary Basis Set <=

  Basis Set: (AUG-CC-PVTZ AUX)
    Blend: AUG-CC-PVTZ-JKFIT
    Number of shells: 216
    Number of basis functions: 734
    Number of Cartesian functions: 903
    Spherical Harmonics?: true
    Max angular momentum: 4

  Minimum eigenvalue in the overlap matrix is 2.1779978123E-04.
  Reciprocal condition number of the overlap matrix is 2.4738673851E-05.
    Using symmetric orthogonalization.

  ==> Pre-Iterations <==

  SCF Guess: Superposition of Atomic Densities via on-the-fly atomic UHF (no occupation information).

   -------------------------
    Irrep   Nso     Nmo    
   -------------------------
     A        326     326 
   -------------------------
    Total     326     326
   -------------------------

  ==> Iterations <==

                           Total Energy        Delta E     RMS |[F,P]|

   @DF-RHF iter SAD:  -685.78797139501728   -6.85788e+02   0.00000e+00 
   @DF-RHF iter   1:  -687.52805122021596   -1.74008e+00   2.58564e-03 DIIS/ADIIS
   @DF-RHF iter   2:  -687.70178819124135   -1.73737e-01   1.74212e-03 DIIS/ADIIS
   @DF-RHF iter   3:  -687.80057879285459   -9.87906e-02   1.29763e-04 DIIS/ADIIS
   @DF-RHF iter   4:  -687.80189335419652   -1.31456e-03   4.77831e-05 DIIS
   @DF-RHF iter   5:  -687.80205006130950   -1.56707e-04   9.77641e-06 DIIS
   @DF-RHF iter   6:  -687.80206286993462   -1.28086e-05   2.48754e-06 DIIS
   @DF-RHF iter   7:  -687.80206388257034   -1.01264e-06   6.34627e-07 DIIS
   @DF-RHF iter   8:  -687.80206394784454   -6.52742e-08   1.10296e-07 DIIS
   @DF-RHF iter   9:  -687.80206394960271   -1.75817e-09   1.94853e-08 DIIS
   @DF-RHF iter  10:  -687.80206394965148   -4.87717e-11   4.73359e-09 DIIS
  Energy and wave function converged.


  ==> Post-Iterations <==

    Orbital Energies [Eh]
    ---------------------

    Doubly Occupied:                                                      

       1A   -104.575578     2A    -20.402205     3A    -20.402205  
       4A    -20.402205     5A    -10.301231     6A     -7.767330  
       7A     -7.767330     8A     -7.767219     9A     -1.187018  
      10A     -1.186842    11A     -1.186842    12A     -0.821475  
      13A     -0.547515    14A     -0.547515    15A     -0.541499  
      16A     -0.433793    17A     -0.433793    18A     -0.428634  
      19A     -0.348779    20A     -0.348090    21A     -0.348090  
      22A     -0.232640    23A     -0.232640    24A     -0.226022  

    Virtual:                                                              

      25A      0.130244    26A      0.134168    27A      0.134168  
      28A      0.172196    29A      0.172196    30A      0.182211  
      31A      0.239965    32A      0.265213    33A      0.270932  
      34A      0.270932    35A      0.277711    36A      0.277711  
      37A      0.291828    38A      0.301913    39A      0.301913  
      40A      0.312471    41A      0.330444    42A      0.330444  
      43A      0.331513    44A      0.363200    45A      0.363200  
      46A      0.371573    47A      0.394494    48A      0.394494  
      49A      0.401083    50A      0.401083    51A      0.420599  
      52A      0.428152    53A      0.454285    54A      0.469737  
      55A      0.469737    56A      0.474659    57A      0.474659  
      58A      0.511669    59A      0.529464    60A      0.529464  
      61A      0.530234    62A      0.559811    63A      0.559811  
      64A      0.569867    65A      0.610527    66A      0.610527  
      67A      0.614346    68A      0.681954    69A      0.683173  
      70A      0.683173    71A      0.685015    72A      0.685015  
      73A      0.712912    74A      0.756516    75A      0.756516  
      76A      0.828268    77A      0.844279    78A      0.844279  
      79A      0.864336    80A      0.866117    81A      0.869920  
      82A      0.869920    83A      0.879724    84A      0.879724  
      85A      0.882925    86A      0.882926    87A      0.884707  
      88A      0.903002    89A      0.918539    90A      0.920066  
      91A      0.920066    92A      0.987235    93A      0.987235  
      94A      1.006163    95A      1.006163    96A      1.037682  
      97A      1.039729    98A      1.060814    99A      1.060814  
     100A      1.066543   101A      1.068771   102A      1.068771  
     103A      1.082281   104A      1.102845   105A      1.109645  
     106A      1.109645   107A      1.119156   108A      1.133220  
     109A      1.133220   110A      1.135693   111A      1.135693  
     112A      1.147716   113A      1.156404   114A      1.168598  
     115A      1.184457   116A      1.184457   117A      1.209888  
     118A      1.209888   119A      1.268118   120A      1.273125  
     121A      1.273125   122A      1.281067   123A      1.281067  
     124A      1.312154   125A      1.312154   126A      1.322287  
     127A      1.326454   128A      1.363173   129A      1.363173  
     130A      1.371482   131A      1.398896   132A      1.416944  
     133A      1.416944   134A      1.469127   135A      1.482493  
     136A      1.482493   137A      1.506134   138A      1.506134  
     139A      1.569607   140A      1.599749   141A      1.599749  
     142A      1.681474   143A      1.681474   144A      1.685092  
     145A      1.697570   146A      1.697570   147A      1.725947  
     148A      1.727384   149A      1.727384   150A      1.738059  
     151A      1.772347   152A      1.772347   153A      1.773553  
     154A      1.821918   155A      1.821918   156A      1.844519  
     157A      1.880832   158A      1.884431   159A      1.884431  
     160A      2.042792   161A      2.089995   162A      2.089995  
     163A      2.115908   164A      2.115908   165A      2.126359  
     166A      2.199346   167A      2.215263   168A      2.215263  
     169A      2.334806   170A      2.434243   171A      2.438280  
     172A      2.438280   173A      2.520631   174A      2.536267  
     175A      2.536267   176A      2.551968   177A      2.551968  
     178A      2.559526   179A      2.607346   180A      2.607347  
     181A      2.608800   182A      2.636543   183A      2.636543  
     184A      2.639995   185A      2.639996   186A      2.645995  
     187A      2.678770   188A      2.703026   189A      2.703027  
     190A      2.704453   191A      2.774975   192A      2.774975  
     193A      2.800289   194A      2.865262   195A      2.875076  
     196A      2.875076   197A      2.875558   198A      2.875558  
     199A      2.881163   200A      2.956565   201A      2.956565  
     202A      2.976295   203A      3.006882   204A      3.006949  
     205A      3.006949   206A      3.102701   207A      3.111761  
     208A      3.111761   209A      3.112760   210A      3.112760  
     211A      3.169543   212A      3.245484   213A      3.295011  
     214A      3.295011   215A      3.421544   216A      3.421544  
     217A      3.457998   218A      3.527223   219A      3.527223  
     220A      3.678429   221A      3.678429   222A      3.707273  
     223A      3.838011   224A      3.887258   225A      3.887258  
     226A      3.918653   227A      4.181616   228A      4.191854  
     229A      4.191854   230A      4.202599   231A      4.224589  
     232A      4.224589   233A      4.343295   234A      4.343296  
     235A      4.349057   236A      4.351971   237A      4.351971  
     238A      4.381893   239A      4.424603   240A      4.438091  
     241A      4.438143   242A      4.438144   243A      4.453779  
     244A      4.453779   245A      4.546918   246A      4.549524  
     247A      4.549524   248A      4.580340   249A      4.580340  
     250A      4.617841   251A      4.628939   252A      4.628939  
     253A      4.629209   254A      4.760999   255A      4.767453  
     256A      4.767453   257A      4.964146   258A      4.982543  
     259A      4.982543   260A      5.099966   261A      5.099966  
     262A      5.161597   263A      5.293229   264A      5.298487  
     265A      5.298488   266A      5.392261   267A      5.392262  
     268A      5.408466   269A      5.445829   270A      5.462162  
     271A      5.462162   272A      5.524905   273A      5.538357  
     274A      5.538357   275A      5.681156   276A      5.686330  
     277A      5.686330   278A      5.812907   279A      5.839851  
     280A      5.839852   281A      6.376882   282A      6.409298  
     283A      6.409299   284A      6.679336   285A      6.706041  
     286A      6.706041   287A      6.881596   288A      6.908672  
     289A      6.908672   290A      7.100256   291A      7.133494  
     292A      7.133495   293A      7.285868   294A      7.288087  
     295A      7.288087   296A      7.332184   297A      7.435174  
     298A      7.435174   299A      7.447851   300A      7.464259  
     301A      7.464260   302A      7.476455   303A      7.476455  
     304A      7.479250   305A      7.480168   306A      7.563745  
     307A      7.563745   308A      7.564916   309A      7.604304  
     310A      7.604304   311A      7.618214   312A      7.819384  
     313A      7.819384   314A      7.853110   315A      8.104397  
     316A      8.111987   317A      8.111987   318A      8.148981  
     319A      8.148981   320A      8.158345   321A      8.987483  
     322A      8.987484   323A      9.013958   324A     16.441130  
     325A     16.441137   326A     16.679143  

    Final Occupation by Irrep:
              A 
    DOCC [    24 ]
    NA   [    24 ]
    NB   [    24 ]

  @DF-RHF Final Energy:  -687.80206394965148

   => Energetics <=

    Nuclear Repulsion Energy =            146.9986158950645176
    One-Electron Energy =               -1252.7283741558999282
    Two-Electron Energy =                 417.9276943111837568
    Total Energy =                       -687.8020639496514832

Computation Completed


Properties will be evaluated at   0.000000,   0.000000,   0.000000 [a0]

Properties computed using the SCF density matrix


 Multipole Moments:

 ------------------------------------------------------------------------------------
     Multipole            Electronic (a.u.)      Nuclear  (a.u.)        Total (a.u.)
 ------------------------------------------------------------------------------------

 L = 1.  Multiply by 2.5417464519 to convert [e a0] to [Debye]
 Dipole X            :         -0.0000012           -0.0000000           -0.0000012
 Dipole Y            :         -0.0000004           -0.0000000           -0.0000004
 Dipole Z            :          0.0000000            0.0000000            0.0000000
 Magnitude           :                                                    0.0000012

 ------------------------------------------------------------------------------------

*** tstop() called on moses-razer at Tue Jan  2 00:24:46 2024
Module time:
	user time   =      22.98 seconds =       0.38 minutes
	system time =       1.51 seconds =       0.03 minutes
	total time  =          5 seconds =       0.08 minutes
Total time:
	user time   =      22.98 seconds =       0.38 minutes
	system time =       1.51 seconds =       0.03 minutes
	total time  =          5 seconds =       0.08 minutes

  //>>>>>>>>>>>>>>>>>>>>>>>>>>>>>>>>>>>//
  //            Monomer A HF           //
  //<<<<<<<<<<<<<<<<<<<<<<<<<<<<<<<<<<<//

   => Libint2 <=

    Primary   basis highest AM E, G, H:  5, 4, 3
    Auxiliary basis highest AM E, G, H:  6, 5, 4
    Onebody   basis highest AM E, G, H:  6, 5, 4
    Solid Harmonics ordering:            gaussian

*** tstart() called on moses-razer
*** at Tue Jan  2 00:24:46 2024

   => Loading Basis Set <=

    Name: AUG-CC-PVTZ
    Role: ORBITAL
    Keyword: BASIS
    atoms 1              entry CL         line   988 file /home/kchung25/anaconda3/envs/p415env/share/psi4/basis/aug-cc-pvtz.gbs 
    atoms 2, 5, 8        entry O          line   331 file /home/kchung25/anaconda3/envs/p415env/share/psi4/basis/aug-cc-pvtz.gbs 
    atoms 3-4, 6-7, 9-10 entry H          line    40 file /home/kchung25/anaconda3/envs/p415env/share/psi4/basis/aug-cc-pvtz.gbs 


         ---------------------------------------------------------
                                   SCF
               by Justin Turney, Rob Parrish, Andy Simmonett
                          and Daniel G. A. Smith
                              RHF Reference
                        6 Threads,  57220 MiB Core
         ---------------------------------------------------------

  ==> Geometry <==

    Molecular point group: c1
    Full point group: Cs

    Geometry (in Angstrom), charge = -1, multiplicity = 1:

       Center              X                  Y                   Z               Mass       
    ------------   -----------------  -----------------  -----------------  -----------------
         CL           0.000000000000     0.000000000000     0.000000000000    34.968852682000
      Gh(O)           3.130045000000    -0.039116000000     0.000000000000    15.994914619570
      Gh(H)           2.155226000000    -0.129176000000     0.000000000000     1.007825032230
      Gh(H)           3.237770000000     0.913004000000     0.000000000000     1.007825032230
      Gh(O)          -1.531147000000     2.730256000000     0.000000000000    15.994914619570
      Gh(H)          -0.965743000000     1.931069000000     0.000000000000     1.007825032230
      Gh(H)          -2.409570000000     2.347489000000     0.000000000000     1.007825032230
      Gh(O)          -1.598898000000    -2.691140000000     0.000000000000    15.994914619570
      Gh(H)          -1.189483000000    -1.801893000000     0.000000000000     1.007825032230
      Gh(H)          -0.828200000000    -3.260493000000     0.000000000000     1.007825032230

  Running in c1 symmetry.

  Rotational constants: A =      0.06502  B =      0.06502  C =      0.03251 [cm^-1]
  Rotational constants: A =   1949.39296  B =   1949.39234  C =    974.69632 [MHz]
  Nuclear repulsion =    0.000000000000000

  Charge       = -1
  Multiplicity = 1
  Electrons    = 18
  Nalpha       = 9
  Nbeta        = 9

  ==> Algorithm <==

  SCF Algorithm Type is DF.
  DIIS enabled.
  MOM disabled.
  Fractional occupation disabled.
  Guess Type is SAD.
  Energy threshold   = 1.00e-08
  Density threshold  = 1.00e-08
  Integral threshold = 1.00e-12

  ==> Primary Basis <==

  Basis Set: AUG-CC-PVTZ
    Blend: AUG-CC-PVTZ
    Number of shells: 112
    Number of basis functions: 326
    Number of Cartesian functions: 374
    Spherical Harmonics?: true
    Max angular momentum: 3

   => Loading Basis Set <=

    Name: (AUG-CC-PVTZ AUX)
    Role: JKFIT
    Keyword: DF_BASIS_SCF
    atoms 1              entry CL         line   816 file /home/kchung25/anaconda3/envs/p415env/share/psi4/basis/aug-cc-pvtz-jkfit.gbs 
    atoms 2, 5, 8        entry O          line   286 file /home/kchung25/anaconda3/envs/p415env/share/psi4/basis/aug-cc-pvtz-jkfit.gbs 
    atoms 3-4, 6-7, 9-10 entry H          line    70 file /home/kchung25/anaconda3/envs/p415env/share/psi4/basis/aug-cc-pvtz-jkfit.gbs 

  ==> Integral Setup <==

  ==> DiskDFJK: Density-Fitted J/K Matrices <==

    J tasked:                  Yes
    K tasked:                  Yes
    wK tasked:                  No
    OpenMP threads:              6
    Integrals threads:           6
    Memory [MiB]:            42915
    Algorithm:                Core
    Integral Cache:           LOAD
    Schwarz Cutoff:          1E-12
    Fitting Condition:       1E-10

   => Auxiliary Basis Set <=

  Basis Set: (AUG-CC-PVTZ AUX)
    Blend: AUG-CC-PVTZ-JKFIT
    Number of shells: 216
    Number of basis functions: 734
    Number of Cartesian functions: 903
    Spherical Harmonics?: true
    Max angular momentum: 4

  Minimum eigenvalue in the overlap matrix is 2.1779978123E-04.
  Reciprocal condition number of the overlap matrix is 2.4738673851E-05.
    Using symmetric orthogonalization.

  ==> Pre-Iterations <==

  SCF Guess: Superposition of Atomic Densities via on-the-fly atomic UHF (no occupation information).

   -------------------------
    Irrep   Nso     Nmo    
   -------------------------
     A        326     326 
   -------------------------
    Total     326     326
   -------------------------

  ==> Iterations <==

                           Total Energy        Delta E     RMS |[F,P]|

   @DF-RHF iter SAD:  -459.11248997654764   -4.59112e+02   0.00000e+00 
   @DF-RHF iter   1:  -459.51388747443951   -4.01397e-01   9.16198e-04 DIIS/ADIIS
   @DF-RHF iter   2:  -459.56479141268255   -5.09039e-02   4.69376e-04 DIIS/ADIIS
   @DF-RHF iter   3:  -459.57349088837481   -8.69948e-03   3.23864e-05 DIIS
   @DF-RHF iter   4:  -459.57354786834122   -5.69800e-05   6.40613e-06 DIIS
   @DF-RHF iter   5:  -459.57355150832592   -3.63998e-06   6.62001e-07 DIIS
   @DF-RHF iter   6:  -459.57355158998166   -8.16557e-08   5.54827e-08 DIIS
   @DF-RHF iter   7:  -459.57355159080907   -8.27413e-10   6.56263e-09 DIIS
  Energy and wave function converged.


  ==> Post-Iterations <==

    Orbital Energies [Eh]
    ---------------------

    Doubly Occupied:                                                      

       1A   -104.506973     2A    -10.229990     3A     -7.696093  
       4A     -7.696017     5A     -7.696017     6A     -0.733483  
       7A     -0.150320     8A     -0.150320     9A     -0.150309  

    Virtual:                                                              

      10A      0.131083    11A      0.136620    12A      0.136620  
      13A      0.165624    14A      0.165624    15A      0.187614  
      16A      0.239110    17A      0.255651    18A      0.255806  
      19A      0.255806    20A      0.267658    21A      0.267783  
      22A      0.267783    23A      0.285458    24A      0.285458  
      25A      0.307544    26A      0.318489    27A      0.318489  
      28A      0.334744    29A      0.369296    30A      0.369296  
      31A      0.392817    32A      0.411031    33A      0.411031  
      34A      0.417099    35A      0.417099    36A      0.436262  
      37A      0.439395    38A      0.466743    39A      0.493808  
      40A      0.493808    41A      0.496090    42A      0.496090  
      43A      0.508635    44A      0.509439    45A      0.509439  
      46A      0.530694    47A      0.556992    48A      0.556992  
      49A      0.569857    50A      0.629988    51A      0.637966  
      52A      0.637966    53A      0.659618    54A      0.659618  
      55A      0.660418    56A      0.696146    57A      0.696146  
      58A      0.769030    59A      0.786054    60A      0.786054  
      61A      0.821756    62A      0.844550    63A      0.851182  
      64A      0.851182    65A      0.880046    66A      0.880046  
      67A      0.932800    68A      0.943175    69A      0.951171  
      70A      0.951171    71A      0.951835    72A      0.951835  
      73A      0.965249    74A      0.971866    75A      0.971866  
      76A      0.977726    77A      0.995329    78A      0.995329  
      79A      1.021417    80A      1.021417    81A      1.038842  
      82A      1.044141    83A      1.053628    84A      1.053628  
      85A      1.064114    86A      1.073323    87A      1.082082  
      88A      1.082082    89A      1.089765    90A      1.089765  
      91A      1.100052    92A      1.141986    93A      1.145422  
      94A      1.145422    95A      1.158480    96A      1.161589  
      97A      1.161589    98A      1.164301    99A      1.189320  
     100A      1.189320   101A      1.226642   102A      1.242636  
     103A      1.242636   104A      1.282995   105A      1.282995  
     106A      1.301742   107A      1.326972   108A      1.326972  
     109A      1.349936   110A      1.349936   111A      1.368543  
     112A      1.381714   113A      1.392023   114A      1.392023  
     115A      1.411897   116A      1.423857   117A      1.464106  
     118A      1.464106   119A      1.523872   120A      1.544052  
     121A      1.544052   122A      1.580930   123A      1.580930  
     124A      1.625793   125A      1.625793   126A      1.633993  
     127A      1.666317   128A      1.780487   129A      1.780487  
     130A      1.820889   131A      1.844891   132A      1.844891  
     133A      1.850650   134A      1.850651   135A      1.868890  
     136A      1.895937   137A      1.910672   138A      1.910672  
     139A      1.912271   140A      1.912271   141A      1.935830  
     142A      1.935830   143A      1.951856   144A      1.996498  
     145A      1.996498   146A      2.000287   147A      2.011187  
     148A      2.019673   149A      2.048500   150A      2.048500  
     151A      2.158636   152A      2.158636   153A      2.243286  
     154A      2.284107   155A      2.363962   156A      2.363963  
     157A      2.465527   158A      2.614304   159A      2.614304  
     160A      2.614351   161A      2.623949   162A      2.629223  
     163A      2.629223   164A      2.684381   165A      2.684381  
     166A      2.691729   167A      2.720282   168A      2.750967  
     169A      2.750967   170A      2.784471   171A      2.806355  
     172A      2.806356   173A      2.814530   174A      2.814530  
     175A      2.836813   176A      2.841822   177A      2.841822  
     178A      2.872625   179A      2.910113   180A      2.910113  
     181A      2.913525   182A      3.022635   183A      3.022635  
     184A      3.056099   185A      3.101759   186A      3.101759  
     187A      3.102599   188A      3.168513   189A      3.168514  
     190A      3.170496   191A      3.348940   192A      3.348941  
     193A      3.360865   194A      3.366805   195A      3.366805  
     196A      3.370608   197A      3.479901   198A      3.494347  
     199A      3.494347   200A      3.540031   201A      3.540031  
     202A      3.541120   203A      3.572258   204A      3.572258  
     205A      3.620092   206A      3.628622   207A      3.634192  
     208A      3.634192   209A      3.668502   210A      3.668503  
     211A      3.726591   212A      3.726592   213A      3.751758  
     214A      3.834891   215A      3.879729   216A      3.879729  
     217A      3.998095   218A      3.998095   219A      4.001644  
     220A      4.037509   221A      4.562099   222A      4.588689  
     223A      4.588689   224A      4.625519   225A      4.625520  
     226A      4.627568   227A      4.696316   228A      4.696316  
     229A      4.740120   230A      4.757770   231A      4.763097  
     232A      4.763098   233A      4.848855   234A      4.864528  
     235A      4.864528   236A      5.026977   237A      5.028484  
     238A      5.028484   239A      5.041739   240A      5.041739  
     241A      5.081438   242A      5.131107   243A      5.138036  
     244A      5.153034   245A      5.153034   246A      5.208511  
     247A      5.208511   248A      5.459988   249A      5.459989  
     250A      5.481075   251A      5.756974   252A      5.756975  
     253A      5.791459   254A      5.793542   255A      5.794587  
     256A      5.794589   257A      5.800490   258A      5.804967  
     259A      5.804968   260A      6.059904   261A      6.059905  
     262A      6.073520   263A      6.307324   264A      6.332113  
     265A      6.332113   266A      6.563585   267A      6.586000  
     268A      6.586001   269A      6.744874   270A      6.807055  
     271A      6.807055   272A      7.152292   273A      7.250708  
     274A      7.250709   275A      7.529044   276A      7.839255  
     277A      7.864215   278A      7.864215   279A      8.046173  
     280A      8.046173   281A      8.051315   282A      8.189250  
     283A      8.191523   284A      8.191524   285A      8.346402  
     286A      8.347351   287A      8.347352   288A      8.446158  
     289A      8.446159   290A      8.450631   291A      8.934810  
     292A      8.934811   293A      8.968722   294A      9.090204  
     295A      9.090205   296A      9.104655   297A      9.852622  
     298A      9.852622   299A      9.879255   300A     10.010873  
     301A     10.010873   302A     10.023861   303A     10.213711  
     304A     10.213711   305A     10.225265   306A     10.501954  
     307A     10.516077   308A     10.516077   309A     11.394289  
     310A     11.394291   311A     11.404981   312A     11.861758  
     313A     11.863341   314A     11.863341   315A     12.277854  
     316A     12.277855   317A     12.314787   318A     13.742593  
     319A     13.742594   320A     13.757809   321A     14.098319  
     322A     14.098320   323A     14.149585   324A     65.963362  
     325A     65.963374   326A     66.443925  

    Final Occupation by Irrep:
              A 
    DOCC [     9 ]
    NA   [     9 ]
    NB   [     9 ]

  @DF-RHF Final Energy:  -459.57355159080907

   => Energetics <=

    Nuclear Repulsion Energy =              0.0000000000000000
    One-Electron Energy =                -641.1280706411915844
    Two-Electron Energy =                 181.5545190503825097
    Total Energy =                       -459.5735515908090747

Computation Completed


Properties will be evaluated at   0.000000,   0.000000,   0.000000 [a0]

Properties computed using the SCF density matrix


 Multipole Moments:

 ------------------------------------------------------------------------------------
     Multipole            Electronic (a.u.)      Nuclear  (a.u.)        Total (a.u.)
 ------------------------------------------------------------------------------------

 L = 1.  Multiply by 2.5417464519 to convert [e a0] to [Debye]
 Dipole X            :          0.0000000            0.0000000            0.0000000
 Dipole Y            :         -0.0000000            0.0000000           -0.0000000
 Dipole Z            :         -0.0000000            0.0000000           -0.0000000
 Magnitude           :                                                    0.0000000

 ------------------------------------------------------------------------------------

*** tstop() called on moses-razer at Tue Jan  2 00:24:48 2024
Module time:
	user time   =      12.48 seconds =       0.21 minutes
	system time =       0.52 seconds =       0.01 minutes
	total time  =          2 seconds =       0.03 minutes
Total time:
	user time   =      35.49 seconds =       0.59 minutes
	system time =       2.03 seconds =       0.03 minutes
	total time  =          7 seconds =       0.12 minutes

  //>>>>>>>>>>>>>>>>>>>>>>>>>>>>>>>>>>>//
  //            Monomer B HF           //
  //<<<<<<<<<<<<<<<<<<<<<<<<<<<<<<<<<<<//

   => Libint2 <=

    Primary   basis highest AM E, G, H:  5, 4, 3
    Auxiliary basis highest AM E, G, H:  6, 5, 4
    Onebody   basis highest AM E, G, H:  6, 5, 4
    Solid Harmonics ordering:            gaussian

*** tstart() called on moses-razer
*** at Tue Jan  2 00:24:48 2024

   => Loading Basis Set <=

    Name: AUG-CC-PVTZ
    Role: ORBITAL
    Keyword: BASIS
    atoms 1              entry CL         line   988 file /home/kchung25/anaconda3/envs/p415env/share/psi4/basis/aug-cc-pvtz.gbs 
    atoms 2, 5, 8        entry O          line   331 file /home/kchung25/anaconda3/envs/p415env/share/psi4/basis/aug-cc-pvtz.gbs 
    atoms 3-4, 6-7, 9-10 entry H          line    40 file /home/kchung25/anaconda3/envs/p415env/share/psi4/basis/aug-cc-pvtz.gbs 


         ---------------------------------------------------------
                                   SCF
               by Justin Turney, Rob Parrish, Andy Simmonett
                          and Daniel G. A. Smith
                              RHF Reference
                        6 Threads,  57220 MiB Core
         ---------------------------------------------------------

  ==> Geometry <==

    Molecular point group: c1
    Full point group: Cs

    Geometry (in Angstrom), charge = 0, multiplicity = 1:

       Center              X                  Y                   Z               Mass       
    ------------   -----------------  -----------------  -----------------  -----------------
      Gh(CL)          0.000000000000     0.000000000000     0.000000000000    34.968852682000
         O            3.130045000000    -0.039116000000     0.000000000000    15.994914619570
         H            2.155226000000    -0.129176000000     0.000000000000     1.007825032230
         H            3.237770000000     0.913004000000     0.000000000000     1.007825032230
         O           -1.531147000000     2.730256000000     0.000000000000    15.994914619570
         H           -0.965743000000     1.931069000000     0.000000000000     1.007825032230
         H           -2.409570000000     2.347489000000     0.000000000000     1.007825032230
         O           -1.598898000000    -2.691140000000     0.000000000000    15.994914619570
         H           -1.189483000000    -1.801893000000     0.000000000000     1.007825032230
         H           -0.828200000000    -3.260493000000     0.000000000000     1.007825032230

  Running in c1 symmetry.

  Rotational constants: A =      0.06502  B =      0.06502  C =      0.03251 [cm^-1]
  Rotational constants: A =   1949.39296  B =   1949.39234  C =    974.69632 [MHz]
  Nuclear repulsion =   57.503751957870435

  Charge       = 0
  Multiplicity = 1
  Electrons    = 30
  Nalpha       = 15
  Nbeta        = 15

  ==> Algorithm <==

  SCF Algorithm Type is DF.
  DIIS enabled.
  MOM disabled.
  Fractional occupation disabled.
  Guess Type is SAD.
  Energy threshold   = 1.00e-08
  Density threshold  = 1.00e-08
  Integral threshold = 1.00e-12

  ==> Primary Basis <==

  Basis Set: AUG-CC-PVTZ
    Blend: AUG-CC-PVTZ
    Number of shells: 112
    Number of basis functions: 326
    Number of Cartesian functions: 374
    Spherical Harmonics?: true
    Max angular momentum: 3

   => Loading Basis Set <=

    Name: (AUG-CC-PVTZ AUX)
    Role: JKFIT
    Keyword: DF_BASIS_SCF
    atoms 1              entry CL         line   816 file /home/kchung25/anaconda3/envs/p415env/share/psi4/basis/aug-cc-pvtz-jkfit.gbs 
    atoms 2, 5, 8        entry O          line   286 file /home/kchung25/anaconda3/envs/p415env/share/psi4/basis/aug-cc-pvtz-jkfit.gbs 
    atoms 3-4, 6-7, 9-10 entry H          line    70 file /home/kchung25/anaconda3/envs/p415env/share/psi4/basis/aug-cc-pvtz-jkfit.gbs 

  ==> Integral Setup <==

  ==> DiskDFJK: Density-Fitted J/K Matrices <==

    J tasked:                  Yes
    K tasked:                  Yes
    wK tasked:                  No
    OpenMP threads:              6
    Integrals threads:           6
    Memory [MiB]:            42915
    Algorithm:                Core
    Integral Cache:           LOAD
    Schwarz Cutoff:          1E-12
    Fitting Condition:       1E-10

   => Auxiliary Basis Set <=

  Basis Set: (AUG-CC-PVTZ AUX)
    Blend: AUG-CC-PVTZ-JKFIT
    Number of shells: 216
    Number of basis functions: 734
    Number of Cartesian functions: 903
    Spherical Harmonics?: true
    Max angular momentum: 4

  Minimum eigenvalue in the overlap matrix is 2.1779978123E-04.
  Reciprocal condition number of the overlap matrix is 2.4738673851E-05.
    Using symmetric orthogonalization.

  ==> Pre-Iterations <==

  SCF Guess: Superposition of Atomic Densities via on-the-fly atomic UHF (no occupation information).

   -------------------------
    Irrep   Nso     Nmo    
   -------------------------
     A        326     326 
   -------------------------
    Total     326     326
   -------------------------

  ==> Iterations <==

                           Total Energy        Delta E     RMS |[F,P]|

   @DF-RHF iter SAD:  -226.40746873957207   -2.26407e+02   0.00000e+00 
   @DF-RHF iter   1:  -227.91764443125848   -1.51018e+00   2.49222e-03 DIIS/ADIIS
   @DF-RHF iter   2:  -228.07541588739903   -1.57771e-01   1.72678e-03 DIIS/ADIIS
   @DF-RHF iter   3:  -228.17388669644072   -9.84708e-02   1.17942e-04 DIIS/ADIIS
   @DF-RHF iter   4:  -228.17511323472684   -1.22654e-03   2.88072e-05 DIIS
   @DF-RHF iter   5:  -228.17519470099981   -8.14663e-05   6.68331e-06 DIIS
   @DF-RHF iter   6:  -228.17520152185639   -6.82086e-06   1.44362e-06 DIIS
   @DF-RHF iter   7:  -228.17520186653439   -3.44678e-07   2.52974e-07 DIIS
   @DF-RHF iter   8:  -228.17520187556238   -9.02799e-09   4.66633e-08 DIIS
   @DF-RHF iter   9:  -228.17520187580172   -2.39339e-10   1.15529e-08 DIIS
   @DF-RHF iter  10:  -228.17520187581846   -1.67404e-11   3.07869e-09 DIIS
  Energy and wave function converged.


  ==> Post-Iterations <==

    Orbital Energies [Eh]
    ---------------------

    Doubly Occupied:                                                      

       1A    -20.582093     2A    -20.582093     3A    -20.582093  
       4A     -1.361471     5A     -1.361436     6A     -1.361436  
       7A     -0.718260     8A     -0.717868     9A     -0.717868  
      10A     -0.599812    11A     -0.599285    12A     -0.599284  
      13A     -0.521768    14A     -0.521626    15A     -0.521626  

    Virtual:                                                              

      16A      0.010404    17A      0.034993    18A      0.034993  
      19A      0.053424    20A      0.068460    21A      0.068460  
      22A      0.074756    23A      0.098326    24A      0.120287  
      25A      0.120288    26A      0.156552    27A      0.156552  
      28A      0.161849    29A      0.180045    30A      0.180045  
      31A      0.180297    32A      0.183617    33A      0.187459  
      34A      0.192125    35A      0.192125    36A      0.236776  
      37A      0.236776    38A      0.252694    39A      0.252695  
      40A      0.257643    41A      0.257643    42A      0.288451  
      43A      0.295635    44A      0.299863    45A      0.300006  
      46A      0.304181    47A      0.304181    48A      0.315441  
      49A      0.315441    50A      0.321506    51A      0.339674  
      52A      0.339674    53A      0.393657    54A      0.399974  
      55A      0.399974    56A      0.437635    57A      0.449407  
      58A      0.449407    59A      0.474244    60A      0.507450  
      61A      0.536712    62A      0.536713    63A      0.537752  
      64A      0.550252    65A      0.550252    66A      0.586237  
      67A      0.586237    68A      0.616749    69A      0.651276  
      70A      0.651276    71A      0.667184    72A      0.717644  
      73A      0.718307    74A      0.718307    75A      0.720859  
      76A      0.720859    77A      0.732621    78A      0.732621  
      79A      0.734507    80A      0.734507    81A      0.736457  
      82A      0.743467    83A      0.764845    84A      0.822663  
      85A      0.822663    86A      0.864644    87A      0.864644  
      88A      0.870810    89A      0.898484    90A      0.912491  
      91A      0.912491    92A      0.917650    93A      0.917650  
      94A      0.919574    95A      0.937530    96A      0.937530  
      97A      0.940934    98A      0.944750    99A      0.966289  
     100A      0.966289   101A      0.969466   102A      0.978115  
     103A      0.978115   104A      0.985089   105A      1.001993  
     106A      1.016723   107A      1.016723   108A      1.030429  
     109A      1.068167   110A      1.068167   111A      1.104039  
     112A      1.104039   113A      1.125895   114A      1.125895  
     115A      1.135359   116A      1.135359   117A      1.154527  
     118A      1.164477   119A      1.195615   120A      1.239214  
     121A      1.239215   122A      1.248372   123A      1.275117  
     124A      1.289910   125A      1.322513   126A      1.322513  
     127A      1.323738   128A      1.323738   129A      1.369249  
     130A      1.433221   131A      1.433221   132A      1.441962  
     133A      1.441962   134A      1.540005   135A      1.541280  
     136A      1.541280   137A      1.548938   138A      1.548938  
     139A      1.556912   140A      1.599957   141A      1.599957  
     142A      1.600828   143A      1.636948   144A      1.638877  
     145A      1.638878   146A      1.663377   147A      1.663377  
     148A      1.691811   149A      1.718905   150A      1.719897  
     151A      1.789338   152A      1.789338   153A      1.811033  
     154A      1.811033   155A      1.873002   156A      1.953764  
     157A      1.953765   158A      1.995198   159A      2.038048  
     160A      2.038049   161A      2.082319   162A      2.105688  
     163A      2.105688   164A      2.225565   165A      2.269410  
     166A      2.278997   167A      2.278997   168A      2.390815  
     169A      2.396035   170A      2.409147   171A      2.409147  
     172A      2.413514   173A      2.413515   174A      2.451947  
     175A      2.465155   176A      2.465156   177A      2.484231  
     178A      2.484231   179A      2.487933   180A      2.502550  
     181A      2.502550   182A      2.560051   183A      2.565316  
     184A      2.565316   185A      2.617535   186A      2.683109  
     187A      2.691999   188A      2.691999   189A      2.723323  
     190A      2.723323   191A      2.726708   192A      2.748416  
     193A      2.748417   194A      2.771662   195A      2.852446  
     196A      2.852446   197A      2.876206   198A      2.921336  
     199A      2.921336   200A      2.936449   201A      2.943939  
     202A      3.013871   203A      3.013871   204A      3.700003  
     205A      3.719020   206A      3.719021   207A      3.884607  
     208A      3.884608   209A      3.905717   210A      3.916524  
     211A      4.002210   212A      4.002210   213A      4.013266  
     214A      4.019513   215A      4.019513   216A      4.033102  
     217A      4.099879   218A      4.099879   219A      4.147271  
     220A      4.147272   221A      4.149430   222A      4.182281  
     223A      4.182282   224A      4.183798   225A      4.207789  
     226A      4.252320   227A      4.256351   228A      4.272024  
     229A      4.272024   230A      4.275883   231A      4.275884  
     232A      4.334701   233A      4.376712   234A      4.376712  
     235A      4.378502   236A      4.389509   237A      4.389510  
     238A      4.416021   239A      4.416021   240A      4.433095  
     241A      4.433096   242A      4.439068   243A      4.555156  
     244A      4.607668   245A      4.607668   246A      4.641088  
     247A      4.697097   248A      4.766178   249A      4.766178  
     250A      4.766925   251A      4.766925   252A      4.776774  
     253A      4.848516   254A      4.848516   255A      4.896365  
     256A      5.091083   257A      5.091084   258A      5.115644  
     259A      5.127337   260A      5.127338   261A      5.224125  
     262A      5.230299   263A      5.230299   264A      5.246976  
     265A      5.291000   266A      5.291000   267A      5.313473  
     268A      5.381061   269A      5.381061   270A      5.464909  
     271A      5.506400   272A      5.514649   273A      5.514650  
     274A      5.675229   275A      5.675230   276A      5.840956  
     277A      6.215863   278A      6.236469   279A      6.236470  
     280A      6.531614   281A      6.535057   282A      6.535057  
     283A      6.708645   284A      6.736458   285A      6.736458  
     286A      6.947112   287A      6.959723   288A      6.959724  
     289A      7.113145   290A      7.115692   291A      7.115692  
     292A      7.261407   293A      7.261408   294A      7.275091  
     295A      7.282335   296A      7.290220   297A      7.290221  
     298A      7.304644   299A      7.304644   300A      7.307683  
     301A      7.380415   302A      7.389776   303A      7.389777  
     304A      7.431525   305A      7.431526   306A      7.443191  
     307A      7.643637   308A      7.643638   309A      7.674509  
     310A      7.928822   311A      7.938158   312A      7.938159  
     313A      7.975425   314A      7.975425   315A      7.987705  
     316A      8.810747   317A      8.810748   318A      8.827701  
     319A     15.369819   320A     16.254139   321A     16.254145  
     322A     16.705592   323A     27.723614   324A     28.371798  
     325A     28.371798   326A    160.873991  

    Final Occupation by Irrep:
              A 
    DOCC [    15 ]
    NA   [    15 ]
    NB   [    15 ]

  @DF-RHF Final Energy:  -228.17520187581846

   => Energetics <=

    Nuclear Repulsion Energy =             57.5037519578704348
    One-Electron Energy =                -428.6618683683989275
    Two-Electron Energy =                 142.9829145347100052
    Total Energy =                       -228.1752018758184590

Computation Completed


Properties will be evaluated at   0.000000,   0.000000,   0.000000 [a0]

Properties computed using the SCF density matrix


 Multipole Moments:

 ------------------------------------------------------------------------------------
     Multipole            Electronic (a.u.)      Nuclear  (a.u.)        Total (a.u.)
 ------------------------------------------------------------------------------------

 L = 1.  Multiply by 2.5417464519 to convert [e a0] to [Debye]
 Dipole X            :          0.0000001           -0.0000000            0.0000001
 Dipole Y            :          0.0000000           -0.0000000            0.0000000
 Dipole Z            :          0.0000000            0.0000000            0.0000000
 Magnitude           :                                                    0.0000001

 ------------------------------------------------------------------------------------

*** tstop() called on moses-razer at Tue Jan  2 00:24:51 2024
Module time:
	user time   =      14.86 seconds =       0.25 minutes
	system time =       0.55 seconds =       0.01 minutes
	total time  =          3 seconds =       0.05 minutes
Total time:
	user time   =      50.38 seconds =       0.84 minutes
	system time =       2.58 seconds =       0.04 minutes
	total time  =         10 seconds =       0.17 minutes
  Constructing Basis Sets for SAPT...

   => Loading Basis Set <=

    Name: (AUG-CC-PVTZ AUX)
    Role: RIFIT
    Keyword: DF_BASIS_SAPT
    atoms 1              entry CL         line   742 file /home/kchung25/anaconda3/envs/p415env/share/psi4/basis/aug-cc-pvtz-ri.gbs 
    atoms 2, 5, 8        entry O          line   264 file /home/kchung25/anaconda3/envs/p415env/share/psi4/basis/aug-cc-pvtz-ri.gbs 
    atoms 3-4, 6-7, 9-10 entry H          line    30 file /home/kchung25/anaconda3/envs/p415env/share/psi4/basis/aug-cc-pvtz-ri.gbs 

   => Loading Basis Set <=

    Name: (AUG-CC-PVTZ AUX)
    Role: JKFIT
    Keyword: DF_BASIS_ELST
    atoms 1              entry CL         line   816 file /home/kchung25/anaconda3/envs/p415env/share/psi4/basis/aug-cc-pvtz-jkfit.gbs 
    atoms 2, 5, 8        entry O          line   286 file /home/kchung25/anaconda3/envs/p415env/share/psi4/basis/aug-cc-pvtz-jkfit.gbs 
    atoms 3-4, 6-7, 9-10 entry H          line    70 file /home/kchung25/anaconda3/envs/p415env/share/psi4/basis/aug-cc-pvtz-jkfit.gbs 


  //>>>>>>>>>>>>>>>>>>>>>>>>>>>>>>>>>>>//
  //               SAPT2+              //
  //<<<<<<<<<<<<<<<<<<<<<<<<<<<<<<<<<<<//


*** tstart() called on moses-razer
*** at Tue Jan  2 00:24:51 2024

        SAPT2+  
    Ed Hohenstein
     6 June 2009

      Orbital Information
  --------------------------
    NSO        =       326
    NMO        =       326
    NRI        =       741
    NOCC A     =         9
    NOCC B     =        15
    FOCC A     =         0
    FOCC B     =         0
    NVIR A     =       317
    NVIR B     =       311

    Estimated memory usage: 1138.3 MB

    Natural Orbital Cutoff:   1.000E-06
    Disp(T3) Truncation:            Yes
    CCD (vv|vv) Truncation:         Yes
    MBPT T2 Truncation:             Yes

    Monomer A: 235 virtual orbitals dropped
    Monomer B: 74 virtual orbitals dropped

    Elst10,r            =    -0.087567757110 [Eh]
    Exch10 (S^2)        =     0.061643084345 [Eh]
    Exch10              =     0.062168209244 [Eh]
    Ind20,r (A<-B)      =    -0.030204942144 [Eh]
    Ind20,r (B<-A)      =    -0.017560012119 [Eh]
    Ind20,r             =    -0.047764954264 [Eh]
    Exch-Ind20,r (A<-B) =     0.021663056357 [Eh]
    Exch-Ind20,r (B<-A) =     0.006190123195 [Eh]
    Exch-Ind20,r        =     0.027853179552 [Eh]
    Disp20              =    -0.024437882460 [Eh]
    Disp20 (NO)         =    -0.021292539314 [Eh]
    Exch-Disp20         =     0.006051057747 [Eh]
    Elst12,r            =    -0.000056231780 [Eh]
    Exch11              =     0.003031736435 [Eh]
    Exch12              =     0.004915665074 [Eh]
    Ind22               =    -0.006002766755 [Eh]
    Disp21              =     0.001387854743 [Eh]
    Disp22 (SDQ)        =     0.000089116874 [Eh]

    (i =   1 of  15)          2 seconds
    (i =   2 of  15)          5 seconds
    (i =   3 of  15)          7 seconds
    (i =   4 of  15)         10 seconds
    (i =   5 of  15)         13 seconds
    (i =   6 of  15)         15 seconds
    (i =   7 of  15)         18 seconds
    (i =   8 of  15)         20 seconds
    (i =   9 of  15)         23 seconds
    (i =  10 of  15)         25 seconds
    (i =  11 of  15)         28 seconds
    (i =  12 of  15)         31 seconds
    (i =  13 of  15)         33 seconds
    (i =  14 of  15)         36 seconds
    (i =  15 of  15)         38 seconds

    Disp220 (T)         =    -0.001686880506 [Eh]

    (i =   1 of   9)         22 seconds
    (i =   2 of   9)         44 seconds
    (i =   3 of   9)         66 seconds
    (i =   4 of   9)         88 seconds
    (i =   5 of   9)        110 seconds
    (i =   6 of   9)        132 seconds
    (i =   7 of   9)        154 seconds
    (i =   8 of   9)        177 seconds
    (i =   9 of   9)        199 seconds

    Disp202 (T)         =    -0.002117556381 [Eh]

    Disp22 (T)          =    -0.003804436887 [Eh]

    Est. Disp220 (T)    =    -0.001936067226 [Eh]
    Est. Disp202 (T)    =    -0.002430362728 [Eh]

    Est. Disp22 (T)     =    -0.004366429954 [Eh]

    SAPT Results 
  --------------------------------------------------------------------------------------------------------
    Electrostatics                -87.62398889 [mEh]     -54.98488316 [kcal/mol]    -230.05675114 [kJ/mol]
      Elst10,r                    -87.56775711 [mEh]     -54.94959718 [kcal/mol]    -229.90911462 [kJ/mol]
      Elst12,r                     -0.05623178 [mEh]      -0.03528597 [kcal/mol]      -0.14763652 [kJ/mol]

    Exchange                       70.11561075 [mEh]      43.99821001 [kcal/mol]     184.08851067 [kJ/mol]
      Exch10                       62.16820924 [mEh]      39.01114027 [kcal/mol]     163.22261088 [kJ/mol]
      Exch10(S^2)                  61.64308434 [mEh]      38.68161942 [kcal/mol]     161.84389565 [kJ/mol]
      Exch11(S^2)                   3.03173644 [mEh]       1.90244334 [kcal/mol]       7.95982291 [kJ/mol]
      Exch12(S^2)                   4.91566507 [mEh]       3.08462640 [kcal/mol]      12.90607687 [kJ/mol]

    Induction                     -30.41330831 [mEh]     -19.08463910 [kcal/mol]     -79.85012997 [kJ/mol]
      Ind20,r                     -47.76495426 [mEh]     -29.97296132 [kcal/mol]    -125.40687014 [kJ/mol]
      Ind22                        -6.00276675 [mEh]      -3.76679301 [kcal/mol]     -15.76026194 [kJ/mol]
      Exch-Ind20,r                 27.85317955 [mEh]      17.47813404 [kcal/mol]      73.12851284 [kJ/mol]
      Exch-Ind22                    3.50039360 [mEh]       2.19653015 [kcal/mol]       9.19028213 [kJ/mol]
      delta HF,r (2)               -7.99916045 [mEh]      -5.01954896 [kcal/mol]     -21.00179286 [kJ/mol]

    Dispersion                    -21.27628305 [mEh]     -13.35106918 [kcal/mol]     -55.86087345 [kJ/mol]
      Disp20                      -24.43788246 [mEh]     -15.33500276 [kcal/mol]     -64.16165156 [kJ/mol]
      Disp21                        1.38785474 [mEh]       0.87089200 [kcal/mol]       3.64381212 [kJ/mol]
      Disp22 (SDQ)                  0.08911687 [mEh]       0.05592168 [kcal/mol]       0.23397632 [kJ/mol]
      Disp22 (T)                   -3.80443689 [mEh]      -2.38732019 [kcal/mol]      -9.98854767 [kJ/mol]
      Est. Disp22 (T)              -4.36642995 [mEh]      -2.73997616 [kcal/mol]     -11.46406027 [kJ/mol]
      Exch-Disp20                   6.05105775 [mEh]       3.79709606 [kcal/mol]      15.88704993 [kJ/mol]

  Total HF                        -53.31048302 [mEh]     -33.45283315 [kcal/mol]    -139.96665390 [kJ/mol]
  Total SAPT0                     -71.69730774 [mEh]     -44.99073985 [kcal/mol]    -188.24125553 [kJ/mol]
  Total SAPT2                     -66.30851116 [mEh]     -41.60921895 [kcal/mol]    -174.09297207 [kJ/mol]
  Total SAPT2+                    -69.19796950 [mEh]     -43.42238143 [kcal/mol]    -181.67924389 [kJ/mol]

  Special recipe for scaled SAPT0 (see Manual):
    Electrostatics sSAPT0         -87.56775711 [mEh]     -54.94959718 [kcal/mol]    -229.90911462 [kJ/mol]
    Exchange sSAPT0                62.16820924 [mEh]      39.01114027 [kcal/mol]     163.22261088 [kJ/mol]
    Induction sSAPT0              -27.19302732 [mEh]     -17.06388226 [kcal/mol]     -71.39528338 [kJ/mol]
    Dispersion sSAPT0             -18.23086041 [mEh]     -11.44003762 [kcal/mol]     -47.86511740 [kJ/mol]
  Total sSAPT0                    -70.82343559 [mEh]     -44.44237680 [kcal/mol]    -185.94690452 [kJ/mol]
  --------------------------------------------------------------------------------------------------------

*** tstop() called on moses-razer at Tue Jan  2 00:30:15 2024
Module time:
	user time   =    1889.73 seconds =      31.50 minutes
	system time =      24.34 seconds =       0.41 minutes
	total time  =        324 seconds =       5.40 minutes
Total time:
	user time   =    1940.65 seconds =      32.34 minutes
	system time =      26.93 seconds =       0.45 minutes
	total time  =        334 seconds =       5.57 minutes

    Psi4 stopped on: Tuesday, 02 January 2024 12:30AM
    Psi4 wall time for execution: 0:05:33.81

*** Psi4 exiting successfully. Buy a developer a beer!
