
    -----------------------------------------------------------------------
          Psi4: An Open-Source Ab Initio Electronic Structure Package
                               Psi4 1.9 release

                         Git: Rev {} zzzzzzz 


    D. G. A. Smith, L. A. Burns, A. C. Simmonett, R. M. Parrish,
    M. C. Schieber, R. Galvelis, P. Kraus, H. Kruse, R. Di Remigio,
    A. Alenaizan, A. M. James, S. Lehtola, J. P. Misiewicz, M. Scheurer,
    R. A. Shaw, J. B. Schriber, Y. Xie, Z. L. Glick, D. A. Sirianni,
    J. S. O'Brien, J. M. Waldrop, A. Kumar, E. G. Hohenstein,
    B. P. Pritchard, B. R. Brooks, H. F. Schaefer III, A. Yu. Sokolov,
    K. Patkowski, A. E. DePrince III, U. Bozkaya, R. A. King,
    F. A. Evangelista, J. M. Turney, T. D. Crawford, C. D. Sherrill,
    J. Chem. Phys. 152(18) 184108 (2020). https://doi.org/10.1063/5.0006002

                            Additional Code Authors
    E. T. Seidl, C. L. Janssen, E. F. Valeev, M. L. Leininger,
    J. F. Gonthier, R. M. Richard, H. R. McAlexander, M. Saitow, X. Wang,
    P. Verma, M. H. Lechner, A. Jiang, S. Behnle, A. G. Heide,
    M. F. Herbst, and D. L. Poole

             Previous Authors, Complete List of Code Contributors,
                       and Citations for Specific Modules
    https://github.com/psi4/psi4/blob/master/codemeta.json
    https://github.com/psi4/psi4/graphs/contributors
    http://psicode.org/psi4manual/master/introduction.html#citing-psifour

    -----------------------------------------------------------------------


    Psi4 started on: Wednesday, 03 January 2024 03:27PM

    Process ID: 410460
    Host:       moses-razer
    PSIDATADIR: /home/kchung25/anaconda3/envs/psi4_19/share/psi4
    Memory:     500.0 MiB
    Threads:    6
    
  ==> Input File <==

--------------------------------------------------------------------------
MEMORY 60 GB

molecule dimer {
0 1
O      0.000000     0.000000     0.000000
H      0.359385     0.890994     0.000000
H     -0.951316     0.134261     0.000000
--
1 1
K      2.466222     0.000000     0.000000

units ang
no_reorient
no_com
symmetry c1
}

set {
basis        aug-cc-pVTZ
scf_type     df
}

energy("sapt2+")
--------------------------------------------------------------------------

  Memory set to  55.879 GiB by Python driver.

Scratch directory: /scratch/
   => Loading Basis Set <=

    Name: AUG-CC-PVTZ
    Role: ORBITAL
    Keyword: BASIS
    atoms 1   entry O          line   331 file /home/kchung25/anaconda3/envs/p415env/share/psi4/basis/aug-cc-pvtz.gbs 
    atoms 2-3 entry H          line    40 file /home/kchung25/anaconda3/envs/p415env/share/psi4/basis/aug-cc-pvtz.gbs 
    atoms 4   entry K          line  1152 file /home/kchung25/anaconda3/envs/p415env/share/psi4/basis/aug-cc-pvtz.gbs 

   => Loading Basis Set <=

    Name: AUG-CC-PVTZ
    Role: ORBITAL
    Keyword: BASIS
    atoms 1   entry O          line   331 file /home/kchung25/anaconda3/envs/p415env/share/psi4/basis/aug-cc-pvtz.gbs 
    atoms 2-3 entry H          line    40 file /home/kchung25/anaconda3/envs/p415env/share/psi4/basis/aug-cc-pvtz.gbs 
    atoms 4   entry K          line  1152 file /home/kchung25/anaconda3/envs/p415env/share/psi4/basis/aug-cc-pvtz.gbs 


  //>>>>>>>>>>>>>>>>>>>>>>>>>>>>>>>>>>>//
  //              Dimer HF             //
  //<<<<<<<<<<<<<<<<<<<<<<<<<<<<<<<<<<<//

   => Libint2 <=

    Primary   basis highest AM E, G, H:  5, 4, 3
    Auxiliary basis highest AM E, G, H:  6, 5, 4
    Onebody   basis highest AM E, G, H:  6, 5, 4
    Solid Harmonics ordering:            gaussian

*** tstart() called on moses-razer
*** at Wed Jan  3 15:27:06 2024

   => Loading Basis Set <=

    Name: AUG-CC-PVTZ
    Role: ORBITAL
    Keyword: BASIS
    atoms 1   entry O          line   331 file /home/kchung25/anaconda3/envs/p415env/share/psi4/basis/aug-cc-pvtz.gbs 
    atoms 2-3 entry H          line    40 file /home/kchung25/anaconda3/envs/p415env/share/psi4/basis/aug-cc-pvtz.gbs 
    atoms 4   entry K          line  1152 file /home/kchung25/anaconda3/envs/p415env/share/psi4/basis/aug-cc-pvtz.gbs 


         ---------------------------------------------------------
                                   SCF
               by Justin Turney, Rob Parrish, Andy Simmonett
                          and Daniel G. A. Smith
                              RHF Reference
                        6 Threads,  57220 MiB Core
         ---------------------------------------------------------

  ==> Geometry <==

    Molecular point group: c1
    Full point group: Cs

    Geometry (in Angstrom), charge = 1, multiplicity = 1:

       Center              X                  Y                   Z               Mass       
    ------------   -----------------  -----------------  -----------------  -----------------
         O            0.000000000000     0.000000000000     0.000000000000    15.994914619570
         H            0.359385000000     0.890994000000     0.000000000000     1.007825032230
         H           -0.951316000000     0.134261000000     0.000000000000     1.007825032230
         K            2.466222000000     0.000000000000     0.000000000000    38.963706486400

  Running in c1 symmetry.

  Rotational constants: A =     20.60606  B =      0.07082  C =      0.07058 [cm^-1]
  Rotational constants: A = 617754.18245  B =   2123.17848  C =   2115.90625 [MHz]
  Nuclear repulsion =   49.112163424159114

  Charge       = 1
  Multiplicity = 1
  Electrons    = 28
  Nalpha       = 14
  Nbeta        = 14

  ==> Algorithm <==

  SCF Algorithm Type is DF.
  DIIS enabled.
  MOM disabled.
  Fractional occupation disabled.
  Guess Type is SAD.
  Energy threshold   = 1.00e-08
  Density threshold  = 1.00e-08
  Integral threshold = 1.00e-12

  ==> Primary Basis <==

  Basis Set: AUG-CC-PVTZ
    Blend: AUG-CC-PVTZ
    Number of shells: 51
    Number of basis functions: 151
    Number of Cartesian functions: 174
    Spherical Harmonics?: true
    Max angular momentum: 3

   => Loading Basis Set <=

    Name: (AUG-CC-PVTZ AUX)
    Role: JKFIT
    Keyword: DF_BASIS_SCF
    atoms 1   entry O          line   286 file /home/kchung25/anaconda3/envs/p415env/share/psi4/basis/aug-cc-pvtz-jkfit.gbs 
    atoms 2-3 entry H          line    70 file /home/kchung25/anaconda3/envs/p415env/share/psi4/basis/aug-cc-pvtz-jkfit.gbs 
    atoms 4   entry K          line  1152 file /home/kchung25/anaconda3/envs/p415env/share/psi4/basis/def2-universal-jkfit.gbs 

  ==> Integral Setup <==

  ==> DiskDFJK: Density-Fitted J/K Matrices <==

    J tasked:                  Yes
    K tasked:                  Yes
    wK tasked:                  No
    OpenMP threads:              6
    Integrals threads:           6
    Memory [MiB]:            42915
    Algorithm:                Core
    Integral Cache:           SAVE
    Schwarz Cutoff:          1E-12
    Fitting Condition:       1E-10

   => Auxiliary Basis Set <=

  Basis Set: (AUG-CC-PVTZ AUX)
    Blend: AUG-CC-PVTZ-JKFIT + DEF2-UNIVERSAL-JKFIT
    Number of shells: 102
    Number of basis functions: 356
    Number of Cartesian functions: 444
    Spherical Harmonics?: true
    Max angular momentum: 4

  Minimum eigenvalue in the overlap matrix is 1.8126430523E-04.
  Reciprocal condition number of the overlap matrix is 2.0304643090E-05.
    Using symmetric orthogonalization.

  ==> Pre-Iterations <==

  SCF Guess: Superposition of Atomic Densities via on-the-fly atomic UHF (no occupation information).

   -------------------------
    Irrep   Nso     Nmo    
   -------------------------
     A        151     151 
   -------------------------
    Total     151     151
   -------------------------

  ==> Iterations <==

                           Total Energy        Delta E     RMS |[F,P]|

   @DF-RHF iter SAD:  -674.60844631960526   -6.74608e+02   0.00000e+00 
   @DF-RHF iter   1:  -674.99482621609366   -3.86380e-01   3.18847e-03 ADIIS/DIIS
   @DF-RHF iter   2:  -675.05076242174653   -5.59362e-02   2.11643e-03 ADIIS/DIIS
   @DF-RHF iter   3:  -675.08213847334105   -3.13761e-02   1.48748e-04 ADIIS/DIIS
   @DF-RHF iter   4:  -675.08254063310892   -4.02160e-04   3.48393e-05 DIIS
   @DF-RHF iter   5:  -675.08256520018745   -2.45671e-05   8.30383e-06 DIIS
   @DF-RHF iter   6:  -675.08256729775633   -2.09757e-06   1.78616e-06 DIIS
   @DF-RHF iter   7:  -675.08256739910928   -1.01353e-07   4.06863e-07 DIIS
   @DF-RHF iter   8:  -675.08256740361105   -4.50177e-09   9.49192e-08 DIIS
   @DF-RHF iter   9:  -675.08256740383388   -2.22826e-10   1.61421e-08 DIIS
   @DF-RHF iter  10:  -675.08256740384059   -6.70752e-12   4.75524e-09 DIIS
  Energy and wave function converged.


  ==> Post-Iterations <==

    Orbital Energies [Eh]
    ---------------------

    Doubly Occupied:                                                      

       1A   -133.722753     2A    -20.766754     3A    -14.679616  
       4A    -11.709663     5A    -11.709543     6A    -11.709462  
       7A     -1.939281     8A     -1.557608     9A     -1.151409  
      10A     -1.145893    11A     -1.145461    12A     -0.916647  
      13A     -0.793166    14A     -0.713673  

    Virtual:                                                              

      15A     -0.133488    16A     -0.093265    17A     -0.086917  
      18A     -0.082950    19A     -0.060569    20A     -0.055977  
      21A     -0.055022    22A     -0.054271    23A     -0.052186  
      24A     -0.051603    25A     -0.044782    26A     -0.042864  
      27A     -0.040806    28A     -0.029954    29A     -0.029410  
      30A     -0.028789    31A     -0.026524    32A     -0.026255  
      33A     -0.017192    34A     -0.015019    35A     -0.012526  
      36A     -0.012186    37A     -0.006833    38A      0.002947  
      39A      0.015112    40A      0.015775    41A      0.018036  
      42A      0.021499    43A      0.022478    44A      0.023273  
      45A      0.027444    46A      0.029461    47A      0.037759  
      48A      0.045329    49A      0.057699    50A      0.076176  
      51A      0.092893    52A      0.100900    53A      0.108422  
      54A      0.112165    55A      0.120582    56A      0.127434  
      57A      0.142236    58A      0.183718    59A      0.198719  
      60A      0.201267    61A      0.213206    62A      0.227231  
      63A      0.235836    64A      0.237614    65A      0.248285  
      66A      0.250072    67A      0.251399    68A      0.258635  
      69A      0.258934    70A      0.273726    71A      0.278551  
      72A      0.324278    73A      0.329603    74A      0.329656  
      75A      0.363763    76A      0.375533    77A      0.396390  
      78A      0.520312    79A      0.590649    80A      0.613310  
      81A      0.626866    82A      0.636655    83A      0.727987  
      84A      0.747029    85A      0.785050    86A      0.816264  
      87A      0.821968    88A      0.845175    89A      0.886844  
      90A      0.892888    91A      0.926006    92A      0.935465  
      93A      0.963734    94A      1.024976    95A      1.038603  
      96A      1.077420    97A      1.136805    98A      1.174874  
      99A      1.354129   100A      1.439885   101A      1.455314  
     102A      1.661067   103A      1.686311   104A      1.817236  
     105A      1.935639   106A      2.082458   107A      2.122175  
     108A      2.204961   109A      2.246907   110A      2.268146  
     111A      2.300302   112A      2.331923   113A      2.534288  
     114A      2.553681   115A      2.604028   116A      2.654928  
     117A      2.706465   118A      3.515238   119A      3.612585  
     120A      3.849488   121A      3.933329   122A      3.993250  
     123A      4.096568   124A      4.100465   125A      4.196888  
     126A      4.220976   127A      4.245038   128A      4.344556  
     129A      4.581594   130A      4.665029   131A      4.951930  
     132A      4.959859   133A      5.068127   134A      5.142981  
     135A      5.327979   136A      5.507247   137A      6.007281  
     138A      6.359748   139A      6.530586   140A      6.722904  
     141A      6.944583   142A      7.089819   143A      7.107617  
     144A      7.120722   145A      7.175472   146A      7.182416  
     147A      7.364592   148A      7.704191   149A      7.740534  
     150A      8.621640   151A     15.667319  

    Final Occupation by Irrep:
              A 
    DOCC [    14 ]
    NA   [    14 ]
    NB   [    14 ]

  @DF-RHF Final Energy:  -675.08256740384059

   => Energetics <=

    Nuclear Repulsion Energy =             49.1121634241591138
    One-Electron Energy =               -1021.0676058272840692
    Two-Electron Energy =                 296.8728749992843632
    Total Energy =                       -675.0825674038405850

Computation Completed


Properties will be evaluated at   0.000000,   0.000000,   0.000000 [a0]

Properties computed using the SCF density matrix


 Multipole Moments:

 ------------------------------------------------------------------------------------
     Multipole            Electronic (a.u.)      Nuclear  (a.u.)        Total (a.u.)
 ------------------------------------------------------------------------------------

 L = 1.  Multiply by 2.5417464519 to convert [e a0] to [Debye]
 Dipole X            :        -83.5257214           87.4306113            3.9048898
 Dipole Y            :         -1.2914031            1.9374512            0.6460481
 Dipole Z            :         -0.0000000            0.0000000           -0.0000000
 Magnitude           :                                                    3.9579720

 ------------------------------------------------------------------------------------

*** tstop() called on moses-razer at Wed Jan  3 15:27:11 2024
Module time:
	user time   =      10.78 seconds =       0.18 minutes
	system time =       2.20 seconds =       0.04 minutes
	total time  =          5 seconds =       0.08 minutes
Total time:
	user time   =      10.78 seconds =       0.18 minutes
	system time =       2.20 seconds =       0.04 minutes
	total time  =          5 seconds =       0.08 minutes

  //>>>>>>>>>>>>>>>>>>>>>>>>>>>>>>>>>>>//
  //            Monomer A HF           //
  //<<<<<<<<<<<<<<<<<<<<<<<<<<<<<<<<<<<//

   => Libint2 <=

    Primary   basis highest AM E, G, H:  5, 4, 3
    Auxiliary basis highest AM E, G, H:  6, 5, 4
    Onebody   basis highest AM E, G, H:  6, 5, 4
    Solid Harmonics ordering:            gaussian

*** tstart() called on moses-razer
*** at Wed Jan  3 15:27:11 2024

   => Loading Basis Set <=

    Name: AUG-CC-PVTZ
    Role: ORBITAL
    Keyword: BASIS
    atoms 1   entry O          line   331 file /home/kchung25/anaconda3/envs/p415env/share/psi4/basis/aug-cc-pvtz.gbs 
    atoms 2-3 entry H          line    40 file /home/kchung25/anaconda3/envs/p415env/share/psi4/basis/aug-cc-pvtz.gbs 
    atoms 4   entry K          line  1152 file /home/kchung25/anaconda3/envs/p415env/share/psi4/basis/aug-cc-pvtz.gbs 


         ---------------------------------------------------------
                                   SCF
               by Justin Turney, Rob Parrish, Andy Simmonett
                          and Daniel G. A. Smith
                              RHF Reference
                        6 Threads,  57220 MiB Core
         ---------------------------------------------------------

  ==> Geometry <==

    Molecular point group: c1
    Full point group: Cs

    Geometry (in Angstrom), charge = 0, multiplicity = 1:

       Center              X                  Y                   Z               Mass       
    ------------   -----------------  -----------------  -----------------  -----------------
         O            0.000000000000     0.000000000000     0.000000000000    15.994914619570
         H            0.359385000000     0.890994000000     0.000000000000     1.007825032230
         H           -0.951316000000     0.134261000000     0.000000000000     1.007825032230
      Gh(K)           2.466222000000     0.000000000000     0.000000000000    38.963706486400

  Running in c1 symmetry.

  Rotational constants: A =     20.60606  B =      0.07082  C =      0.07058 [cm^-1]
  Rotational constants: A = 617754.18245  B =   2123.17848  C =   2115.90625 [MHz]
  Nuclear repulsion =    9.162440837425921

  Charge       = 0
  Multiplicity = 1
  Electrons    = 10
  Nalpha       = 5
  Nbeta        = 5

  ==> Algorithm <==

  SCF Algorithm Type is DF.
  DIIS enabled.
  MOM disabled.
  Fractional occupation disabled.
  Guess Type is SAD.
  Energy threshold   = 1.00e-08
  Density threshold  = 1.00e-08
  Integral threshold = 1.00e-12

  ==> Primary Basis <==

  Basis Set: AUG-CC-PVTZ
    Blend: AUG-CC-PVTZ
    Number of shells: 51
    Number of basis functions: 151
    Number of Cartesian functions: 174
    Spherical Harmonics?: true
    Max angular momentum: 3

   => Loading Basis Set <=

    Name: (AUG-CC-PVTZ AUX)
    Role: JKFIT
    Keyword: DF_BASIS_SCF
    atoms 1   entry O          line   286 file /home/kchung25/anaconda3/envs/p415env/share/psi4/basis/aug-cc-pvtz-jkfit.gbs 
    atoms 2-3 entry H          line    70 file /home/kchung25/anaconda3/envs/p415env/share/psi4/basis/aug-cc-pvtz-jkfit.gbs 
    atoms 4   entry K          line  1152 file /home/kchung25/anaconda3/envs/p415env/share/psi4/basis/def2-universal-jkfit.gbs 

  ==> Integral Setup <==

  ==> DiskDFJK: Density-Fitted J/K Matrices <==

    J tasked:                  Yes
    K tasked:                  Yes
    wK tasked:                  No
    OpenMP threads:              6
    Integrals threads:           6
    Memory [MiB]:            42915
    Algorithm:                Core
    Integral Cache:           LOAD
    Schwarz Cutoff:          1E-12
    Fitting Condition:       1E-10

   => Auxiliary Basis Set <=

  Basis Set: (AUG-CC-PVTZ AUX)
    Blend: AUG-CC-PVTZ-JKFIT + DEF2-UNIVERSAL-JKFIT
    Number of shells: 102
    Number of basis functions: 356
    Number of Cartesian functions: 444
    Spherical Harmonics?: true
    Max angular momentum: 4

  Minimum eigenvalue in the overlap matrix is 1.8126430523E-04.
  Reciprocal condition number of the overlap matrix is 2.0304643090E-05.
    Using symmetric orthogonalization.

  ==> Pre-Iterations <==

  SCF Guess: Superposition of Atomic Densities via on-the-fly atomic UHF (no occupation information).

   -------------------------
    Irrep   Nso     Nmo    
   -------------------------
     A        151     151 
   -------------------------
    Total     151     151
   -------------------------

  ==> Iterations <==

                           Total Energy        Delta E     RMS |[F,P]|

   @DF-RHF iter SAD:   -75.47462021514033   -7.54746e+01   0.00000e+00 
   @DF-RHF iter   1:   -75.97586914497569   -5.01249e-01   3.10196e-03 ADIIS/DIIS
   @DF-RHF iter   2:   -76.02834016429527   -5.24710e-02   2.11851e-03 ADIIS/DIIS
   @DF-RHF iter   3:   -76.05990913195882   -3.15690e-02   1.44973e-04 ADIIS/DIIS
   @DF-RHF iter   4:   -76.06030271588139   -3.93584e-04   3.44169e-05 DIIS
   @DF-RHF iter   5:   -76.06032722502106   -2.45091e-05   7.86213e-06 DIIS
   @DF-RHF iter   6:   -76.06032924261258   -2.01759e-06   1.71942e-06 DIIS
   @DF-RHF iter   7:   -76.06032934866482   -1.06052e-07   3.08542e-07 DIIS
   @DF-RHF iter   8:   -76.06032935165226   -2.98743e-09   5.13473e-08 DIIS
   @DF-RHF iter   9:   -76.06032935171744   -6.51852e-11   1.26906e-08 DIIS
   @DF-RHF iter  10:   -76.06032935172165   -4.20641e-12   1.86646e-09 DIIS
  Energy and wave function converged.


  ==> Post-Iterations <==

    Orbital Energies [Eh]
    ---------------------

    Doubly Occupied:                                                      

       1A    -20.568069     2A     -1.352210     3A     -0.714797  
       4A     -0.585405     5A     -0.510235  

    Virtual:                                                              

       6A      0.006647     7A      0.009491     8A      0.010257  
       9A      0.011332    10A      0.018337    11A      0.018787  
      12A      0.019053    13A      0.019655    14A      0.019682  
      15A      0.032580    16A      0.035815    17A      0.037954  
      18A      0.041720    19A      0.060848    20A      0.063997  
      21A      0.065332    22A      0.067387    23A      0.067818  
      24A      0.075543    25A      0.087909    26A      0.098821  
      27A      0.107512    28A      0.112642    29A      0.122733  
      30A      0.140659    31A      0.142629    32A      0.142861  
      33A      0.146924    34A      0.147139    35A      0.166059  
      36A      0.168609    37A      0.195881    38A      0.209710  
      39A      0.216276    40A      0.225778    41A      0.232766  
      42A      0.233078    43A      0.257101    44A      0.262990  
      45A      0.264284    46A      0.280485    47A      0.284255  
      48A      0.296039    49A      0.363973    50A      0.368566  
      51A      0.385259    52A      0.400028    53A      0.409827  
      54A      0.428927    55A      0.463077    56A      0.463384  
      57A      0.473407    58A      0.476063    59A      0.486108  
      60A      0.502628    61A      0.510503    62A      0.514189  
      63A      0.539500    64A      0.616740    65A      0.683084  
      66A      0.746344    67A      0.766086    68A      0.788197  
      69A      0.791289    70A      0.898313    71A      0.911380  
      72A      0.946560    73A      0.975764    74A      0.995566  
      75A      1.020422    76A      1.038779    77A      1.050060  
      78A      1.069358    79A      1.120042    80A      1.132847  
      81A      1.138513    82A      1.200902    83A      1.215527  
      84A      1.294828    85A      1.510850    86A      1.591751  
      87A      1.594501    88A      1.822796    89A      1.838579  
      90A      1.856339    91A      1.930225    92A      1.943959  
      93A      1.999245    94A      2.014334    95A      2.055497  
      96A      2.147587    97A      2.250695    98A      2.270026  
      99A      2.307032   100A      2.333209   101A      2.348426  
     102A      2.434840   103A      2.471122   104A      2.483859  
     105A      2.574235   106A      2.628101   107A      2.751351  
     108A      2.785068   109A      2.814831   110A      2.911079  
     111A      2.973770   112A      3.021980   113A      3.725950  
     114A      3.832928   115A      4.053089   116A      4.136087  
     117A      4.202417   118A      4.317510   119A      4.319988  
     120A      4.399745   121A      4.438393   122A      4.443440  
     123A      4.548069   124A      4.786468   125A      4.870813  
     126A      5.153711   127A      5.160084   128A      5.276214  
     129A      5.351826   130A      5.527261   131A      5.720891  
     132A      6.209157   133A      6.570909   134A      6.736453  
     135A      6.928561   136A      7.150138   137A      7.293272  
     138A      7.316001   139A      7.327137   140A      7.380460  
     141A      7.385463   142A      7.577515   143A      7.911226  
     144A      7.948466   145A      8.825197   146A     10.287157  
     147A     15.867257   148A     30.236717   149A     30.357170  
     150A     30.862958   151A    197.816137  

    Final Occupation by Irrep:
              A 
    DOCC [     5 ]
    NA   [     5 ]
    NB   [     5 ]

  @DF-RHF Final Energy:   -76.06032935172165

   => Energetics <=

    Nuclear Repulsion Energy =              9.1624408374259207
    One-Electron Energy =                -122.9841110206965027
    Two-Electron Energy =                  37.7613408315489494
    Total Energy =                        -76.0603293517216343

Computation Completed


Properties will be evaluated at   0.000000,   0.000000,   0.000000 [a0]

Properties computed using the SCF density matrix


 Multipole Moments:

 ------------------------------------------------------------------------------------
     Multipole            Electronic (a.u.)      Nuclear  (a.u.)        Total (a.u.)
 ------------------------------------------------------------------------------------

 L = 1.  Multiply by 2.5417464519 to convert [e a0] to [Debye]
 Dipole X            :          0.7260008           -1.1185875           -0.3925867
 Dipole Y            :         -1.2574210            1.9374512            0.6800302
 Dipole Z            :          0.0000000            0.0000000            0.0000000
 Magnitude           :                                                    0.7852168

 ------------------------------------------------------------------------------------

*** tstop() called on moses-razer at Wed Jan  3 15:27:15 2024
Module time:
	user time   =       5.66 seconds =       0.09 minutes
	system time =       0.88 seconds =       0.01 minutes
	total time  =          4 seconds =       0.07 minutes
Total time:
	user time   =      16.47 seconds =       0.27 minutes
	system time =       3.08 seconds =       0.05 minutes
	total time  =          9 seconds =       0.15 minutes

  //>>>>>>>>>>>>>>>>>>>>>>>>>>>>>>>>>>>//
  //            Monomer B HF           //
  //<<<<<<<<<<<<<<<<<<<<<<<<<<<<<<<<<<<//

   => Libint2 <=

    Primary   basis highest AM E, G, H:  5, 4, 3
    Auxiliary basis highest AM E, G, H:  6, 5, 4
    Onebody   basis highest AM E, G, H:  6, 5, 4
    Solid Harmonics ordering:            gaussian

*** tstart() called on moses-razer
*** at Wed Jan  3 15:27:15 2024

   => Loading Basis Set <=

    Name: AUG-CC-PVTZ
    Role: ORBITAL
    Keyword: BASIS
    atoms 1   entry O          line   331 file /home/kchung25/anaconda3/envs/p415env/share/psi4/basis/aug-cc-pvtz.gbs 
    atoms 2-3 entry H          line    40 file /home/kchung25/anaconda3/envs/p415env/share/psi4/basis/aug-cc-pvtz.gbs 
    atoms 4   entry K          line  1152 file /home/kchung25/anaconda3/envs/p415env/share/psi4/basis/aug-cc-pvtz.gbs 


         ---------------------------------------------------------
                                   SCF
               by Justin Turney, Rob Parrish, Andy Simmonett
                          and Daniel G. A. Smith
                              RHF Reference
                        6 Threads,  57220 MiB Core
         ---------------------------------------------------------

  ==> Geometry <==

    Molecular point group: c1
    Full point group: Cs

    Geometry (in Angstrom), charge = 1, multiplicity = 1:

       Center              X                  Y                   Z               Mass       
    ------------   -----------------  -----------------  -----------------  -----------------
      Gh(O)           0.000000000000     0.000000000000     0.000000000000    15.994914619570
      Gh(H)           0.359385000000     0.890994000000     0.000000000000     1.007825032230
      Gh(H)          -0.951316000000     0.134261000000     0.000000000000     1.007825032230
         K            2.466222000000     0.000000000000     0.000000000000    38.963706486400

  Running in c1 symmetry.

  Rotational constants: A =     20.60606  B =      0.07082  C =      0.07058 [cm^-1]
  Rotational constants: A = 617754.18245  B =   2123.17848  C =   2115.90625 [MHz]
  Nuclear repulsion =    0.000000000000000

  Charge       = 1
  Multiplicity = 1
  Electrons    = 18
  Nalpha       = 9
  Nbeta        = 9

  ==> Algorithm <==

  SCF Algorithm Type is DF.
  DIIS enabled.
  MOM disabled.
  Fractional occupation disabled.
  Guess Type is SAD.
  Energy threshold   = 1.00e-08
  Density threshold  = 1.00e-08
  Integral threshold = 1.00e-12

  ==> Primary Basis <==

  Basis Set: AUG-CC-PVTZ
    Blend: AUG-CC-PVTZ
    Number of shells: 51
    Number of basis functions: 151
    Number of Cartesian functions: 174
    Spherical Harmonics?: true
    Max angular momentum: 3

   => Loading Basis Set <=

    Name: (AUG-CC-PVTZ AUX)
    Role: JKFIT
    Keyword: DF_BASIS_SCF
    atoms 1   entry O          line   286 file /home/kchung25/anaconda3/envs/p415env/share/psi4/basis/aug-cc-pvtz-jkfit.gbs 
    atoms 2-3 entry H          line    70 file /home/kchung25/anaconda3/envs/p415env/share/psi4/basis/aug-cc-pvtz-jkfit.gbs 
    atoms 4   entry K          line  1152 file /home/kchung25/anaconda3/envs/p415env/share/psi4/basis/def2-universal-jkfit.gbs 

  ==> Integral Setup <==

  ==> DiskDFJK: Density-Fitted J/K Matrices <==

    J tasked:                  Yes
    K tasked:                  Yes
    wK tasked:                  No
    OpenMP threads:              6
    Integrals threads:           6
    Memory [MiB]:            42915
    Algorithm:                Core
    Integral Cache:           LOAD
    Schwarz Cutoff:          1E-12
    Fitting Condition:       1E-10

   => Auxiliary Basis Set <=

  Basis Set: (AUG-CC-PVTZ AUX)
    Blend: AUG-CC-PVTZ-JKFIT + DEF2-UNIVERSAL-JKFIT
    Number of shells: 102
    Number of basis functions: 356
    Number of Cartesian functions: 444
    Spherical Harmonics?: true
    Max angular momentum: 4

  Minimum eigenvalue in the overlap matrix is 1.8126430523E-04.
  Reciprocal condition number of the overlap matrix is 2.0304643090E-05.
    Using symmetric orthogonalization.

  ==> Pre-Iterations <==

  SCF Guess: Superposition of Atomic Densities via on-the-fly atomic UHF (no occupation information).

   -------------------------
    Irrep   Nso     Nmo    
   -------------------------
     A        151     151 
   -------------------------
    Total     151     151
   -------------------------

  ==> Iterations <==

                           Total Energy        Delta E     RMS |[F,P]|

   @DF-RHF iter SAD:  -599.05182918114485   -5.99052e+02   0.00000e+00 
   @DF-RHF iter   1:  -599.01748106881541    3.43481e-02   4.66817e-05 DIIS
   @DF-RHF iter   2:  -599.01750863874804   -2.75699e-05   6.62915e-06 DIIS
   @DF-RHF iter   3:  -599.01750939021315   -7.51465e-07   5.07876e-07 DIIS
   @DF-RHF iter   4:  -599.01750939415365   -3.94050e-09   4.33880e-08 DIIS
   @DF-RHF iter   5:  -599.01750939419060   -3.69482e-11   7.99364e-09 DIIS
  Energy and wave function converged.


  ==> Post-Iterations <==

    Orbital Energies [Eh]
    ---------------------

    Doubly Occupied:                                                      

       1A   -133.753582     2A    -14.709062     3A    -11.739135  
       4A    -11.739128     5A    -11.739128     6A     -1.964279  
       7A     -1.170954     8A     -1.170881     9A     -1.170868  

    Virtual:                                                              

      10A     -0.146971    11A     -0.095563    12A     -0.095552  
      13A     -0.095551    14A     -0.060632    15A     -0.057886  
      16A     -0.057834    17A     -0.057782    18A     -0.057728  
      19A     -0.057719    20A     -0.045542    21A     -0.045536  
      22A     -0.045535    23A     -0.031274    24A     -0.031250  
      25A     -0.031227    26A     -0.031209    27A     -0.031207  
      28A     -0.017964    29A     -0.016550    30A     -0.016235  
      31A     -0.015746    32A     -0.008603    33A      0.003655  
      34A      0.013844    35A      0.014301    36A      0.015010  
      37A      0.016247    38A      0.016629    39A      0.016921  
      40A      0.016941    41A      0.018295    42A      0.019553  
      43A      0.019765    44A      0.051768    45A      0.060409  
      46A      0.085307    47A      0.096415    48A      0.099005  
      49A      0.099865    50A      0.113921    51A      0.117800  
      52A      0.130076    53A      0.185271    54A      0.196220  
      55A      0.201361    56A      0.215264    57A      0.220277  
      58A      0.227084    59A      0.227519    60A      0.236022  
      61A      0.238613    62A      0.238911    63A      0.244603  
      64A      0.248185    65A      0.274290    66A      0.277310  
      67A      0.299943    68A      0.315434    69A      0.323749  
      70A      0.327565    71A      0.381452    72A      0.406064  
      73A      0.550415    74A      0.573603    75A      0.641133  
      76A      0.667629    77A      0.678464    78A      0.708704  
      79A      0.711650    80A      0.717541    81A      0.785357  
      82A      0.808063    83A      0.864687    84A      0.893324  
      85A      0.900252    86A      0.919356    87A      0.952000  
      88A      1.008642    89A      1.071017    90A      1.082431  
      91A      1.118404    92A      1.160893    93A      1.277091  
      94A      1.326064    95A      1.529794    96A      1.585834  
      97A      1.590764    98A      1.662291    99A      1.706757  
     100A      1.896507   101A      2.196312   102A      2.214998  
     103A      2.322557   104A      2.328996   105A      2.358809  
     106A      2.386162   107A      2.389456   108A      2.489870  
     109A      2.692120   110A      2.972458   111A      2.986746  
     112A      3.027851   113A      3.131688   114A      3.137419  
     115A      3.352843   116A      3.494255   117A      4.184682  
     118A      4.246015   119A      4.345822   120A      4.421642  
     121A      4.477236   122A      4.537836   123A      4.655836  
     124A      4.725836   125A      4.758416   126A      5.017461  
     127A      5.357066   128A      5.409454   129A      5.464107  
     130A      5.654331   131A      5.910664   132A      6.192420  
     133A      6.443382   134A      6.873176   135A      7.470406  
     136A      7.620793   137A      7.844158   138A      7.954268  
     139A      8.076260   140A      8.531733   141A      8.626937  
     142A      9.470138   143A      9.652565   144A      9.794535  
     145A     10.015938   146A     11.030148   147A     11.414398  
     148A     11.895491   149A     13.330255   150A     13.620959  
     151A     64.537349  

    Final Occupation by Irrep:
              A 
    DOCC [     9 ]
    NA   [     9 ]
    NB   [     9 ]

  @DF-RHF Final Energy:  -599.01750939419060

   => Energetics <=

    Nuclear Repulsion Energy =              0.0000000000000000
    One-Electron Energy =                -819.7209858450972888
    Two-Electron Energy =                 220.7034764509067770
    Total Energy =                       -599.0175093941904834

Computation Completed


Properties will be evaluated at   0.000000,   0.000000,   0.000000 [a0]

Properties computed using the SCF density matrix


 Multipole Moments:

 ------------------------------------------------------------------------------------
     Multipole            Electronic (a.u.)      Nuclear  (a.u.)        Total (a.u.)
 ------------------------------------------------------------------------------------

 L = 1.  Multiply by 2.5417464519 to convert [e a0] to [Debye]
 Dipole X            :        -83.8891653           88.5491987            4.6600334
 Dipole Y            :          0.0000886            0.0000000            0.0000886
 Dipole Z            :          0.0000000            0.0000000            0.0000000
 Magnitude           :                                                    4.6600334

 ------------------------------------------------------------------------------------

*** tstop() called on moses-razer at Wed Jan  3 15:27:21 2024
Module time:
	user time   =       8.85 seconds =       0.15 minutes
	system time =       2.06 seconds =       0.03 minutes
	total time  =          6 seconds =       0.10 minutes
Total time:
	user time   =      25.34 seconds =       0.42 minutes
	system time =       5.14 seconds =       0.09 minutes
	total time  =         15 seconds =       0.25 minutes
  Constructing Basis Sets for SAPT...

   => Loading Basis Set <=

    Name: (AUG-CC-PVTZ AUX)
    Role: RIFIT
    Keyword: DF_BASIS_SAPT
    atoms 1   entry O          line   264 file /home/kchung25/anaconda3/envs/p415env/share/psi4/basis/aug-cc-pvtz-ri.gbs 
    atoms 2-3 entry H          line    30 file /home/kchung25/anaconda3/envs/p415env/share/psi4/basis/aug-cc-pvtz-ri.gbs 
    atoms 4   entry K          line  1282 file /home/kchung25/anaconda3/envs/p415env/share/psi4/basis/def2-qzvpp-ri.gbs 

   => Loading Basis Set <=

    Name: (AUG-CC-PVTZ AUX)
    Role: JKFIT
    Keyword: DF_BASIS_ELST
    atoms 1   entry O          line   286 file /home/kchung25/anaconda3/envs/p415env/share/psi4/basis/aug-cc-pvtz-jkfit.gbs 
    atoms 2-3 entry H          line    70 file /home/kchung25/anaconda3/envs/p415env/share/psi4/basis/aug-cc-pvtz-jkfit.gbs 
    atoms 4   entry K          line  1152 file /home/kchung25/anaconda3/envs/p415env/share/psi4/basis/def2-universal-jkfit.gbs 


  //>>>>>>>>>>>>>>>>>>>>>>>>>>>>>>>>>>>//
  //               SAPT2+              //
  //<<<<<<<<<<<<<<<<<<<<<<<<<<<<<<<<<<<//


*** tstart() called on moses-razer
*** at Wed Jan  3 15:27:21 2024

        SAPT2+  
    Ed Hohenstein
     6 June 2009

      Orbital Information
  --------------------------
    NSO        =       151
    NMO        =       151
    NRI        =       397
    NOCC A     =         5
    NOCC B     =         9
    FOCC A     =         0
    FOCC B     =         0
    NVIR A     =       146
    NVIR B     =       142

    Estimated memory usage: 109.1 MB

    Natural Orbital Cutoff:   1.000E-06
    Disp(T3) Truncation:            Yes
    CCD (vv|vv) Truncation:         Yes
    MBPT T2 Truncation:             Yes

    Monomer A: 68 virtual orbitals dropped
    Monomer B: 113 virtual orbitals dropped

    Elst10,r            =    -0.015269511818 [Eh]
    Exch10 (S^2)        =     0.018998533899 [Eh]
    Exch10              =     0.019149247450 [Eh]
    Ind20,r (A<-B)      =    -0.018289679603 [Eh]
    Ind20,r (B<-A)      =    -0.001288602900 [Eh]
    Ind20,r             =    -0.019578282502 [Eh]
    Exch-Ind20,r (A<-B) =     0.010987162384 [Eh]
    Exch-Ind20,r (B<-A) =     0.000908910816 [Eh]
    Exch-Ind20,r        =     0.011896073200 [Eh]
    Disp20              =    -0.004569657484 [Eh]
    Disp20 (NO)         =    -0.004120408369 [Eh]
    Exch-Disp20         =     0.000615706296 [Eh]
    Elst12,r            =     0.000929645563 [Eh]
    Exch11              =     0.000052118716 [Eh]
    Exch12              =     0.001470350036 [Eh]
    Ind22               =    -0.002660654988 [Eh]
    Disp21              =     0.000535081235 [Eh]
    Disp22 (SDQ)        =    -0.000004352732 [Eh]

    (i =   1 of   9)          0 seconds
    (i =   2 of   9)          0 seconds
    (i =   3 of   9)          0 seconds
    (i =   4 of   9)          0 seconds
    (i =   5 of   9)          1 seconds
    (i =   6 of   9)          1 seconds
    (i =   7 of   9)          1 seconds
    (i =   8 of   9)          1 seconds
    (i =   9 of   9)          1 seconds

    Disp220 (T)         =    -0.000304175213 [Eh]

    (i =   1 of   5)          0 seconds
    (i =   2 of   5)          0 seconds
    (i =   3 of   5)          0 seconds
    (i =   4 of   5)          0 seconds
    (i =   5 of   5)          0 seconds

    Disp202 (T)         =    -0.000114785964 [Eh]

    Disp22 (T)          =    -0.000418961176 [Eh]

    Est. Disp220 (T)    =    -0.000337339509 [Eh]
    Est. Disp202 (T)    =    -0.000127301105 [Eh]

    Est. Disp22 (T)     =    -0.000464640614 [Eh]

    SAPT Results 
  --------------------------------------------------------------------------------------------------------
    Electrostatics                -14.33986625 [mEh]      -8.99840193 [kcal/mol]     -37.64931366 [kJ/mol]
      Elst10,r                    -15.26951182 [mEh]      -9.58176333 [kcal/mol]     -40.09009775 [kJ/mol]
      Elst12,r                      0.92964556 [mEh]       0.58336140 [kcal/mol]       2.44078409 [kJ/mol]

    Exchange                       20.67171620 [mEh]      12.97169776 [kcal/mol]      54.27358341 [kJ/mol]
      Exch10                       19.14924745 [mEh]      12.01633419 [kcal/mol]      50.27634225 [kJ/mol]
      Exch10(S^2)                  18.99853390 [mEh]      11.92176001 [kcal/mol]      49.88064388 [kJ/mol]
      Exch11(S^2)                   0.05211872 [mEh]       0.03270499 [kcal/mol]       0.13683767 [kJ/mol]
      Exch12(S^2)                   1.47035004 [mEh]       0.92265858 [kcal/mol]       3.86040349 [kJ/mol]

    Induction                      -9.65239262 [mEh]      -6.05696781 [kcal/mol]     -25.34235333 [kJ/mol]
      Ind20,r                     -19.57828250 [mEh]     -12.28555775 [kcal/mol]     -51.40277363 [kJ/mol]
      Ind22                        -2.66065499 [mEh]      -1.66958621 [kcal/mol]      -6.98554871 [kJ/mol]
      Exch-Ind20,r                 11.89607320 [mEh]       7.46489863 [kcal/mol]      31.23313588 [kJ/mol]
      Exch-Ind22                    1.61665593 [mEh]       1.01446691 [kcal/mol]       4.24452956 [kJ/mol]
      delta HF,r (2)               -0.92618426 [mEh]      -0.58118940 [kcal/mol]      -2.43169644 [kJ/mol]

    Dispersion                     -3.88786330 [mEh]      -2.43967105 [kcal/mol]     -10.20758368 [kJ/mol]
      Disp20                       -4.56965748 [mEh]      -2.86750336 [kcal/mol]     -11.99763407 [kJ/mol]
      Disp21                        0.53508124 [mEh]       0.33576854 [kcal/mol]       1.40485559 [kJ/mol]
      Disp22 (SDQ)                 -0.00435273 [mEh]      -0.00273138 [kcal/mol]      -0.01142810 [kJ/mol]
      Disp22 (T)                   -0.41896118 [mEh]      -0.26290211 [kcal/mol]      -1.09998242 [kJ/mol]
      Est. Disp22 (T)              -0.46464061 [mEh]      -0.29156639 [kcal/mol]      -1.21991376 [kJ/mol]
      Exch-Disp20                   0.61570630 [mEh]       0.38636153 [kcal/mol]       1.61653666 [kJ/mol]

  Total HF                         -4.72865793 [mEh]      -2.96727765 [kcal/mol]     -12.41508968 [kJ/mol]
  Total SAPT0                      -8.68260912 [mEh]      -5.44841948 [kcal/mol]     -22.79618709 [kJ/mol]
  Total SAPT2                      -7.27449386 [mEh]      -4.56481381 [kcal/mol]     -19.09918100 [kJ/mol]
  Total SAPT2+                     -7.20840597 [mEh]      -4.52334304 [kcal/mol]     -18.92566727 [kJ/mol]

  Special recipe for scaled SAPT0 (see Manual):
    Electrostatics sSAPT0         -15.26951182 [mEh]      -9.58176333 [kcal/mol]     -40.09009775 [kJ/mol]
    Exchange sSAPT0                19.14924745 [mEh]      12.01633419 [kcal/mol]      50.27634225 [kJ/mol]
    Induction sSAPT0               -8.32303050 [mEh]      -5.22278049 [kcal/mol]     -21.85211356 [kJ/mol]
    Dispersion sSAPT0              -3.93918162 [mEh]      -2.47187379 [kcal/mol]     -10.34231992 [kJ/mol]
  Total sSAPT0                     -8.38247649 [mEh]      -5.26008341 [kcal/mol]     -22.00818898 [kJ/mol]
  --------------------------------------------------------------------------------------------------------

*** tstop() called on moses-razer at Wed Jan  3 15:27:34 2024
Module time:
	user time   =      36.93 seconds =       0.62 minutes
	system time =       2.46 seconds =       0.04 minutes
	total time  =         13 seconds =       0.22 minutes
Total time:
	user time   =      62.62 seconds =       1.04 minutes
	system time =       7.60 seconds =       0.13 minutes
	total time  =         28 seconds =       0.47 minutes

    Psi4 stopped on: Wednesday, 03 January 2024 03:27PM
    Psi4 wall time for execution: 0:00:28.69

*** Psi4 exiting successfully. Buy a developer a beer!
