
    -----------------------------------------------------------------------
          Psi4: An Open-Source Ab Initio Electronic Structure Package
                               Psi4 1.9 release

                         Git: Rev {} zzzzzzz 


    D. G. A. Smith, L. A. Burns, A. C. Simmonett, R. M. Parrish,
    M. C. Schieber, R. Galvelis, P. Kraus, H. Kruse, R. Di Remigio,
    A. Alenaizan, A. M. James, S. Lehtola, J. P. Misiewicz, M. Scheurer,
    R. A. Shaw, J. B. Schriber, Y. Xie, Z. L. Glick, D. A. Sirianni,
    J. S. O'Brien, J. M. Waldrop, A. Kumar, E. G. Hohenstein,
    B. P. Pritchard, B. R. Brooks, H. F. Schaefer III, A. Yu. Sokolov,
    K. Patkowski, A. E. DePrince III, U. Bozkaya, R. A. King,
    F. A. Evangelista, J. M. Turney, T. D. Crawford, C. D. Sherrill,
    J. Chem. Phys. 152(18) 184108 (2020). https://doi.org/10.1063/5.0006002

                            Additional Code Authors
    E. T. Seidl, C. L. Janssen, E. F. Valeev, M. L. Leininger,
    J. F. Gonthier, R. M. Richard, H. R. McAlexander, M. Saitow, X. Wang,
    P. Verma, M. H. Lechner, A. Jiang, S. Behnle, A. G. Heide,
    M. F. Herbst, and D. L. Poole

             Previous Authors, Complete List of Code Contributors,
                       and Citations for Specific Modules
    https://github.com/psi4/psi4/blob/master/codemeta.json
    https://github.com/psi4/psi4/graphs/contributors
    http://psicode.org/psi4manual/master/introduction.html#citing-psifour

    -----------------------------------------------------------------------


    Psi4 started on: Wednesday, 03 January 2024 03:49PM

    Process ID: 411566
    Host:       moses-razer
    PSIDATADIR: /home/kchung25/anaconda3/envs/psi4_19/share/psi4
    Memory:     500.0 MiB
    Threads:    6
    
  ==> Input File <==

--------------------------------------------------------------------------
MEMORY 60 GB

molecule dimer {
0 1
O      0.000000     0.000000     0.000000
H      0.555220     0.780169     0.000000
H      0.723587    -0.775519     0.000000
--
-1 1
F      2.426389     0.000000     0.000000

units ang
no_reorient
no_com
symmetry c1
}

set {
basis        aug-cc-pVTZ
scf_type     df
}

energy("sapt2+")
--------------------------------------------------------------------------

  Memory set to  55.879 GiB by Python driver.

Scratch directory: /scratch/
   => Loading Basis Set <=

    Name: AUG-CC-PVTZ
    Role: ORBITAL
    Keyword: BASIS
    atoms 1   entry O          line   331 file /home/kchung25/anaconda3/envs/p415env/share/psi4/basis/aug-cc-pvtz.gbs 
    atoms 2-3 entry H          line    40 file /home/kchung25/anaconda3/envs/p415env/share/psi4/basis/aug-cc-pvtz.gbs 
    atoms 4   entry F          line   377 file /home/kchung25/anaconda3/envs/p415env/share/psi4/basis/aug-cc-pvtz.gbs 

   => Loading Basis Set <=

    Name: AUG-CC-PVTZ
    Role: ORBITAL
    Keyword: BASIS
    atoms 1   entry O          line   331 file /home/kchung25/anaconda3/envs/p415env/share/psi4/basis/aug-cc-pvtz.gbs 
    atoms 2-3 entry H          line    40 file /home/kchung25/anaconda3/envs/p415env/share/psi4/basis/aug-cc-pvtz.gbs 
    atoms 4   entry F          line   377 file /home/kchung25/anaconda3/envs/p415env/share/psi4/basis/aug-cc-pvtz.gbs 


  //>>>>>>>>>>>>>>>>>>>>>>>>>>>>>>>>>>>//
  //              Dimer HF             //
  //<<<<<<<<<<<<<<<<<<<<<<<<<<<<<<<<<<<//

   => Libint2 <=

    Primary   basis highest AM E, G, H:  5, 4, 3
    Auxiliary basis highest AM E, G, H:  6, 5, 4
    Onebody   basis highest AM E, G, H:  6, 5, 4
    Solid Harmonics ordering:            gaussian

*** tstart() called on moses-razer
*** at Wed Jan  3 15:49:30 2024

   => Loading Basis Set <=

    Name: AUG-CC-PVTZ
    Role: ORBITAL
    Keyword: BASIS
    atoms 1   entry O          line   331 file /home/kchung25/anaconda3/envs/p415env/share/psi4/basis/aug-cc-pvtz.gbs 
    atoms 2-3 entry H          line    40 file /home/kchung25/anaconda3/envs/p415env/share/psi4/basis/aug-cc-pvtz.gbs 
    atoms 4   entry F          line   377 file /home/kchung25/anaconda3/envs/p415env/share/psi4/basis/aug-cc-pvtz.gbs 


         ---------------------------------------------------------
                                   SCF
               by Justin Turney, Rob Parrish, Andy Simmonett
                          and Daniel G. A. Smith
                              RHF Reference
                        6 Threads,  57220 MiB Core
         ---------------------------------------------------------

  ==> Geometry <==

    Molecular point group: c1
    Full point group: Cs

    Geometry (in Angstrom), charge = -1, multiplicity = 1:

       Center              X                  Y                   Z               Mass       
    ------------   -----------------  -----------------  -----------------  -----------------
         O            0.000000000000     0.000000000000     0.000000000000    15.994914619570
         H            0.555220000000     0.780169000000     0.000000000000     1.007825032230
         H            0.723587000000    -0.775519000000     0.000000000000     1.007825032230
         F            2.426389000000     0.000000000000     0.000000000000    18.998403162730

  Running in c1 symmetry.

  Rotational constants: A =     13.82438  B =      0.14959  C =      0.14799 [cm^-1]
  Rotational constants: A = 414444.45070  B =   4484.72301  C =   4436.71313 [MHz]
  Nuclear repulsion =   29.347745909630383

  Charge       = -1
  Multiplicity = 1
  Electrons    = 20
  Nalpha       = 10
  Nbeta        = 10

  ==> Algorithm <==

  SCF Algorithm Type is DF.
  DIIS enabled.
  MOM disabled.
  Fractional occupation disabled.
  Guess Type is SAD.
  Energy threshold   = 1.00e-08
  Density threshold  = 1.00e-08
  Integral threshold = 1.00e-12

  ==> Primary Basis <==

  Basis Set: AUG-CC-PVTZ
    Blend: AUG-CC-PVTZ
    Number of shells: 46
    Number of basis functions: 138
    Number of Cartesian functions: 160
    Spherical Harmonics?: true
    Max angular momentum: 3

   => Loading Basis Set <=

    Name: (AUG-CC-PVTZ AUX)
    Role: JKFIT
    Keyword: DF_BASIS_SCF
    atoms 1   entry O          line   286 file /home/kchung25/anaconda3/envs/p415env/share/psi4/basis/aug-cc-pvtz-jkfit.gbs 
    atoms 2-3 entry H          line    70 file /home/kchung25/anaconda3/envs/p415env/share/psi4/basis/aug-cc-pvtz-jkfit.gbs 
    atoms 4   entry F          line   348 file /home/kchung25/anaconda3/envs/p415env/share/psi4/basis/aug-cc-pvtz-jkfit.gbs 

  ==> Integral Setup <==

  ==> DiskDFJK: Density-Fitted J/K Matrices <==

    J tasked:                  Yes
    K tasked:                  Yes
    wK tasked:                  No
    OpenMP threads:              6
    Integrals threads:           6
    Memory [MiB]:            42915
    Algorithm:                Core
    Integral Cache:           SAVE
    Schwarz Cutoff:          1E-12
    Fitting Condition:       1E-10

   => Auxiliary Basis Set <=

  Basis Set: (AUG-CC-PVTZ AUX)
    Blend: AUG-CC-PVTZ-JKFIT
    Number of shells: 88
    Number of basis functions: 300
    Number of Cartesian functions: 372
    Spherical Harmonics?: true
    Max angular momentum: 4

  Minimum eigenvalue in the overlap matrix is 3.7383547192E-04.
  Reciprocal condition number of the overlap matrix is 4.8732112860E-05.
    Using symmetric orthogonalization.

  ==> Pre-Iterations <==

  SCF Guess: Superposition of Atomic Densities via on-the-fly atomic UHF (no occupation information).

   -------------------------
    Irrep   Nso     Nmo    
   -------------------------
     A        138     138 
   -------------------------
    Total     138     138
   -------------------------

  ==> Iterations <==

                           Total Energy        Delta E     RMS |[F,P]|

   @DF-RHF iter SAD:  -174.34725177798254   -1.74347e+02   0.00000e+00 
   @DF-RHF iter   1:  -175.35163375507571   -1.00438e+00   4.94223e-03 DIIS/ADIIS
   @DF-RHF iter   2:  -175.44307775887648   -9.14440e-02   3.92649e-03 DIIS/ADIIS
   @DF-RHF iter   3:  -175.52379910221694   -8.07213e-02   2.29050e-04 DIIS/ADIIS
   @DF-RHF iter   4:  -175.52430160629876   -5.02504e-04   1.33532e-04 DIIS/ADIIS
   @DF-RHF iter   5:  -175.52443404726387   -1.32441e-04   2.54067e-05 DIIS
   @DF-RHF iter   6:  -175.52444386775170   -9.82049e-06   5.80036e-06 DIIS
   @DF-RHF iter   7:  -175.52444466783174   -8.00080e-07   1.64603e-06 DIIS
   @DF-RHF iter   8:  -175.52444475221057   -8.43788e-08   4.13076e-07 DIIS
   @DF-RHF iter   9:  -175.52444475708083   -4.87026e-09   7.93528e-08 DIIS
   @DF-RHF iter  10:  -175.52444475724846   -1.67631e-10   1.87850e-08 DIIS
   @DF-RHF iter  11:  -175.52444475725824   -9.77707e-12   4.15219e-09 DIIS
  Energy and wave function converged.


  ==> Post-Iterations <==

    Orbital Energies [Eh]
    ---------------------

    Doubly Occupied:                                                      

       1A    -25.871267     2A    -20.335127     3A     -1.131151  
       4A     -1.091204     5A     -0.457201     6A     -0.366399  
       7A     -0.278435     8A     -0.225227     9A     -0.223361  
      10A     -0.215872  

    Virtual:                                                              

      11A      0.169015    12A      0.173090    13A      0.303141  
      14A      0.303309    15A      0.320887    16A      0.344654  
      17A      0.381323    18A      0.411111    19A      0.440182  
      20A      0.447344    21A      0.448303    22A      0.481793  
      23A      0.546593    24A      0.558394    25A      0.597286  
      26A      0.639438    27A      0.655139    28A      0.671448  
      29A      0.836284    30A      0.905478    31A      0.922653  
      32A      0.929947    33A      0.945900    34A      1.081040  
      35A      1.096851    36A      1.108076    37A      1.131979  
      38A      1.140108    39A      1.147028    40A      1.153560  
      41A      1.205810    42A      1.267395    43A      1.282259  
      44A      1.297427    45A      1.315379    46A      1.342044  
      47A      1.383313    48A      1.405930    49A      1.412392  
      50A      1.453423    51A      1.484341    52A      1.491353  
      53A      1.529688    54A      1.659211    55A      1.663651  
      56A      1.724312    57A      1.808154    58A      1.909249  
      59A      1.997938    60A      2.058238    61A      2.098463  
      62A      2.135362    63A      2.329476    64A      2.499634  
      65A      2.504842    66A      2.532868    67A      2.663411  
      68A      2.705538    69A      2.714707    70A      2.785398  
      71A      2.852051    72A      2.942767    73A      2.980893  
      74A      3.002425    75A      3.019502    76A      3.066898  
      77A      3.260088    78A      3.260764    79A      3.271205  
      80A      3.313415    81A      3.318423    82A      3.324062  
      83A      3.415661    84A      3.485761    85A      3.486345  
      86A      3.533898    87A      3.702343    88A      3.714413  
      89A      3.880721    90A      4.076648    91A      4.255421  
      92A      4.307100    93A      4.516395    94A      4.550115  
      95A      4.594539    96A      4.629359    97A      4.679868  
      98A      4.797140    99A      4.851751   100A      4.989388  
     101A      5.202671   102A      5.216641   103A      5.326321  
     104A      5.402177   105A      5.518590   106A      5.669132  
     107A      5.700898   108A      5.835342   109A      5.898484  
     110A      6.156190   111A      6.460618   112A      6.773579  
     113A      6.989257   114A      7.141732   115A      7.254793  
     116A      7.467871   117A      7.487103   118A      7.525595  
     119A      7.585132   120A      7.618633   121A      7.755943  
     122A      8.099607   123A      8.147161   124A      8.771509  
     125A      9.248847   126A      9.257519   127A      9.312593  
     128A      9.342056   129A      9.351871   130A      9.510543  
     131A      9.602809   132A      9.760040   133A      9.771598  
     134A      9.830291   135A      9.912137   136A      9.919428  
     137A     12.583564   138A     14.978522  

    Final Occupation by Irrep:
              A 
    DOCC [    10 ]
    NA   [    10 ]
    NB   [    10 ]

  @DF-RHF Final Energy:  -175.52444475725824

   => Energetics <=

    Nuclear Repulsion Energy =             29.3477459096303832
    One-Electron Energy =                -309.3538929460389113
    Two-Electron Energy =                 104.4817022791503121
    Total Energy =                       -175.5244447572582374

Computation Completed


Properties will be evaluated at   0.000000,   0.000000,   0.000000 [a0]

Properties computed using the SCF density matrix


 Multipole Moments:

 ------------------------------------------------------------------------------------
     Multipole            Electronic (a.u.)      Nuclear  (a.u.)        Total (a.u.)
 ------------------------------------------------------------------------------------

 L = 1.  Multiply by 2.5417464519 to convert [e a0] to [Debye]
 Dipole X            :        -46.9416134           43.6834912           -3.2581222
 Dipole Y            :         -0.0029430            0.0087872            0.0058442
 Dipole Z            :          0.0000000            0.0000000            0.0000000
 Magnitude           :                                                    3.2581275

 ------------------------------------------------------------------------------------

*** tstop() called on moses-razer at Wed Jan  3 15:49:30 2024
Module time:
	user time   =       3.24 seconds =       0.05 minutes
	system time =       0.08 seconds =       0.00 minutes
	total time  =          0 seconds =       0.00 minutes
Total time:
	user time   =       3.24 seconds =       0.05 minutes
	system time =       0.08 seconds =       0.00 minutes
	total time  =          0 seconds =       0.00 minutes

  //>>>>>>>>>>>>>>>>>>>>>>>>>>>>>>>>>>>//
  //            Monomer A HF           //
  //<<<<<<<<<<<<<<<<<<<<<<<<<<<<<<<<<<<//

   => Libint2 <=

    Primary   basis highest AM E, G, H:  5, 4, 3
    Auxiliary basis highest AM E, G, H:  6, 5, 4
    Onebody   basis highest AM E, G, H:  6, 5, 4
    Solid Harmonics ordering:            gaussian

*** tstart() called on moses-razer
*** at Wed Jan  3 15:49:30 2024

   => Loading Basis Set <=

    Name: AUG-CC-PVTZ
    Role: ORBITAL
    Keyword: BASIS
    atoms 1   entry O          line   331 file /home/kchung25/anaconda3/envs/p415env/share/psi4/basis/aug-cc-pvtz.gbs 
    atoms 2-3 entry H          line    40 file /home/kchung25/anaconda3/envs/p415env/share/psi4/basis/aug-cc-pvtz.gbs 
    atoms 4   entry F          line   377 file /home/kchung25/anaconda3/envs/p415env/share/psi4/basis/aug-cc-pvtz.gbs 


         ---------------------------------------------------------
                                   SCF
               by Justin Turney, Rob Parrish, Andy Simmonett
                          and Daniel G. A. Smith
                              RHF Reference
                        6 Threads,  57220 MiB Core
         ---------------------------------------------------------

  ==> Geometry <==

    Molecular point group: c1
    Full point group: Cs

    Geometry (in Angstrom), charge = 0, multiplicity = 1:

       Center              X                  Y                   Z               Mass       
    ------------   -----------------  -----------------  -----------------  -----------------
         O            0.000000000000     0.000000000000     0.000000000000    15.994914619570
         H            0.555220000000     0.780169000000     0.000000000000     1.007825032230
         H            0.723587000000    -0.775519000000     0.000000000000     1.007825032230
      Gh(F)           2.426389000000     0.000000000000     0.000000000000    18.998403162730

  Running in c1 symmetry.

  Rotational constants: A =     13.82438  B =      0.14959  C =      0.14799 [cm^-1]
  Rotational constants: A = 414444.45070  B =   4484.72301  C =   4436.71313 [MHz]
  Nuclear repulsion =    8.750490664257182

  Charge       = 0
  Multiplicity = 1
  Electrons    = 10
  Nalpha       = 5
  Nbeta        = 5

  ==> Algorithm <==

  SCF Algorithm Type is DF.
  DIIS enabled.
  MOM disabled.
  Fractional occupation disabled.
  Guess Type is SAD.
  Energy threshold   = 1.00e-08
  Density threshold  = 1.00e-08
  Integral threshold = 1.00e-12

  ==> Primary Basis <==

  Basis Set: AUG-CC-PVTZ
    Blend: AUG-CC-PVTZ
    Number of shells: 46
    Number of basis functions: 138
    Number of Cartesian functions: 160
    Spherical Harmonics?: true
    Max angular momentum: 3

   => Loading Basis Set <=

    Name: (AUG-CC-PVTZ AUX)
    Role: JKFIT
    Keyword: DF_BASIS_SCF
    atoms 1   entry O          line   286 file /home/kchung25/anaconda3/envs/p415env/share/psi4/basis/aug-cc-pvtz-jkfit.gbs 
    atoms 2-3 entry H          line    70 file /home/kchung25/anaconda3/envs/p415env/share/psi4/basis/aug-cc-pvtz-jkfit.gbs 
    atoms 4   entry F          line   348 file /home/kchung25/anaconda3/envs/p415env/share/psi4/basis/aug-cc-pvtz-jkfit.gbs 

  ==> Integral Setup <==

  ==> DiskDFJK: Density-Fitted J/K Matrices <==

    J tasked:                  Yes
    K tasked:                  Yes
    wK tasked:                  No
    OpenMP threads:              6
    Integrals threads:           6
    Memory [MiB]:            42915
    Algorithm:                Core
    Integral Cache:           LOAD
    Schwarz Cutoff:          1E-12
    Fitting Condition:       1E-10

   => Auxiliary Basis Set <=

  Basis Set: (AUG-CC-PVTZ AUX)
    Blend: AUG-CC-PVTZ-JKFIT
    Number of shells: 88
    Number of basis functions: 300
    Number of Cartesian functions: 372
    Spherical Harmonics?: true
    Max angular momentum: 4

  Minimum eigenvalue in the overlap matrix is 3.7383547192E-04.
  Reciprocal condition number of the overlap matrix is 4.8732112860E-05.
    Using symmetric orthogonalization.

  ==> Pre-Iterations <==

  SCF Guess: Superposition of Atomic Densities via on-the-fly atomic UHF (no occupation information).

   -------------------------
    Irrep   Nso     Nmo    
   -------------------------
     A        138     138 
   -------------------------
    Total     138     138
   -------------------------

  ==> Iterations <==

                           Total Energy        Delta E     RMS |[F,P]|

   @DF-RHF iter SAD:   -75.41814240521781   -7.54181e+01   0.00000e+00 
   @DF-RHF iter   1:   -75.95992955530082   -5.41787e-01   3.39446e-03 DIIS/ADIIS
   @DF-RHF iter   2:   -76.01148900890688   -5.15595e-02   2.46316e-03 DIIS/ADIIS
   @DF-RHF iter   3:   -76.04805906115969   -3.65701e-02   1.69621e-04 DIIS/ADIIS
   @DF-RHF iter   4:   -76.04854964477366   -4.90584e-04   4.57322e-05 DIIS
   @DF-RHF iter   5:   -76.04859048020052   -4.08354e-05   1.12461e-05 DIIS
   @DF-RHF iter   6:   -76.04859425826658   -3.77807e-06   2.44458e-06 DIIS
   @DF-RHF iter   7:   -76.04859444510201   -1.86835e-07   4.06683e-07 DIIS
   @DF-RHF iter   8:   -76.04859444945424   -4.35223e-09   7.62263e-08 DIIS
   @DF-RHF iter   9:   -76.04859444958770   -1.33454e-10   2.16610e-08 DIIS
   @DF-RHF iter  10:   -76.04859444959843   -1.07292e-11   4.13081e-09 DIIS
  Energy and wave function converged.


  ==> Post-Iterations <==

    Orbital Energies [Eh]
    ---------------------

    Doubly Occupied:                                                      

       1A    -20.576892     2A     -1.332666     3A     -0.686438  
       4A     -0.579428     5A     -0.507551  

    Virtual:                                                              

       6A      0.028170     7A      0.047616     8A      0.108959  
       9A      0.138960    10A      0.150684    11A      0.172513  
      12A      0.183308    13A      0.188420    14A      0.201203  
      15A      0.256626    16A      0.266530    17A      0.282973  
      18A      0.289054    19A      0.349390    20A      0.381946  
      21A      0.403211    22A      0.432794    23A      0.475546  
      24A      0.610479    25A      0.628609    26A      0.696972  
      27A      0.702595    28A      0.727222    29A      0.778510  
      30A      0.783650    31A      0.799092    32A      0.858160  
      33A      0.859073    34A      0.914612    35A      0.920945  
      36A      0.923750    37A      0.947041    38A      0.961000  
      39A      0.975868    40A      1.009621    41A      1.064836  
      42A      1.071664    43A      1.075314    44A      1.090750  
      45A      1.204894    46A      1.244563    47A      1.253126  
      48A      1.268840    49A      1.305992    50A      1.324047  
      51A      1.434713    52A      1.499291    53A      1.528964  
      54A      1.575204    55A      1.638866    56A      1.818430  
      57A      1.860305    58A      1.910006    59A      2.169145  
      60A      2.285800    61A      2.321861    62A      2.365676  
      63A      2.447068    64A      2.481870    65A      2.515641  
      66A      2.577670    67A      2.724593    68A      2.739085  
      69A      2.776729    70A      2.794761    71A      2.847897  
      72A      3.010850    73A      3.080663    74A      3.088569  
      75A      3.094433    76A      3.139126    77A      3.164480  
      78A      3.184843    79A      3.214791    80A      3.349635  
      81A      3.416475    82A      3.436145    83A      3.595301  
      84A      3.611868    85A      3.627709    86A      3.698712  
      87A      3.813303    88A      3.850587    89A      3.970846  
      90A      4.011370    91A      4.074253    92A      4.289412  
      93A      4.335986    94A      4.361445    95A      4.451548  
      96A      4.475519    97A      4.568764    98A      4.684719  
      99A      4.796498   100A      4.981858   101A      5.037215  
     102A      5.107113   103A      5.174223   104A      5.301528  
     105A      5.437026   106A      5.606762   107A      6.229638  
     108A      6.544325   109A      6.757610   110A      6.902615  
     111A      7.025471   112A      7.237984   113A      7.257248  
     114A      7.294655   115A      7.355349   116A      7.385813  
     117A      7.524708   118A      7.870350   119A      7.918351  
     120A      8.533558   121A      9.994472   122A     10.138871  
     123A     10.147947   124A     10.210876   125A     10.245690  
     126A     10.273773   127A     10.444717   128A     10.590896  
     129A     12.946280   130A     12.951293   131A     13.003749  
     132A     13.058629   133A     13.063964   134A     14.238179  
     135A     14.416634   136A     14.713002   137A     14.802199  
     138A     69.094683  

    Final Occupation by Irrep:
              A 
    DOCC [     5 ]
    NA   [     5 ]
    NB   [     5 ]

  @DF-RHF Final Energy:   -76.04859444959843

   => Energetics <=

    Nuclear Repulsion Energy =              8.7504906642571818
    One-Electron Energy =                -122.2322192343637397
    Two-Electron Energy =                  37.4331341205081287
    Total Energy =                        -76.0485944495984256

Computation Completed


Properties will be evaluated at   0.000000,   0.000000,   0.000000 [a0]

Properties computed using the SCF density matrix


 Multipole Moments:

 ------------------------------------------------------------------------------------
     Multipole            Electronic (a.u.)      Nuclear  (a.u.)        Total (a.u.)
 ------------------------------------------------------------------------------------

 L = 1.  Multiply by 2.5417464519 to convert [e a0] to [Debye]
 Dipole X            :         -1.6002602            2.4165950            0.8163348
 Dipole Y            :          0.0135965            0.0087872            0.0223838
 Dipole Z            :          0.0000000            0.0000000            0.0000000
 Magnitude           :                                                    0.8166416

 ------------------------------------------------------------------------------------

*** tstop() called on moses-razer at Wed Jan  3 15:49:31 2024
Module time:
	user time   =       2.44 seconds =       0.04 minutes
	system time =       0.05 seconds =       0.00 minutes
	total time  =          1 seconds =       0.02 minutes
Total time:
	user time   =       5.71 seconds =       0.10 minutes
	system time =       0.13 seconds =       0.00 minutes
	total time  =          1 seconds =       0.02 minutes

  //>>>>>>>>>>>>>>>>>>>>>>>>>>>>>>>>>>>//
  //            Monomer B HF           //
  //<<<<<<<<<<<<<<<<<<<<<<<<<<<<<<<<<<<//

   => Libint2 <=

    Primary   basis highest AM E, G, H:  5, 4, 3
    Auxiliary basis highest AM E, G, H:  6, 5, 4
    Onebody   basis highest AM E, G, H:  6, 5, 4
    Solid Harmonics ordering:            gaussian

*** tstart() called on moses-razer
*** at Wed Jan  3 15:49:31 2024

   => Loading Basis Set <=

    Name: AUG-CC-PVTZ
    Role: ORBITAL
    Keyword: BASIS
    atoms 1   entry O          line   331 file /home/kchung25/anaconda3/envs/p415env/share/psi4/basis/aug-cc-pvtz.gbs 
    atoms 2-3 entry H          line    40 file /home/kchung25/anaconda3/envs/p415env/share/psi4/basis/aug-cc-pvtz.gbs 
    atoms 4   entry F          line   377 file /home/kchung25/anaconda3/envs/p415env/share/psi4/basis/aug-cc-pvtz.gbs 


         ---------------------------------------------------------
                                   SCF
               by Justin Turney, Rob Parrish, Andy Simmonett
                          and Daniel G. A. Smith
                              RHF Reference
                        6 Threads,  57220 MiB Core
         ---------------------------------------------------------

  ==> Geometry <==

    Molecular point group: c1
    Full point group: Cs

    Geometry (in Angstrom), charge = -1, multiplicity = 1:

       Center              X                  Y                   Z               Mass       
    ------------   -----------------  -----------------  -----------------  -----------------
      Gh(O)           0.000000000000     0.000000000000     0.000000000000    15.994914619570
      Gh(H)           0.555220000000     0.780169000000     0.000000000000     1.007825032230
      Gh(H)           0.723587000000    -0.775519000000     0.000000000000     1.007825032230
         F            2.426389000000     0.000000000000     0.000000000000    18.998403162730

  Running in c1 symmetry.

  Rotational constants: A =     13.82438  B =      0.14959  C =      0.14799 [cm^-1]
  Rotational constants: A = 414444.45070  B =   4484.72301  C =   4436.71313 [MHz]
  Nuclear repulsion =    0.000000000000000

  Charge       = -1
  Multiplicity = 1
  Electrons    = 10
  Nalpha       = 5
  Nbeta        = 5

  ==> Algorithm <==

  SCF Algorithm Type is DF.
  DIIS enabled.
  MOM disabled.
  Fractional occupation disabled.
  Guess Type is SAD.
  Energy threshold   = 1.00e-08
  Density threshold  = 1.00e-08
  Integral threshold = 1.00e-12

  ==> Primary Basis <==

  Basis Set: AUG-CC-PVTZ
    Blend: AUG-CC-PVTZ
    Number of shells: 46
    Number of basis functions: 138
    Number of Cartesian functions: 160
    Spherical Harmonics?: true
    Max angular momentum: 3

   => Loading Basis Set <=

    Name: (AUG-CC-PVTZ AUX)
    Role: JKFIT
    Keyword: DF_BASIS_SCF
    atoms 1   entry O          line   286 file /home/kchung25/anaconda3/envs/p415env/share/psi4/basis/aug-cc-pvtz-jkfit.gbs 
    atoms 2-3 entry H          line    70 file /home/kchung25/anaconda3/envs/p415env/share/psi4/basis/aug-cc-pvtz-jkfit.gbs 
    atoms 4   entry F          line   348 file /home/kchung25/anaconda3/envs/p415env/share/psi4/basis/aug-cc-pvtz-jkfit.gbs 

  ==> Integral Setup <==

  ==> DiskDFJK: Density-Fitted J/K Matrices <==

    J tasked:                  Yes
    K tasked:                  Yes
    wK tasked:                  No
    OpenMP threads:              6
    Integrals threads:           6
    Memory [MiB]:            42915
    Algorithm:                Core
    Integral Cache:           LOAD
    Schwarz Cutoff:          1E-12
    Fitting Condition:       1E-10

   => Auxiliary Basis Set <=

  Basis Set: (AUG-CC-PVTZ AUX)
    Blend: AUG-CC-PVTZ-JKFIT
    Number of shells: 88
    Number of basis functions: 300
    Number of Cartesian functions: 372
    Spherical Harmonics?: true
    Max angular momentum: 4

  Minimum eigenvalue in the overlap matrix is 3.7383547192E-04.
  Reciprocal condition number of the overlap matrix is 4.8732112860E-05.
    Using symmetric orthogonalization.

  ==> Pre-Iterations <==

  SCF Guess: Superposition of Atomic Densities via on-the-fly atomic UHF (no occupation information).

   -------------------------
    Irrep   Nso     Nmo    
   -------------------------
     A        138     138 
   -------------------------
    Total     138     138
   -------------------------

  ==> Iterations <==

                           Total Energy        Delta E     RMS |[F,P]|

   @DF-RHF iter SAD:   -98.82535133645335   -9.88254e+01   0.00000e+00 
   @DF-RHF iter   1:   -99.33787810334590   -5.12527e-01   3.95742e-03 DIIS/ADIIS
   @DF-RHF iter   2:   -99.37399740581280   -3.61193e-02   3.84638e-03 DIIS/ADIIS
   @DF-RHF iter   3:   -99.45081810404908   -7.68207e-02   1.21223e-04 DIIS/ADIIS
   @DF-RHF iter   4:   -99.45088143494961   -6.33309e-05   4.56787e-05 DIIS
   @DF-RHF iter   5:   -99.45089161468870   -1.01797e-05   3.42545e-06 DIIS
   @DF-RHF iter   6:   -99.45089174563346   -1.30945e-07   2.98961e-07 DIIS
   @DF-RHF iter   7:   -99.45089174714796   -1.51451e-09   5.67560e-08 DIIS
   @DF-RHF iter   8:   -99.45089174726743   -1.19471e-10   1.48235e-08 DIIS
   @DF-RHF iter   9:   -99.45089174727481   -7.37543e-12   1.37611e-09 DIIS
  Energy and wave function converged.


  ==> Post-Iterations <==

    Orbital Energies [Eh]
    ---------------------

    Doubly Occupied:                                                      

       1A    -25.833758     2A     -1.076027     3A     -0.181023  
       4A     -0.180954     5A     -0.180952  

    Virtual:                                                              

       6A      0.161710     7A      0.174932     8A      0.269890  
       9A      0.269951    10A      0.298873    11A      0.319979  
      12A      0.392003    13A      0.433487    14A      0.459518  
      15A      0.465446    16A      0.466087    17A      0.505865  
      18A      0.528013    19A      0.541018    20A      0.586522  
      21A      0.591043    22A      0.663565    23A      0.687404  
      24A      0.790686    25A      0.864004    26A      0.987553  
      27A      0.988666    28A      0.989334    29A      1.027433  
      30A      1.035868    31A      1.064223    32A      1.083062  
      33A      1.161375    34A      1.187525    35A      1.208193  
      36A      1.216196    37A      1.252355    38A      1.284257  
      39A      1.302353    40A      1.341604    41A      1.380637  
      42A      1.425568    43A      1.433299    44A      1.483470  
      45A      1.522965    46A      1.540241    47A      1.542784  
      48A      1.634158    49A      1.668132    50A      1.704008  
      51A      1.791356    52A      1.925568    53A      1.943605  
      54A      1.959240    55A      1.969679    56A      2.130718  
      57A      2.159868    58A      2.287441    59A      2.538969  
      60A      2.605827    61A      2.707829    62A      2.717355  
      63A      2.742367    64A      2.757913    65A      2.851082  
      66A      2.862905    67A      2.935914    68A      3.117265  
      69A      3.210126    70A      3.267268    71A      3.285115  
      72A      3.308366    73A      3.326203    74A      3.335044  
      75A      3.368391    76A      3.412305    77A      3.414027  
      78A      3.488874    79A      3.502160    80A      3.541233  
      81A      3.545426    82A      3.602347    83A      3.662229  
      84A      3.715610    85A      3.821737    86A      3.915698  
      87A      3.969125    88A      4.606071    89A      4.668672  
      90A      4.780276    91A      4.809681    92A      4.979282  
      93A      5.114738    94A      5.125015    95A      5.224428  
      96A      5.433917    97A      5.573055    98A      5.599204  
      99A      5.746857   100A      5.771877   101A      5.871680  
     102A      5.970623   103A      6.033143   104A      6.215465  
     105A      6.359650   106A      6.550165   107A      6.601489  
     108A      7.160734   109A      7.914597   110A      8.044445  
     111A      8.162352   112A      8.286743   113A      8.427248  
     114A      8.756385   115A      8.882838   116A      9.292510  
     117A      9.303132   118A      9.357438   119A      9.386798  
     120A      9.398052   121A      9.572652   122A      9.656761  
     123A      9.780441   124A      9.800428   125A      9.820663  
     126A      9.870491   127A      9.950049   128A      9.966165  
     129A     10.057015   130A     10.184505   131A     10.534551  
     132A     11.007379   133A     11.744006   134A     12.016291  
     135A     12.628936   136A     13.660385   137A     14.040350  
     138A     62.934420  

    Final Occupation by Irrep:
              A 
    DOCC [     5 ]
    NA   [     5 ]
    NB   [     5 ]

  @DF-RHF Final Energy:   -99.45089174727481

   => Energetics <=

    Nuclear Repulsion Energy =              0.0000000000000000
    One-Electron Energy =                -143.9963577173550959
    Two-Electron Energy =                  44.5454659700802864
    Total Energy =                        -99.4508917472748095

Computation Completed


Properties will be evaluated at   0.000000,   0.000000,   0.000000 [a0]

Properties computed using the SCF density matrix


 Multipole Moments:

 ------------------------------------------------------------------------------------
     Multipole            Electronic (a.u.)      Nuclear  (a.u.)        Total (a.u.)
 ------------------------------------------------------------------------------------

 L = 1.  Multiply by 2.5417464519 to convert [e a0] to [Debye]
 Dipole X            :        -45.8530651           41.2668962           -4.5861690
 Dipole Y            :          0.0001567            0.0000000            0.0001567
 Dipole Z            :          0.0000000            0.0000000            0.0000000
 Magnitude           :                                                    4.5861690

 ------------------------------------------------------------------------------------

*** tstop() called on moses-razer at Wed Jan  3 15:49:31 2024
Module time:
	user time   =       2.30 seconds =       0.04 minutes
	system time =       0.01 seconds =       0.00 minutes
	total time  =          0 seconds =       0.00 minutes
Total time:
	user time   =       8.04 seconds =       0.13 minutes
	system time =       0.14 seconds =       0.00 minutes
	total time  =          1 seconds =       0.02 minutes
  Constructing Basis Sets for SAPT...

   => Loading Basis Set <=

    Name: (AUG-CC-PVTZ AUX)
    Role: RIFIT
    Keyword: DF_BASIS_SAPT
    atoms 1   entry O          line   264 file /home/kchung25/anaconda3/envs/p415env/share/psi4/basis/aug-cc-pvtz-ri.gbs 
    atoms 2-3 entry H          line    30 file /home/kchung25/anaconda3/envs/p415env/share/psi4/basis/aug-cc-pvtz-ri.gbs 
    atoms 4   entry F          line   322 file /home/kchung25/anaconda3/envs/p415env/share/psi4/basis/aug-cc-pvtz-ri.gbs 

   => Loading Basis Set <=

    Name: (AUG-CC-PVTZ AUX)
    Role: JKFIT
    Keyword: DF_BASIS_ELST
    atoms 1   entry O          line   286 file /home/kchung25/anaconda3/envs/p415env/share/psi4/basis/aug-cc-pvtz-jkfit.gbs 
    atoms 2-3 entry H          line    70 file /home/kchung25/anaconda3/envs/p415env/share/psi4/basis/aug-cc-pvtz-jkfit.gbs 
    atoms 4   entry F          line   348 file /home/kchung25/anaconda3/envs/p415env/share/psi4/basis/aug-cc-pvtz-jkfit.gbs 


  //>>>>>>>>>>>>>>>>>>>>>>>>>>>>>>>>>>>//
  //               SAPT2+              //
  //<<<<<<<<<<<<<<<<<<<<<<<<<<<<<<<<<<<//


*** tstart() called on moses-razer
*** at Wed Jan  3 15:49:31 2024

        SAPT2+  
    Ed Hohenstein
     6 June 2009

      Orbital Information
  --------------------------
    NSO        =       138
    NMO        =       138
    NRI        =       304
    NOCC A     =         5
    NOCC B     =         5
    FOCC A     =         0
    FOCC B     =         0
    NVIR A     =       133
    NVIR B     =       133

    Estimated memory usage: 53.6 MB

    Natural Orbital Cutoff:   1.000E-06
    Disp(T3) Truncation:            Yes
    CCD (vv|vv) Truncation:         Yes
    MBPT T2 Truncation:             Yes

    Monomer A: 53 virtual orbitals dropped
    Monomer B: 76 virtual orbitals dropped

    Elst10,r            =    -0.050562098913 [Eh]
    Exch10 (S^2)        =     0.039916505779 [Eh]
    Exch10              =     0.040469838867 [Eh]
    Ind20,r (A<-B)      =    -0.013067191002 [Eh]
    Ind20,r (B<-A)      =    -0.015126655654 [Eh]
    Ind20,r             =    -0.028193846655 [Eh]
    Exch-Ind20,r (A<-B) =     0.004036216924 [Eh]
    Exch-Ind20,r (B<-A) =     0.012869467868 [Eh]
    Exch-Ind20,r        =     0.016905684792 [Eh]
    Disp20              =    -0.011366539823 [Eh]
    Disp20 (NO)         =    -0.009575662473 [Eh]
    Exch-Disp20         =     0.003688269726 [Eh]
    Elst12,r            =    -0.002411263399 [Eh]
    Exch11              =     0.000212347486 [Eh]
    Exch12              =     0.010504507140 [Eh]
    Ind22               =    -0.007761997279 [Eh]
    Disp21              =     0.000314718742 [Eh]
    Disp22 (SDQ)        =    -0.001277092523 [Eh]

    (i =   1 of   5)          1 seconds
    (i =   2 of   5)          1 seconds
    (i =   3 of   5)          1 seconds
    (i =   4 of   5)          1 seconds
    (i =   5 of   5)          1 seconds

    Disp220 (T)         =    -0.000839705884 [Eh]

    (i =   1 of   5)          0 seconds
    (i =   2 of   5)          0 seconds
    (i =   3 of   5)          0 seconds
    (i =   4 of   5)          0 seconds
    (i =   5 of   5)          0 seconds

    Disp202 (T)         =    -0.001166143390 [Eh]

    Disp22 (T)          =    -0.002005849274 [Eh]

    Est. Disp220 (T)    =    -0.000996750919 [Eh]
    Est. Disp202 (T)    =    -0.001384240027 [Eh]

    Est. Disp22 (T)     =    -0.002380990946 [Eh]

    SAPT Results 
  --------------------------------------------------------------------------------------------------------
    Electrostatics                -52.97336231 [mEh]     -33.24128671 [kcal/mol]    -139.08154359 [kJ/mol]
      Elst10,r                    -50.56209891 [mEh]     -31.72819608 [kcal/mol]    -132.75077241 [kJ/mol]
      Elst12,r                     -2.41126340 [mEh]      -1.51309063 [kcal/mol]      -6.33077118 [kJ/mol]

    Exchange                       51.18669349 [mEh]      32.12013510 [kcal/mol]     134.39064525 [kJ/mol]
      Exch10                       40.46983887 [mEh]      25.39520729 [kcal/mol]     106.25354731 [kJ/mol]
      Exch10(S^2)                  39.91650578 [mEh]      25.04798554 [kcal/mol]     104.80077149 [kJ/mol]
      Exch11(S^2)                   0.21234749 [mEh]       0.13325006 [kcal/mol]       0.55751825 [kJ/mol]
      Exch12(S^2)                  10.50450714 [mEh]       6.59167775 [kcal/mol]      27.57957970 [kJ/mol]

    Induction                     -17.97402390 [mEh]     -11.27887028 [kcal/mol]     -47.19079326 [kJ/mol]
      Ind20,r                     -28.19384666 [mEh]     -17.69190588 [kcal/mol]     -74.02293420 [kJ/mol]
      Ind22                        -7.76199728 [mEh]      -4.87072683 [kcal/mol]     -20.37912105 [kJ/mol]
      Exch-Ind20,r                 16.90568479 [mEh]      10.60847737 [kcal/mol]      44.38586931 [kJ/mol]
      Exch-Ind22                    4.65427371 [mEh]       2.92060085 [kcal/mol]      12.21979395 [kJ/mol]
      delta HF,r (2)               -3.57813847 [mEh]      -2.24531579 [kcal/mol]      -9.39440127 [kJ/mol]

    Dispersion                    -11.02163482 [mEh]      -6.91618027 [kcal/mol]     -28.93729824 [kJ/mol]
      Disp20                      -11.36653982 [mEh]      -7.13261142 [kcal/mol]     -29.84284619 [kJ/mol]
      Disp21                        0.31471874 [mEh]       0.19748899 [kcal/mol]       0.82629394 [kJ/mol]
      Disp22 (SDQ)                 -1.27709252 [mEh]      -0.80138766 [kcal/mol]      -3.35300596 [kJ/mol]
      Disp22 (T)                   -2.00584927 [mEh]      -1.25868942 [kcal/mol]      -5.26635654 [kJ/mol]
      Est. Disp22 (T)              -2.38099095 [mEh]      -1.49409438 [kcal/mol]      -6.25129087 [kJ/mol]
      Exch-Disp20                   3.68826973 [mEh]       2.31442419 [kcal/mol]       9.68355083 [kJ/mol]

  Total HF                        -24.95856039 [mEh]     -15.66173309 [kcal/mol]     -65.52869126 [kJ/mol]
  Total SAPT0                     -32.63683048 [mEh]     -20.47992032 [kcal/mol]     -85.68798662 [kJ/mol]
  Total SAPT2                     -27.43896282 [mEh]     -17.21820912 [kcal/mol]     -72.04098696 [kJ/mol]
  Total SAPT2+                    -30.78232755 [mEh]     -19.31620216 [kcal/mol]     -80.81898984 [kJ/mol]

  Special recipe for scaled SAPT0 (see Manual):
    Electrostatics sSAPT0         -50.56209891 [mEh]     -31.72819608 [kcal/mol]    -132.75077241 [kJ/mol]
    Exchange sSAPT0                40.46983887 [mEh]      25.39520729 [kcal/mol]     106.25354731 [kJ/mol]
    Induction sSAPT0              -14.15345627 [mEh]      -8.88142790 [kcal/mol]     -37.15989431 [kJ/mol]
    Dispersion sSAPT0              -7.52275074 [mEh]      -4.72059736 [kcal/mol]     -19.75097935 [kJ/mol]
  Total sSAPT0                    -31.76846706 [mEh]     -19.93501405 [kcal/mol]     -83.40809877 [kJ/mol]
  --------------------------------------------------------------------------------------------------------

*** tstop() called on moses-razer at Wed Jan  3 15:49:34 2024
Module time:
	user time   =      17.45 seconds =       0.29 minutes
	system time =       1.09 seconds =       0.02 minutes
	total time  =          3 seconds =       0.05 minutes
Total time:
	user time   =      25.75 seconds =       0.43 minutes
	system time =       1.24 seconds =       0.02 minutes
	total time  =          4 seconds =       0.07 minutes

    Psi4 stopped on: Wednesday, 03 January 2024 03:49PM
    Psi4 wall time for execution: 0:00:04.64

*** Psi4 exiting successfully. Buy a developer a beer!
