
    -----------------------------------------------------------------------
          Psi4: An Open-Source Ab Initio Electronic Structure Package
                               Psi4 1.9 release

                         Git: Rev {} zzzzzzz 


    D. G. A. Smith, L. A. Burns, A. C. Simmonett, R. M. Parrish,
    M. C. Schieber, R. Galvelis, P. Kraus, H. Kruse, R. Di Remigio,
    A. Alenaizan, A. M. James, S. Lehtola, J. P. Misiewicz, M. Scheurer,
    R. A. Shaw, J. B. Schriber, Y. Xie, Z. L. Glick, D. A. Sirianni,
    J. S. O'Brien, J. M. Waldrop, A. Kumar, E. G. Hohenstein,
    B. P. Pritchard, B. R. Brooks, H. F. Schaefer III, A. Yu. Sokolov,
    K. Patkowski, A. E. DePrince III, U. Bozkaya, R. A. King,
    F. A. Evangelista, J. M. Turney, T. D. Crawford, C. D. Sherrill,
    J. Chem. Phys. 152(18) 184108 (2020). https://doi.org/10.1063/5.0006002

                            Additional Code Authors
    E. T. Seidl, C. L. Janssen, E. F. Valeev, M. L. Leininger,
    J. F. Gonthier, R. M. Richard, H. R. McAlexander, M. Saitow, X. Wang,
    P. Verma, M. H. Lechner, A. Jiang, S. Behnle, A. G. Heide,
    M. F. Herbst, and D. L. Poole

             Previous Authors, Complete List of Code Contributors,
                       and Citations for Specific Modules
    https://github.com/psi4/psi4/blob/master/codemeta.json
    https://github.com/psi4/psi4/graphs/contributors
    http://psicode.org/psi4manual/master/introduction.html#citing-psifour

    -----------------------------------------------------------------------


    Psi4 started on: Wednesday, 03 January 2024 04:00PM

    Process ID: 412612
    Host:       moses-razer
    PSIDATADIR: /home/kchung25/anaconda3/envs/psi4_19/share/psi4
    Memory:     500.0 MiB
    Threads:    6
    
  ==> Input File <==

--------------------------------------------------------------------------
MEMORY 60 GB

molecule dimer {
0 1
O      0.000000     0.000000     0.000000
H      0.172148     0.942740     0.000000
H      0.916757    -0.359212     0.000000
--
-1 1
Br     3.212066     0.000000     0.000000

units ang
no_reorient
no_com
symmetry c1
}

set {
basis        aug-cc-pVTZ
scf_type     df
}

energy("sapt2+")
--------------------------------------------------------------------------

  Memory set to  55.879 GiB by Python driver.

Scratch directory: /scratch/
   => Loading Basis Set <=

    Name: AUG-CC-PVTZ
    Role: ORBITAL
    Keyword: BASIS
    atoms 1   entry O          line   331 file /home/kchung25/anaconda3/envs/p415env/share/psi4/basis/aug-cc-pvtz.gbs 
    atoms 2-3 entry H          line    40 file /home/kchung25/anaconda3/envs/p415env/share/psi4/basis/aug-cc-pvtz.gbs 
    atoms 4   entry BR         line  4564 file /home/kchung25/anaconda3/envs/p415env/share/psi4/basis/aug-cc-pvtz.gbs 

   => Loading Basis Set <=

    Name: AUG-CC-PVTZ
    Role: ORBITAL
    Keyword: BASIS
    atoms 1   entry O          line   331 file /home/kchung25/anaconda3/envs/p415env/share/psi4/basis/aug-cc-pvtz.gbs 
    atoms 2-3 entry H          line    40 file /home/kchung25/anaconda3/envs/p415env/share/psi4/basis/aug-cc-pvtz.gbs 
    atoms 4   entry BR         line  4564 file /home/kchung25/anaconda3/envs/p415env/share/psi4/basis/aug-cc-pvtz.gbs 


  //>>>>>>>>>>>>>>>>>>>>>>>>>>>>>>>>>>>//
  //              Dimer HF             //
  //<<<<<<<<<<<<<<<<<<<<<<<<<<<<<<<<<<<//

   => Libint2 <=

    Primary   basis highest AM E, G, H:  5, 4, 3
    Auxiliary basis highest AM E, G, H:  6, 5, 4
    Onebody   basis highest AM E, G, H:  6, 5, 4
    Solid Harmonics ordering:            gaussian

*** tstart() called on moses-razer
*** at Wed Jan  3 16:00:52 2024

   => Loading Basis Set <=

    Name: AUG-CC-PVTZ
    Role: ORBITAL
    Keyword: BASIS
    atoms 1   entry O          line   331 file /home/kchung25/anaconda3/envs/p415env/share/psi4/basis/aug-cc-pvtz.gbs 
    atoms 2-3 entry H          line    40 file /home/kchung25/anaconda3/envs/p415env/share/psi4/basis/aug-cc-pvtz.gbs 
    atoms 4   entry BR         line  4564 file /home/kchung25/anaconda3/envs/p415env/share/psi4/basis/aug-cc-pvtz.gbs 


         ---------------------------------------------------------
                                   SCF
               by Justin Turney, Rob Parrish, Andy Simmonett
                          and Daniel G. A. Smith
                              RHF Reference
                        6 Threads,  57220 MiB Core
         ---------------------------------------------------------

  ==> Geometry <==

    Molecular point group: c1
    Full point group: Cs

    Geometry (in Angstrom), charge = -1, multiplicity = 1:

       Center              X                  Y                   Z               Mass       
    ------------   -----------------  -----------------  -----------------  -----------------
         O            0.000000000000     0.000000000000     0.000000000000    15.994914619570
         H            0.172148000000     0.942740000000     0.000000000000     1.007825032230
         H            0.916757000000    -0.359212000000     0.000000000000     1.007825032230
         BR           3.212066000000     0.000000000000     0.000000000000    78.918337600000

  Running in c1 symmetry.

  Rotational constants: A =     16.43490  B =      0.02068  C =      0.02066 [cm^-1]
  Rotational constants: A = 492705.91363  B =    620.01596  C =    619.23672 [MHz]
  Nuclear repulsion =   68.990313731450001

  Charge       = -1
  Multiplicity = 1
  Electrons    = 46
  Nalpha       = 23
  Nbeta        = 23

  ==> Algorithm <==

  SCF Algorithm Type is DF.
  DIIS enabled.
  MOM disabled.
  Fractional occupation disabled.
  Guess Type is SAD.
  Energy threshold   = 1.00e-08
  Density threshold  = 1.00e-08
  Integral threshold = 1.00e-12

  ==> Primary Basis <==

  Basis Set: AUG-CC-PVTZ
    Blend: AUG-CC-PVTZ
    Number of shells: 51
    Number of basis functions: 151
    Number of Cartesian functions: 174
    Spherical Harmonics?: true
    Max angular momentum: 3

   => Loading Basis Set <=

    Name: (AUG-CC-PVTZ AUX)
    Role: JKFIT
    Keyword: DF_BASIS_SCF
    atoms 1   entry O          line   286 file /home/kchung25/anaconda3/envs/p415env/share/psi4/basis/aug-cc-pvtz-jkfit.gbs 
    atoms 2-3 entry H          line    70 file /home/kchung25/anaconda3/envs/p415env/share/psi4/basis/aug-cc-pvtz-jkfit.gbs 
    atoms 4   entry BR         line  1492 file /home/kchung25/anaconda3/envs/p415env/share/psi4/basis/aug-cc-pvtz-jkfit.gbs 

  ==> Integral Setup <==

  ==> DiskDFJK: Density-Fitted J/K Matrices <==

    J tasked:                  Yes
    K tasked:                  Yes
    wK tasked:                  No
    OpenMP threads:              6
    Integrals threads:           6
    Memory [MiB]:            42915
    Algorithm:                Core
    Integral Cache:           SAVE
    Schwarz Cutoff:          1E-12
    Fitting Condition:       1E-10

   => Auxiliary Basis Set <=

  Basis Set: (AUG-CC-PVTZ AUX)
    Blend: AUG-CC-PVTZ-JKFIT
    Number of shells: 116
    Number of basis functions: 444
    Number of Cartesian functions: 570
    Spherical Harmonics?: true
    Max angular momentum: 4

  Minimum eigenvalue in the overlap matrix is 3.0108942421E-04.
  Reciprocal condition number of the overlap matrix is 3.9170616583E-05.
    Using symmetric orthogonalization.

  ==> Pre-Iterations <==

  SCF Guess: Superposition of Atomic Densities via on-the-fly atomic UHF (no occupation information).

   -------------------------
    Irrep   Nso     Nmo    
   -------------------------
     A        151     151 
   -------------------------
    Total     151     151
   -------------------------

  ==> Iterations <==

                           Total Energy        Delta E     RMS |[F,P]|

   @DF-RHF iter SAD: -2645.96918204337317   -2.64597e+03   0.00000e+00 
   @DF-RHF iter   1: -2648.27384766590149   -2.30467e+00   7.52816e-03 DIIS/ADIIS
   @DF-RHF iter   2: -2648.52092702812661   -2.47079e-01   4.20182e-03 DIIS/ADIIS
   @DF-RHF iter   3: -2648.60688184379933   -8.59548e-02   2.31327e-04 DIIS/ADIIS
   @DF-RHF iter   4: -2648.60743452354882   -5.52680e-04   1.20847e-04 DIIS/ADIIS
   @DF-RHF iter   5: -2648.60756269551393   -1.28172e-04   1.88446e-05 DIIS
   @DF-RHF iter   6: -2648.60757293813185   -1.02426e-05   4.06634e-06 DIIS
   @DF-RHF iter   7: -2648.60757355701116   -6.18879e-07   1.03821e-06 DIIS
   @DF-RHF iter   8: -2648.60757359611171   -3.91005e-08   2.57960e-07 DIIS
   @DF-RHF iter   9: -2648.60757359828767   -2.17597e-09   6.07852e-08 DIIS
   @DF-RHF iter  10: -2648.60757359837680   -8.91305e-11   1.51986e-08 DIIS
   @DF-RHF iter  11: -2648.60757359838317   -6.36646e-12   3.30707e-09 DIIS
  Energy and wave function converged.


  ==> Post-Iterations <==

    Orbital Energies [Eh]
    ---------------------

    Doubly Occupied:                                                      

       1A   -489.741214     2A    -64.881499     3A    -58.235985  
       4A    -58.235965     5A    -58.235954     6A    -20.385835  
       7A     -9.553987     8A     -7.161511     9A     -7.161359  
      10A     -7.161301    11A     -2.903155    12A     -2.903115  
      13A     -2.903054    14A     -2.902883    15A     -2.902880  
      16A     -1.169042    17A     -0.712548    18A     -0.525176  
      19A     -0.417041    20A     -0.331749    21A     -0.165955  
      22A     -0.162358    23A     -0.161619  

    Virtual:                                                              

      24A      0.144263    25A      0.169372    26A      0.230755  
      27A      0.241050    28A      0.252520    29A      0.277827  
      30A      0.295346    31A      0.302797    32A      0.336135  
      33A      0.349405    34A      0.404807    35A      0.410886  
      36A      0.422339    37A      0.462343    38A      0.472882  
      39A      0.492835    40A      0.521094    41A      0.555945  
      42A      0.567089    43A      0.588791    44A      0.594843  
      45A      0.624828    46A      0.681996    47A      0.734565  
      48A      0.743492    49A      0.745313    50A      0.822444  
      51A      0.857630    52A      0.885281    53A      0.887780  
      54A      0.893449    55A      0.973077    56A      1.004129  
      57A      1.012824    58A      1.018550    59A      1.029571  
      60A      1.039889    61A      1.048468    62A      1.073978  
      63A      1.093916    64A      1.106441    65A      1.106886  
      66A      1.162026    67A      1.179425    68A      1.188418  
      69A      1.190258    70A      1.193076    71A      1.248666  
      72A      1.258762    73A      1.284647    74A      1.339045  
      75A      1.374441    76A      1.382173    77A      1.398652  
      78A      1.462598    79A      1.516308    80A      1.580764  
      81A      1.613095    82A      1.696437    83A      1.701944  
      84A      1.785401    85A      1.802463    86A      2.037364  
      87A      2.062332    88A      2.196666    89A      2.377264  
      90A      2.405974    91A      2.436531    92A      2.436837  
      93A      2.507414    94A      2.511990    95A      2.538507  
      96A      2.549787    97A      2.557572    98A      2.567723  
      99A      2.568712   100A      2.571150   101A      2.592754  
     102A      2.616787   103A      2.639363   104A      2.660487  
     105A      2.669342   106A      2.690174   107A      2.704839  
     108A      2.747161   109A      2.777162   110A      2.777239  
     111A      2.910552   112A      2.917370   113A      3.009197  
     114A      3.093966   115A      3.104956   116A      3.133000  
     117A      3.878345   118A      4.056632   119A      4.221684  
     120A      4.325564   121A      4.343570   122A      4.432557  
     123A      4.436182   124A      4.488493   125A      4.564223  
     126A      4.619239   127A      4.648881   128A      4.771098  
     129A      4.989478   130A      5.067513   131A      5.299206  
     132A      5.389539   133A      5.434715   134A      5.512782  
     135A      5.689792   136A      5.819141   137A      6.405790  
     138A      6.706790   139A      6.934259   140A      7.130801  
     141A      7.295786   142A      7.453289   143A      7.463903  
     144A      7.487971   145A      7.573581   146A      7.576663  
     147A      7.778013   148A      8.085578   149A      8.136773  
     150A      8.977523   151A     16.049660  

    Final Occupation by Irrep:
              A 
    DOCC [    23 ]
    NA   [    23 ]
    NB   [    23 ]

  @DF-RHF Final Energy: -2648.60757359838317

   => Energetics <=

    Nuclear Repulsion Energy =             68.9903137314500015
    One-Electron Energy =               -3837.3654033113166406
    Two-Electron Energy =                1119.7675159814832568
    Total Energy =                      -2648.6075735983831692

Computation Completed


Properties will be evaluated at   0.000000,   0.000000,   0.000000 [a0]

Properties computed using the SCF density matrix


 Multipole Moments:

 ------------------------------------------------------------------------------------
     Multipole            Electronic (a.u.)      Nuclear  (a.u.)        Total (a.u.)
 ------------------------------------------------------------------------------------

 L = 1.  Multiply by 2.5417464519 to convert [e a0] to [Debye]
 Dipole X            :       -219.3954033          214.5051085           -4.8902948
 Dipole Y            :         -0.7380348            1.1027081            0.3646733
 Dipole Z            :          0.0000000            0.0000000            0.0000000
 Magnitude           :                                                    4.9038729

 ------------------------------------------------------------------------------------

*** tstop() called on moses-razer at Wed Jan  3 16:00:55 2024
Module time:
	user time   =       8.05 seconds =       0.13 minutes
	system time =       0.95 seconds =       0.02 minutes
	total time  =          3 seconds =       0.05 minutes
Total time:
	user time   =       8.05 seconds =       0.13 minutes
	system time =       0.95 seconds =       0.02 minutes
	total time  =          3 seconds =       0.05 minutes

  //>>>>>>>>>>>>>>>>>>>>>>>>>>>>>>>>>>>//
  //            Monomer A HF           //
  //<<<<<<<<<<<<<<<<<<<<<<<<<<<<<<<<<<<//

   => Libint2 <=

    Primary   basis highest AM E, G, H:  5, 4, 3
    Auxiliary basis highest AM E, G, H:  6, 5, 4
    Onebody   basis highest AM E, G, H:  6, 5, 4
    Solid Harmonics ordering:            gaussian

*** tstart() called on moses-razer
*** at Wed Jan  3 16:00:55 2024

   => Loading Basis Set <=

    Name: AUG-CC-PVTZ
    Role: ORBITAL
    Keyword: BASIS
    atoms 1   entry O          line   331 file /home/kchung25/anaconda3/envs/p415env/share/psi4/basis/aug-cc-pvtz.gbs 
    atoms 2-3 entry H          line    40 file /home/kchung25/anaconda3/envs/p415env/share/psi4/basis/aug-cc-pvtz.gbs 
    atoms 4   entry BR         line  4564 file /home/kchung25/anaconda3/envs/p415env/share/psi4/basis/aug-cc-pvtz.gbs 


         ---------------------------------------------------------
                                   SCF
               by Justin Turney, Rob Parrish, Andy Simmonett
                          and Daniel G. A. Smith
                              RHF Reference
                        6 Threads,  57220 MiB Core
         ---------------------------------------------------------

  ==> Geometry <==

    Molecular point group: c1
    Full point group: Cs

    Geometry (in Angstrom), charge = 0, multiplicity = 1:

       Center              X                  Y                   Z               Mass       
    ------------   -----------------  -----------------  -----------------  -----------------
         O            0.000000000000     0.000000000000     0.000000000000    15.994914619570
         H            0.172148000000     0.942740000000     0.000000000000     1.007825032230
         H            0.916757000000    -0.359212000000     0.000000000000     1.007825032230
      Gh(BR)          3.212066000000     0.000000000000     0.000000000000    78.918337600000

  Running in c1 symmetry.

  Rotational constants: A =     16.43490  B =      0.02068  C =      0.02066 [cm^-1]
  Rotational constants: A = 492705.91363  B =    620.01596  C =    619.23672 [MHz]
  Nuclear repulsion =    9.069868047400480

  Charge       = 0
  Multiplicity = 1
  Electrons    = 10
  Nalpha       = 5
  Nbeta        = 5

  ==> Algorithm <==

  SCF Algorithm Type is DF.
  DIIS enabled.
  MOM disabled.
  Fractional occupation disabled.
  Guess Type is SAD.
  Energy threshold   = 1.00e-08
  Density threshold  = 1.00e-08
  Integral threshold = 1.00e-12

  ==> Primary Basis <==

  Basis Set: AUG-CC-PVTZ
    Blend: AUG-CC-PVTZ
    Number of shells: 51
    Number of basis functions: 151
    Number of Cartesian functions: 174
    Spherical Harmonics?: true
    Max angular momentum: 3

   => Loading Basis Set <=

    Name: (AUG-CC-PVTZ AUX)
    Role: JKFIT
    Keyword: DF_BASIS_SCF
    atoms 1   entry O          line   286 file /home/kchung25/anaconda3/envs/p415env/share/psi4/basis/aug-cc-pvtz-jkfit.gbs 
    atoms 2-3 entry H          line    70 file /home/kchung25/anaconda3/envs/p415env/share/psi4/basis/aug-cc-pvtz-jkfit.gbs 
    atoms 4   entry BR         line  1492 file /home/kchung25/anaconda3/envs/p415env/share/psi4/basis/aug-cc-pvtz-jkfit.gbs 

  ==> Integral Setup <==

  ==> DiskDFJK: Density-Fitted J/K Matrices <==

    J tasked:                  Yes
    K tasked:                  Yes
    wK tasked:                  No
    OpenMP threads:              6
    Integrals threads:           6
    Memory [MiB]:            42915
    Algorithm:                Core
    Integral Cache:           LOAD
    Schwarz Cutoff:          1E-12
    Fitting Condition:       1E-10

   => Auxiliary Basis Set <=

  Basis Set: (AUG-CC-PVTZ AUX)
    Blend: AUG-CC-PVTZ-JKFIT
    Number of shells: 116
    Number of basis functions: 444
    Number of Cartesian functions: 570
    Spherical Harmonics?: true
    Max angular momentum: 4

  Minimum eigenvalue in the overlap matrix is 3.0108942421E-04.
  Reciprocal condition number of the overlap matrix is 3.9170616583E-05.
    Using symmetric orthogonalization.

  ==> Pre-Iterations <==

  SCF Guess: Superposition of Atomic Densities via on-the-fly atomic UHF (no occupation information).

   -------------------------
    Irrep   Nso     Nmo    
   -------------------------
     A        151     151 
   -------------------------
    Total     151     151
   -------------------------

  ==> Iterations <==

                           Total Energy        Delta E     RMS |[F,P]|

   @DF-RHF iter SAD:   -75.46503788302277   -7.54650e+01   0.00000e+00 
   @DF-RHF iter   1:   -75.97319298781738   -5.08155e-01   3.09801e-03 DIIS/ADIIS
   @DF-RHF iter   2:   -76.02542527378863   -5.22323e-02   2.14860e-03 DIIS/ADIIS
   @DF-RHF iter   3:   -76.05810990829623   -3.26846e-02   1.46770e-04 DIIS/ADIIS
   @DF-RHF iter   4:   -76.05851673424630   -4.06826e-04   3.58908e-05 DIIS
   @DF-RHF iter   5:   -76.05854401717090   -2.72829e-05   8.38159e-06 DIIS
   @DF-RHF iter   6:   -76.05854633192675   -2.31476e-06   1.81903e-06 DIIS
   @DF-RHF iter   7:   -76.05854644970410   -1.17777e-07   3.10266e-07 DIIS
   @DF-RHF iter   8:   -76.05854645264981   -2.94571e-09   5.21413e-08 DIIS
   @DF-RHF iter   9:   -76.05854645271526   -6.54552e-11   1.28331e-08 DIIS
   @DF-RHF iter  10:   -76.05854645271953   -4.26326e-12   2.08170e-09 DIIS
  Energy and wave function converged.


  ==> Post-Iterations <==

    Orbital Energies [Eh]
    ---------------------

    Doubly Occupied:                                                      

       1A    -20.571163     2A     -1.348970     3A     -0.703449  
       4A     -0.588896     5A     -0.510229  

    Virtual:                                                              

       6A      0.025247     7A      0.045591     8A      0.067852  
       9A      0.072536    10A      0.089255    11A      0.101181  
      12A      0.170106    13A      0.171672    14A      0.179926  
      15A      0.197021    16A      0.245456    17A      0.259847  
      18A      0.261428    19A      0.278977    20A      0.289174  
      21A      0.301366    22A      0.325248    23A      0.331454  
      24A      0.334854    25A      0.343905    26A      0.389828  
      27A      0.425570    28A      0.438672    29A      0.449497  
      30A      0.457007    31A      0.523507    32A      0.562012  
      33A      0.640481    34A      0.687856    35A      0.728884  
      36A      0.734111    37A      0.737212    38A      0.859803  
      39A      0.882551    40A      0.897093    41A      0.901327  
      42A      0.915775    43A      0.929788    44A      0.947329  
      45A      0.947734    46A      0.974257    47A      0.993039  
      48A      1.003896    49A      1.029546    50A      1.035668  
      51A      1.039992    52A      1.074352    53A      1.086790  
      54A      1.096144    55A      1.100796    56A      1.135331  
      57A      1.148454    58A      1.154330    59A      1.174269  
      60A      1.233621    61A      1.238438    62A      1.239753  
      63A      1.253495    64A      1.342023    65A      1.403549  
      66A      1.466183    67A      1.469944    68A      1.545445  
      69A      1.628953    70A      1.641600    71A      1.647107  
      72A      1.872378    73A      1.946065    74A      2.036268  
      75A      2.276718    76A      2.281573    77A      2.363200  
      78A      2.387368    79A      2.473575    80A      2.490194  
      81A      2.523778    82A      2.613723    83A      2.702046  
      84A      2.734429    85A      2.814558    86A      2.852350  
      87A      2.865586    88A      2.896485    89A      2.920774  
      90A      3.077463    91A      3.107636    92A      3.108276  
      93A      3.126393    94A      3.141103    95A      3.172595  
      96A      3.227401    97A      3.267863    98A      3.278455  
      99A      3.282687   100A      3.355102   101A      3.360580  
     102A      3.408269   103A      3.580475   104A      3.714587  
     105A      3.914340   106A      4.037293   107A      4.160687  
     108A      4.163772   109A      4.253363   110A      4.287527  
     111A      4.388541   112A      4.403709   113A      4.430366  
     114A      4.591996   115A      4.808955   116A      4.885134  
     117A      5.116253   118A      5.199988   119A      5.255668  
     120A      5.331036   121A      5.509913   122A      5.640537  
     123A      6.226484   124A      6.528430   125A      6.756299  
     126A      6.950481   127A      7.118455   128A      7.273739  
     129A      7.284262   130A      7.311156   131A      7.389159  
     132A      7.397681   133A      7.597603   134A      7.904531  
     135A      7.958174   136A      8.793077   137A      9.790148  
     138A     13.444556   139A     13.461361   140A     13.732058  
     141A     15.878536   142A     26.117901   143A     26.122341  
     144A     26.187435   145A     26.205555   146A     26.327372  
     147A     45.648831   148A    138.398764   149A    138.427052  
     150A    138.856302   151A    709.220506  

    Final Occupation by Irrep:
              A 
    DOCC [     5 ]
    NA   [     5 ]
    NB   [     5 ]

  @DF-RHF Final Energy:   -76.05854645271953

   => Energetics <=

    Nuclear Repulsion Energy =              9.0698680474004796
    One-Electron Energy =                -122.8114127725408906
    Two-Electron Energy =                  37.6829982724208890
    Total Energy =                        -76.0585464527195256

Computation Completed


Properties will be evaluated at   0.000000,   0.000000,   0.000000 [a0]

Properties computed using the SCF density matrix


 Multipole Moments:

 ------------------------------------------------------------------------------------
     Multipole            Electronic (a.u.)      Nuclear  (a.u.)        Total (a.u.)
 ------------------------------------------------------------------------------------

 L = 1.  Multiply by 2.5417464519 to convert [e a0] to [Debye]
 Dipole X            :         -1.3488507            2.0577322            0.7088816
 Dipole Y            :         -0.7173552            1.1027081            0.3853529
 Dipole Z            :         -0.0000000            0.0000000           -0.0000000
 Magnitude           :                                                    0.8068518

 ------------------------------------------------------------------------------------

*** tstop() called on moses-razer at Wed Jan  3 16:00:57 2024
Module time:
	user time   =       4.11 seconds =       0.07 minutes
	system time =       0.34 seconds =       0.01 minutes
	total time  =          2 seconds =       0.03 minutes
Total time:
	user time   =      12.19 seconds =       0.20 minutes
	system time =       1.29 seconds =       0.02 minutes
	total time  =          5 seconds =       0.08 minutes

  //>>>>>>>>>>>>>>>>>>>>>>>>>>>>>>>>>>>//
  //            Monomer B HF           //
  //<<<<<<<<<<<<<<<<<<<<<<<<<<<<<<<<<<<//

   => Libint2 <=

    Primary   basis highest AM E, G, H:  5, 4, 3
    Auxiliary basis highest AM E, G, H:  6, 5, 4
    Onebody   basis highest AM E, G, H:  6, 5, 4
    Solid Harmonics ordering:            gaussian

*** tstart() called on moses-razer
*** at Wed Jan  3 16:00:57 2024

   => Loading Basis Set <=

    Name: AUG-CC-PVTZ
    Role: ORBITAL
    Keyword: BASIS
    atoms 1   entry O          line   331 file /home/kchung25/anaconda3/envs/p415env/share/psi4/basis/aug-cc-pvtz.gbs 
    atoms 2-3 entry H          line    40 file /home/kchung25/anaconda3/envs/p415env/share/psi4/basis/aug-cc-pvtz.gbs 
    atoms 4   entry BR         line  4564 file /home/kchung25/anaconda3/envs/p415env/share/psi4/basis/aug-cc-pvtz.gbs 


         ---------------------------------------------------------
                                   SCF
               by Justin Turney, Rob Parrish, Andy Simmonett
                          and Daniel G. A. Smith
                              RHF Reference
                        6 Threads,  57220 MiB Core
         ---------------------------------------------------------

  ==> Geometry <==

    Molecular point group: c1
    Full point group: Cs

    Geometry (in Angstrom), charge = -1, multiplicity = 1:

       Center              X                  Y                   Z               Mass       
    ------------   -----------------  -----------------  -----------------  -----------------
      Gh(O)           0.000000000000     0.000000000000     0.000000000000    15.994914619570
      Gh(H)           0.172148000000     0.942740000000     0.000000000000     1.007825032230
      Gh(H)           0.916757000000    -0.359212000000     0.000000000000     1.007825032230
         BR           3.212066000000     0.000000000000     0.000000000000    78.918337600000

  Running in c1 symmetry.

  Rotational constants: A =     16.43490  B =      0.02068  C =      0.02066 [cm^-1]
  Rotational constants: A = 492705.91363  B =    620.01596  C =    619.23672 [MHz]
  Nuclear repulsion =    0.000000000000000

  Charge       = -1
  Multiplicity = 1
  Electrons    = 36
  Nalpha       = 18
  Nbeta        = 18

  ==> Algorithm <==

  SCF Algorithm Type is DF.
  DIIS enabled.
  MOM disabled.
  Fractional occupation disabled.
  Guess Type is SAD.
  Energy threshold   = 1.00e-08
  Density threshold  = 1.00e-08
  Integral threshold = 1.00e-12

  ==> Primary Basis <==

  Basis Set: AUG-CC-PVTZ
    Blend: AUG-CC-PVTZ
    Number of shells: 51
    Number of basis functions: 151
    Number of Cartesian functions: 174
    Spherical Harmonics?: true
    Max angular momentum: 3

   => Loading Basis Set <=

    Name: (AUG-CC-PVTZ AUX)
    Role: JKFIT
    Keyword: DF_BASIS_SCF
    atoms 1   entry O          line   286 file /home/kchung25/anaconda3/envs/p415env/share/psi4/basis/aug-cc-pvtz-jkfit.gbs 
    atoms 2-3 entry H          line    70 file /home/kchung25/anaconda3/envs/p415env/share/psi4/basis/aug-cc-pvtz-jkfit.gbs 
    atoms 4   entry BR         line  1492 file /home/kchung25/anaconda3/envs/p415env/share/psi4/basis/aug-cc-pvtz-jkfit.gbs 

  ==> Integral Setup <==

  ==> DiskDFJK: Density-Fitted J/K Matrices <==

    J tasked:                  Yes
    K tasked:                  Yes
    wK tasked:                  No
    OpenMP threads:              6
    Integrals threads:           6
    Memory [MiB]:            42915
    Algorithm:                Core
    Integral Cache:           LOAD
    Schwarz Cutoff:          1E-12
    Fitting Condition:       1E-10

   => Auxiliary Basis Set <=

  Basis Set: (AUG-CC-PVTZ AUX)
    Blend: AUG-CC-PVTZ-JKFIT
    Number of shells: 116
    Number of basis functions: 444
    Number of Cartesian functions: 570
    Spherical Harmonics?: true
    Max angular momentum: 4

  Minimum eigenvalue in the overlap matrix is 3.0108942421E-04.
  Reciprocal condition number of the overlap matrix is 3.9170616583E-05.
    Using symmetric orthogonalization.

  ==> Pre-Iterations <==

  SCF Guess: Superposition of Atomic Densities via on-the-fly atomic UHF (no occupation information).

   -------------------------
    Irrep   Nso     Nmo    
   -------------------------
     A        151     151 
   -------------------------
    Total     151     151
   -------------------------

  ==> Iterations <==

                           Total Energy        Delta E     RMS |[F,P]|

   @DF-RHF iter SAD: -2570.41423532852741   -2.57041e+03   0.00000e+00 
   @DF-RHF iter   1: -2572.25487252975699   -1.84064e+00   7.00393e-03 DIIS/ADIIS
   @DF-RHF iter   2: -2572.46416754862412   -2.09295e-01   3.89273e-03 DIIS/ADIIS
   @DF-RHF iter   3: -2572.53364595363792   -6.94784e-02   6.55200e-05 DIIS
   @DF-RHF iter   4: -2572.53368115694548   -3.52033e-05   7.62714e-06 DIIS
   @DF-RHF iter   5: -2572.53368229379294   -1.13685e-06   1.86697e-06 DIIS
   @DF-RHF iter   6: -2572.53368236897404   -7.51811e-08   3.50073e-07 DIIS
   @DF-RHF iter   7: -2572.53368237807535   -9.10131e-09   3.18833e-08 DIIS
   @DF-RHF iter   8: -2572.53368237815357   -7.82165e-11   1.02695e-08 DIIS
   @DF-RHF iter   9: -2572.53368237816176   -8.18545e-12   3.09715e-09 DIIS
  Energy and wave function converged.


  ==> Post-Iterations <==

    Orbital Energies [Eh]
    ---------------------

    Doubly Occupied:                                                      

       1A   -489.720824     2A    -64.860776     3A    -58.215266  
       4A    -58.215266     5A    -58.215262     6A     -9.532952  
       7A     -7.140303     8A     -7.140302     9A     -7.140277  
      10A     -2.881977    11A     -2.881976    12A     -2.881972  
      13A     -2.881970    14A     -2.881955    15A     -0.685999  
      16A     -0.139340    17A     -0.139340    18A     -0.139336  

    Virtual:                                                              

      19A      0.138810    20A      0.163655    21A      0.231760  
      22A      0.238652    23A      0.260727    24A      0.263846  
      25A      0.271476    26A      0.275289    27A      0.306463  
      28A      0.350713    29A      0.411713    30A      0.422461  
      31A      0.448087    32A      0.471390    33A      0.484358  
      34A      0.508318    35A      0.508562    36A      0.531348  
      37A      0.567922    38A      0.573905    39A      0.585996  
      40A      0.593970    41A      0.623113    42A      0.751918  
      43A      0.755014    44A      0.790434    45A      0.832272  
      46A      0.851806    47A      0.929842    48A      0.943672  
      49A      0.953345    50A      0.970243    51A      0.986986  
      52A      0.999373    53A      1.036036    54A      1.036571  
      55A      1.041666    56A      1.049096    57A      1.056153  
      58A      1.084509    59A      1.091471    60A      1.105966  
      61A      1.155984    62A      1.164711    63A      1.201820  
      64A      1.205847    65A      1.225157    66A      1.250474  
      67A      1.252492    68A      1.284625    69A      1.317416  
      70A      1.369313    71A      1.407735    72A      1.431706  
      73A      1.542960    74A      1.587513    75A      1.620790  
      76A      1.640539    77A      1.730013    78A      1.793584  
      79A      1.881196    80A      1.903968    81A      1.949702  
      82A      2.002053    83A      2.049402    84A      2.269057  
      85A      2.431383    86A      2.447367    87A      2.529716  
      88A      2.562275    89A      2.575739    90A      2.576973  
      91A      2.577007    92A      2.589288    93A      2.590138  
      94A      2.608125    95A      2.629009    96A      2.638765  
      97A      2.659723    98A      2.673797    99A      2.682119  
     100A      2.712051   101A      2.721727   102A      2.744451  
     103A      2.792005   104A      2.832128   105A      2.871660  
     106A      2.899826   107A      3.085309   108A      3.153765  
     109A      3.341541   110A      3.362347   111A      3.440897  
     112A      3.521483   113A      3.573710   114A      3.756164  
     115A      3.892435   116A      4.494490   117A      4.572306  
     118A      4.624954   119A      4.689774   120A      4.742356  
     121A      4.863568   122A      5.029503   123A      5.038081  
     124A      5.066130   125A      5.115210   126A      5.428927  
     127A      5.735634   128A      5.761280   129A      5.799629  
     130A      6.033208   131A      6.299401   132A      6.560644  
     133A      6.739500   134A      7.217281   135A      7.870226  
     136A      8.035658   137A      8.180646   138A      8.333629  
     139A      8.433681   140A      8.890239   141A      9.001796  
     142A      9.841060   143A     10.011368   144A     10.176396  
     145A     10.475509   146A     11.357460   147A     11.807248  
     148A     12.182030   149A     13.672119   150A     13.996271  
     151A     65.101576  

    Final Occupation by Irrep:
              A 
    DOCC [    18 ]
    NA   [    18 ]
    NB   [    18 ]

  @DF-RHF Final Energy: -2572.53368237816176

   => Energetics <=

    Nuclear Repulsion Energy =              0.0000000000000000
    One-Electron Energy =               -3593.6771759170196674
    Two-Electron Energy =                1021.1434935388581380
    Total Energy =                      -2572.5336823781617568

Computation Completed


Properties will be evaluated at   0.000000,   0.000000,   0.000000 [a0]

Properties computed using the SCF density matrix


 Multipole Moments:

 ------------------------------------------------------------------------------------
     Multipole            Electronic (a.u.)      Nuclear  (a.u.)        Total (a.u.)
 ------------------------------------------------------------------------------------

 L = 1.  Multiply by 2.5417464519 to convert [e a0] to [Debye]
 Dipole X            :       -218.5174817          212.4473763           -6.0701054
 Dipole Y            :         -0.0001558            0.0000000           -0.0001558
 Dipole Z            :          0.0000000            0.0000000            0.0000000
 Magnitude           :                                                    6.0701054

 ------------------------------------------------------------------------------------

*** tstop() called on moses-razer at Wed Jan  3 16:00:59 2024
Module time:
	user time   =       6.33 seconds =       0.11 minutes
	system time =       0.78 seconds =       0.01 minutes
	total time  =          2 seconds =       0.03 minutes
Total time:
	user time   =      18.54 seconds =       0.31 minutes
	system time =       2.07 seconds =       0.03 minutes
	total time  =          7 seconds =       0.12 minutes
  Constructing Basis Sets for SAPT...

   => Loading Basis Set <=

    Name: (AUG-CC-PVTZ AUX)
    Role: RIFIT
    Keyword: DF_BASIS_SAPT
    atoms 1   entry O          line   264 file /home/kchung25/anaconda3/envs/p415env/share/psi4/basis/aug-cc-pvtz-ri.gbs 
    atoms 2-3 entry H          line    30 file /home/kchung25/anaconda3/envs/p415env/share/psi4/basis/aug-cc-pvtz-ri.gbs 
    atoms 4   entry BR         line  1248 file /home/kchung25/anaconda3/envs/p415env/share/psi4/basis/aug-cc-pvtz-ri.gbs 

   => Loading Basis Set <=

    Name: (AUG-CC-PVTZ AUX)
    Role: JKFIT
    Keyword: DF_BASIS_ELST
    atoms 1   entry O          line   286 file /home/kchung25/anaconda3/envs/p415env/share/psi4/basis/aug-cc-pvtz-jkfit.gbs 
    atoms 2-3 entry H          line    70 file /home/kchung25/anaconda3/envs/p415env/share/psi4/basis/aug-cc-pvtz-jkfit.gbs 
    atoms 4   entry BR         line  1492 file /home/kchung25/anaconda3/envs/p415env/share/psi4/basis/aug-cc-pvtz-jkfit.gbs 


  //>>>>>>>>>>>>>>>>>>>>>>>>>>>>>>>>>>>//
  //               SAPT2+              //
  //<<<<<<<<<<<<<<<<<<<<<<<<<<<<<<<<<<<//


*** tstart() called on moses-razer
*** at Wed Jan  3 16:00:59 2024

        SAPT2+  
    Ed Hohenstein
     6 June 2009

      Orbital Information
  --------------------------
    NSO        =       151
    NMO        =       151
    NRI        =       389
    NOCC A     =         5
    NOCC B     =        18
    FOCC A     =         0
    FOCC B     =         0
    NVIR A     =       146
    NVIR B     =       133

    Estimated memory usage: 232.1 MB

    Natural Orbital Cutoff:   1.000E-06
    Disp(T3) Truncation:            Yes
    CCD (vv|vv) Truncation:         Yes
    MBPT T2 Truncation:             Yes

    Monomer A: 68 virtual orbitals dropped
    Monomer B: 74 virtual orbitals dropped

    Elst10,r            =    -0.029425968768 [Eh]
    Exch10 (S^2)        =     0.022633012352 [Eh]
    Exch10              =     0.022977678286 [Eh]
    Ind20,r (A<-B)      =    -0.006169457253 [Eh]
    Ind20,r (B<-A)      =    -0.013587531191 [Eh]
    Ind20,r             =    -0.019756988444 [Eh]
    Exch-Ind20,r (A<-B) =     0.003220443345 [Eh]
    Exch-Ind20,r (B<-A) =     0.010876142727 [Eh]
    Exch-Ind20,r        =     0.014096586071 [Eh]
    Disp20              =    -0.008765632004 [Eh]
    Disp20 (NO)         =    -0.007620450446 [Eh]
    Exch-Disp20         =     0.002260754660 [Eh]
    Elst12,r            =    -0.000094538038 [Eh]
    Exch11              =     0.000935858364 [Eh]
    Exch12              =     0.001570206571 [Eh]
    Ind22               =    -0.002594718755 [Eh]
    Disp21              =     0.000549523966 [Eh]
    Disp22 (SDQ)        =    -0.000002565817 [Eh]

    (i =   1 of  18)          0 seconds
    (i =   2 of  18)          1 seconds
    (i =   3 of  18)          1 seconds
    (i =   4 of  18)          1 seconds
    (i =   5 of  18)          1 seconds
    (i =   6 of  18)          1 seconds
    (i =   7 of  18)          1 seconds
    (i =   8 of  18)          1 seconds
    (i =   9 of  18)          2 seconds
    (i =  10 of  18)          2 seconds
    (i =  11 of  18)          2 seconds
    (i =  12 of  18)          2 seconds
    (i =  13 of  18)          2 seconds
    (i =  14 of  18)          2 seconds
    (i =  15 of  18)          2 seconds
    (i =  16 of  18)          2 seconds
    (i =  17 of  18)          3 seconds
    (i =  18 of  18)          3 seconds

    Disp220 (T)         =    -0.000775574192 [Eh]

    (i =   1 of   5)          1 seconds
    (i =   2 of   5)          1 seconds
    (i =   3 of   5)          2 seconds
    (i =   4 of   5)          3 seconds
    (i =   5 of   5)          4 seconds

    Disp202 (T)         =    -0.000558329347 [Eh]

    Disp22 (T)          =    -0.001333903539 [Eh]

    Est. Disp220 (T)    =    -0.000892125473 [Eh]
    Est. Disp202 (T)    =    -0.000642233636 [Eh]

    Est. Disp22 (T)     =    -0.001534359108 [Eh]

    SAPT Results 
  --------------------------------------------------------------------------------------------------------
    Electrostatics                -29.52050681 [mEh]     -18.52439769 [kcal/mol]     -77.50607994 [kJ/mol]
      Elst10,r                    -29.42596877 [mEh]     -18.46507418 [kcal/mol]     -77.25787036 [kJ/mol]
      Elst12,r                     -0.09453804 [mEh]      -0.05932351 [kcal/mol]      -0.24820958 [kJ/mol]

    Exchange                       25.48374322 [mEh]      15.99129030 [kcal/mol]      66.90755861 [kJ/mol]
      Exch10                       22.97767829 [mEh]      14.41871081 [kcal/mol]      60.32788603 [kJ/mol]
      Exch10(S^2)                  22.63301235 [mEh]      14.20242967 [kcal/mol]      59.42296574 [kJ/mol]
      Exch11(S^2)                   0.93585836 [mEh]       0.58725999 [kcal/mol]       2.45709580 [kJ/mol]
      Exch12(S^2)                   1.57020657 [mEh]       0.98531950 [kcal/mol]       4.12257678 [kJ/mol]

    Induction                      -9.63986725 [mEh]      -6.04910803 [kcal/mol]     -25.30946798 [kJ/mol]
      Ind20,r                     -19.75698844 [mEh]     -12.39769742 [kcal/mol]     -51.87196601 [kJ/mol]
      Ind22                        -2.59471876 [mEh]      -1.62821060 [kcal/mol]      -6.81243315 [kJ/mol]
      Exch-Ind20,r                 14.09658607 [mEh]       8.84574131 [kcal/mol]      37.01058163 [kJ/mol]
      Exch-Ind22                    1.85132852 [mEh]       1.16172619 [kcal/mol]       4.86066237 [kJ/mol]
      delta HF,r (2)               -3.23607465 [mEh]      -2.03066750 [kcal/mol]      -8.49631282 [kJ/mol]

    Dispersion                     -7.49227830 [mEh]      -4.70147562 [kcal/mol]     -19.67097397 [kJ/mol]
      Disp20                       -8.76563200 [mEh]      -5.50051713 [kcal/mol]     -23.01416366 [kJ/mol]
      Disp21                        0.54952397 [mEh]       0.34483149 [kcal/mol]       1.44277497 [kJ/mol]
      Disp22 (SDQ)                 -0.00256582 [mEh]      -0.00161007 [kcal/mol]      -0.00673655 [kJ/mol]
      Disp22 (T)                   -1.33390354 [mEh]      -0.83703711 [kcal/mol]      -3.50216326 [kJ/mol]
      Est. Disp22 (T)              -1.53435911 [mEh]      -0.96282488 [kcal/mol]      -4.02845928 [kJ/mol]
      Exch-Disp20                   2.26075466 [mEh]       1.41864497 [kcal/mol]       5.93561054 [kJ/mol]

  Total HF                        -15.34476750 [mEh]      -9.62898698 [kcal/mol]     -40.28768153 [kJ/mol]
  Total SAPT0                     -21.84964485 [mEh]     -13.71085914 [kcal/mol]     -57.36623464 [kJ/mol]
  Total SAPT2                     -20.18150818 [mEh]     -12.66408758 [kcal/mol]     -52.98654243 [kJ/mol]
  Total SAPT2+                    -21.16890914 [mEh]     -13.28369103 [kcal/mol]     -55.57896329 [kJ/mol]

  Special recipe for scaled SAPT0 (see Manual):
    Electrostatics sSAPT0         -29.42596877 [mEh]     -18.46507418 [kcal/mol]     -77.25787036 [kJ/mol]
    Exchange sSAPT0                22.97767829 [mEh]      14.41871081 [kcal/mol]      60.32788603 [kJ/mol]
    Induction sSAPT0               -8.24261208 [mEh]      -5.17231717 [kcal/mol]     -21.64097503 [kJ/mol]
    Dispersion sSAPT0              -6.40001307 [mEh]      -4.01606884 [kcal/mol]     -16.80323201 [kJ/mol]
  Total sSAPT0                    -21.09091563 [mEh]     -13.23474937 [kcal/mol]     -55.37419136 [kJ/mol]
  --------------------------------------------------------------------------------------------------------

*** tstop() called on moses-razer at Wed Jan  3 16:01:15 2024
Module time:
	user time   =      78.70 seconds =       1.31 minutes
	system time =       2.86 seconds =       0.05 minutes
	total time  =         16 seconds =       0.27 minutes
Total time:
	user time   =      97.51 seconds =       1.63 minutes
	system time =       4.93 seconds =       0.08 minutes
	total time  =         23 seconds =       0.38 minutes

    Psi4 stopped on: Wednesday, 03 January 2024 04:01PM
    Psi4 wall time for execution: 0:00:22.70

*** Psi4 exiting successfully. Buy a developer a beer!
