
    -----------------------------------------------------------------------
          Psi4: An Open-Source Ab Initio Electronic Structure Package
                               Psi4 1.9 release

                         Git: Rev {} zzzzzzz 


    D. G. A. Smith, L. A. Burns, A. C. Simmonett, R. M. Parrish,
    M. C. Schieber, R. Galvelis, P. Kraus, H. Kruse, R. Di Remigio,
    A. Alenaizan, A. M. James, S. Lehtola, J. P. Misiewicz, M. Scheurer,
    R. A. Shaw, J. B. Schriber, Y. Xie, Z. L. Glick, D. A. Sirianni,
    J. S. O'Brien, J. M. Waldrop, A. Kumar, E. G. Hohenstein,
    B. P. Pritchard, B. R. Brooks, H. F. Schaefer III, A. Yu. Sokolov,
    K. Patkowski, A. E. DePrince III, U. Bozkaya, R. A. King,
    F. A. Evangelista, J. M. Turney, T. D. Crawford, C. D. Sherrill,
    J. Chem. Phys. 152(18) 184108 (2020). https://doi.org/10.1063/5.0006002

                            Additional Code Authors
    E. T. Seidl, C. L. Janssen, E. F. Valeev, M. L. Leininger,
    J. F. Gonthier, R. M. Richard, H. R. McAlexander, M. Saitow, X. Wang,
    P. Verma, M. H. Lechner, A. Jiang, S. Behnle, A. G. Heide,
    M. F. Herbst, and D. L. Poole

             Previous Authors, Complete List of Code Contributors,
                       and Citations for Specific Modules
    https://github.com/psi4/psi4/blob/master/codemeta.json
    https://github.com/psi4/psi4/graphs/contributors
    http://psicode.org/psi4manual/master/introduction.html#citing-psifour

    -----------------------------------------------------------------------


    Psi4 started on: Wednesday, 03 January 2024 04:04PM

    Process ID: 412788
    Host:       moses-razer
    PSIDATADIR: /home/kchung25/anaconda3/envs/psi4_19/share/psi4
    Memory:     500.0 MiB
    Threads:    6
    
  ==> Input File <==

--------------------------------------------------------------------------
MEMORY 60 GB

molecule dimer {
0 1
O      0.000000     0.000000     0.000000
H      0.166282     0.942740    -0.044555
H      0.885519    -0.359212    -0.237274
--
-1 1
Br     3.212066     0.000000     0.000000

units ang
no_reorient
no_com
symmetry c1
}

set {
basis        aug-cc-pVTZ
scf_type     df
}

energy("sapt2+")
--------------------------------------------------------------------------

  Memory set to  55.879 GiB by Python driver.

Scratch directory: /scratch/
   => Loading Basis Set <=

    Name: AUG-CC-PVTZ
    Role: ORBITAL
    Keyword: BASIS
    atoms 1   entry O          line   331 file /home/kchung25/anaconda3/envs/p415env/share/psi4/basis/aug-cc-pvtz.gbs 
    atoms 2-3 entry H          line    40 file /home/kchung25/anaconda3/envs/p415env/share/psi4/basis/aug-cc-pvtz.gbs 
    atoms 4   entry BR         line  4564 file /home/kchung25/anaconda3/envs/p415env/share/psi4/basis/aug-cc-pvtz.gbs 

   => Loading Basis Set <=

    Name: AUG-CC-PVTZ
    Role: ORBITAL
    Keyword: BASIS
    atoms 1   entry O          line   331 file /home/kchung25/anaconda3/envs/p415env/share/psi4/basis/aug-cc-pvtz.gbs 
    atoms 2-3 entry H          line    40 file /home/kchung25/anaconda3/envs/p415env/share/psi4/basis/aug-cc-pvtz.gbs 
    atoms 4   entry BR         line  4564 file /home/kchung25/anaconda3/envs/p415env/share/psi4/basis/aug-cc-pvtz.gbs 


  //>>>>>>>>>>>>>>>>>>>>>>>>>>>>>>>>>>>//
  //              Dimer HF             //
  //<<<<<<<<<<<<<<<<<<<<<<<<<<<<<<<<<<<//

   => Libint2 <=

    Primary   basis highest AM E, G, H:  5, 4, 3
    Auxiliary basis highest AM E, G, H:  6, 5, 4
    Onebody   basis highest AM E, G, H:  6, 5, 4
    Solid Harmonics ordering:            gaussian

*** tstart() called on moses-razer
*** at Wed Jan  3 16:04:19 2024

   => Loading Basis Set <=

    Name: AUG-CC-PVTZ
    Role: ORBITAL
    Keyword: BASIS
    atoms 1   entry O          line   331 file /home/kchung25/anaconda3/envs/p415env/share/psi4/basis/aug-cc-pvtz.gbs 
    atoms 2-3 entry H          line    40 file /home/kchung25/anaconda3/envs/p415env/share/psi4/basis/aug-cc-pvtz.gbs 
    atoms 4   entry BR         line  4564 file /home/kchung25/anaconda3/envs/p415env/share/psi4/basis/aug-cc-pvtz.gbs 


         ---------------------------------------------------------
                                   SCF
               by Justin Turney, Rob Parrish, Andy Simmonett
                          and Daniel G. A. Smith
                              RHF Reference
                        6 Threads,  57220 MiB Core
         ---------------------------------------------------------

  ==> Geometry <==

    Molecular point group: c1
    Full point group: C1

    Geometry (in Angstrom), charge = -1, multiplicity = 1:

       Center              X                  Y                   Z               Mass       
    ------------   -----------------  -----------------  -----------------  -----------------
         O            0.000000000000     0.000000000000     0.000000000000    15.994914619570
         H            0.166282000000     0.942740000000    -0.044555000000     1.007825032230
         H            0.885519000000    -0.359212000000    -0.237274000000     1.007825032230
         BR           3.212066000000     0.000000000000     0.000000000000    78.918337600000

  Running in c1 symmetry.

  Rotational constants: A =     15.54551  B =      0.02068  C =      0.02066 [cm^-1]
  Rotational constants: A = 466042.69834  B =    620.01745  C =    619.27976 [MHz]
  Nuclear repulsion =   68.835329289456411

  Charge       = -1
  Multiplicity = 1
  Electrons    = 46
  Nalpha       = 23
  Nbeta        = 23

  ==> Algorithm <==

  SCF Algorithm Type is DF.
  DIIS enabled.
  MOM disabled.
  Fractional occupation disabled.
  Guess Type is SAD.
  Energy threshold   = 1.00e-08
  Density threshold  = 1.00e-08
  Integral threshold = 1.00e-12

  ==> Primary Basis <==

  Basis Set: AUG-CC-PVTZ
    Blend: AUG-CC-PVTZ
    Number of shells: 51
    Number of basis functions: 151
    Number of Cartesian functions: 174
    Spherical Harmonics?: true
    Max angular momentum: 3

   => Loading Basis Set <=

    Name: (AUG-CC-PVTZ AUX)
    Role: JKFIT
    Keyword: DF_BASIS_SCF
    atoms 1   entry O          line   286 file /home/kchung25/anaconda3/envs/p415env/share/psi4/basis/aug-cc-pvtz-jkfit.gbs 
    atoms 2-3 entry H          line    70 file /home/kchung25/anaconda3/envs/p415env/share/psi4/basis/aug-cc-pvtz-jkfit.gbs 
    atoms 4   entry BR         line  1492 file /home/kchung25/anaconda3/envs/p415env/share/psi4/basis/aug-cc-pvtz-jkfit.gbs 

  ==> Integral Setup <==

  ==> DiskDFJK: Density-Fitted J/K Matrices <==

    J tasked:                  Yes
    K tasked:                  Yes
    wK tasked:                  No
    OpenMP threads:              6
    Integrals threads:           6
    Memory [MiB]:            42915
    Algorithm:                Core
    Integral Cache:           SAVE
    Schwarz Cutoff:          1E-12
    Fitting Condition:       1E-10

   => Auxiliary Basis Set <=

  Basis Set: (AUG-CC-PVTZ AUX)
    Blend: AUG-CC-PVTZ-JKFIT
    Number of shells: 116
    Number of basis functions: 444
    Number of Cartesian functions: 570
    Spherical Harmonics?: true
    Max angular momentum: 4

  Minimum eigenvalue in the overlap matrix is 3.1881834129E-04.
  Reciprocal condition number of the overlap matrix is 4.1546523930E-05.
    Using symmetric orthogonalization.

  ==> Pre-Iterations <==

  SCF Guess: Superposition of Atomic Densities via on-the-fly atomic UHF (no occupation information).

   -------------------------
    Irrep   Nso     Nmo    
   -------------------------
     A        151     151 
   -------------------------
    Total     151     151
   -------------------------

  ==> Iterations <==

                           Total Energy        Delta E     RMS |[F,P]|

   @DF-RHF iter SAD: -2645.96239865946518   -2.64596e+03   0.00000e+00 
   @DF-RHF iter   1: -2648.27038044998790   -2.30798e+00   7.53141e-03 DIIS/ADIIS
   @DF-RHF iter   2: -2648.51853283827541   -2.48152e-01   4.21438e-03 DIIS/ADIIS
   @DF-RHF iter   3: -2648.60546740952623   -8.69346e-02   2.31479e-04 DIIS/ADIIS
   @DF-RHF iter   4: -2648.60602122722230   -5.53818e-04   1.20850e-04 DIIS/ADIIS
   @DF-RHF iter   5: -2648.60614925405935   -1.28027e-04   1.89241e-05 DIIS
   @DF-RHF iter   6: -2648.60615958714516   -1.03331e-05   4.05887e-06 DIIS
   @DF-RHF iter   7: -2648.60616020561338   -6.18468e-07   1.04810e-06 DIIS
   @DF-RHF iter   8: -2648.60616024532237   -3.97090e-08   2.67016e-07 DIIS
   @DF-RHF iter   9: -2648.60616024771662   -2.39424e-09   6.21293e-08 DIIS
   @DF-RHF iter  10: -2648.60616024781302   -9.64064e-11   1.59189e-08 DIIS
   @DF-RHF iter  11: -2648.60616024782121   -8.18545e-12   3.49940e-09 DIIS
  Energy and wave function converged.


  ==> Post-Iterations <==

    Orbital Energies [Eh]
    ---------------------

    Doubly Occupied:                                                      

       1A   -489.739617     2A    -64.879892     3A    -58.234381  
       4A    -58.234366     5A    -58.234335     6A    -20.387912  
       7A     -9.552378     8A     -7.159909     9A     -7.159763  
      10A     -7.159656    11A     -2.901583    12A     -2.901556  
      13A     -2.901415    14A     -2.901248    15A     -2.901227  
      16A     -1.170742    17A     -0.710511    18A     -0.526762  
      19A     -0.418262    20A     -0.333631    21A     -0.164014  
      22A     -0.160763    23A     -0.159688  

    Virtual:                                                              

      24A      0.144070    25A      0.168354    26A      0.231577  
      27A      0.241153    28A      0.253210    29A      0.279029  
      30A      0.288680    31A      0.302960    32A      0.335545  
      33A      0.352826    34A      0.399951    35A      0.407043  
      36A      0.426458    37A      0.459230    38A      0.474346  
      39A      0.492301    40A      0.526004    41A      0.556592  
      42A      0.565509    43A      0.582497    44A      0.593455  
      45A      0.624155    46A      0.675060    47A      0.738107  
      48A      0.741959    49A      0.746607    50A      0.814201  
      51A      0.851101    52A      0.873123    53A      0.890212  
      54A      0.904066    55A      0.973745    56A      1.005358  
      57A      1.011559    58A      1.019786    59A      1.025735  
      60A      1.028066    61A      1.053926    62A      1.087272  
      63A      1.088839    64A      1.099918    65A      1.121959  
      66A      1.150652    67A      1.173746    68A      1.183987  
      69A      1.187231    70A      1.204789    71A      1.217962  
      72A      1.255402    73A      1.275043    74A      1.343889  
      75A      1.363970    76A      1.388049    77A      1.407365  
      78A      1.441277    79A      1.508886    80A      1.569525  
      81A      1.602106    82A      1.697769    83A      1.718080  
      84A      1.775256    85A      1.805222    86A      2.035195  
      87A      2.044218    88A      2.191223    89A      2.351265  
      90A      2.407535    91A      2.427921    92A      2.456351  
      93A      2.481631    94A      2.515481    95A      2.538737  
      96A      2.550801    97A      2.554936    98A      2.566105  
      99A      2.571289   100A      2.581360   101A      2.599953  
     102A      2.609658   103A      2.637724   104A      2.648758  
     105A      2.669623   106A      2.676588   107A      2.687849  
     108A      2.744405   109A      2.775575   110A      2.812478  
     111A      2.897773   112A      2.915872   113A      2.975762  
     114A      3.072695   115A      3.080600   116A      3.115880  
     117A      3.883513   118A      4.010664   119A      4.223633  
     120A      4.293243   121A      4.360464   122A      4.426971  
     123A      4.450133   124A      4.490367   125A      4.571078  
     126A      4.589127   127A      4.653760   128A      4.767058  
     129A      4.964376   130A      5.055084   131A      5.304001  
     132A      5.377713   133A      5.424262   134A      5.499876  
     135A      5.693545   136A      5.812926   137A      6.401794  
     138A      6.696346   139A      6.950732   140A      7.126657  
     141A      7.302863   142A      7.450804   143A      7.461879  
     144A      7.488457   145A      7.559972   146A      7.579313  
     147A      7.754522   148A      8.072877   149A      8.131643  
     150A      8.970448   151A     15.901112  

    Final Occupation by Irrep:
              A 
    DOCC [    23 ]
    NA   [    23 ]
    NB   [    23 ]

  @DF-RHF Final Energy: -2648.60616024782121

   => Energetics <=

    Nuclear Repulsion Energy =             68.8353292894564106
    One-Electron Energy =               -3837.0957563585329808
    Two-Electron Energy =                1119.6542668212557601
    Total Energy =                      -2648.6061602478212080

Computation Completed


Properties will be evaluated at   0.000000,   0.000000,   0.000000 [a0]

Properties computed using the SCF density matrix


 Multipole Moments:

 ------------------------------------------------------------------------------------
     Multipole            Electronic (a.u.)      Nuclear  (a.u.)        Total (a.u.)
 ------------------------------------------------------------------------------------

 L = 1.  Multiply by 2.5417464519 to convert [e a0] to [Debye]
 Dipole X            :       -219.3831399          214.4349921           -4.9481478
 Dipole Y            :         -0.7405944            1.1027081            0.3621137
 Dipole Z            :          0.4113805           -0.5325796           -0.1211991
 Magnitude           :                                                    4.9628602

 ------------------------------------------------------------------------------------

*** tstop() called on moses-razer at Wed Jan  3 16:04:22 2024
Module time:
	user time   =       7.89 seconds =       0.13 minutes
	system time =       0.98 seconds =       0.02 minutes
	total time  =          3 seconds =       0.05 minutes
Total time:
	user time   =       7.89 seconds =       0.13 minutes
	system time =       0.98 seconds =       0.02 minutes
	total time  =          3 seconds =       0.05 minutes

  //>>>>>>>>>>>>>>>>>>>>>>>>>>>>>>>>>>>//
  //            Monomer A HF           //
  //<<<<<<<<<<<<<<<<<<<<<<<<<<<<<<<<<<<//

   => Libint2 <=

    Primary   basis highest AM E, G, H:  5, 4, 3
    Auxiliary basis highest AM E, G, H:  6, 5, 4
    Onebody   basis highest AM E, G, H:  6, 5, 4
    Solid Harmonics ordering:            gaussian

*** tstart() called on moses-razer
*** at Wed Jan  3 16:04:22 2024

   => Loading Basis Set <=

    Name: AUG-CC-PVTZ
    Role: ORBITAL
    Keyword: BASIS
    atoms 1   entry O          line   331 file /home/kchung25/anaconda3/envs/p415env/share/psi4/basis/aug-cc-pvtz.gbs 
    atoms 2-3 entry H          line    40 file /home/kchung25/anaconda3/envs/p415env/share/psi4/basis/aug-cc-pvtz.gbs 
    atoms 4   entry BR         line  4564 file /home/kchung25/anaconda3/envs/p415env/share/psi4/basis/aug-cc-pvtz.gbs 


         ---------------------------------------------------------
                                   SCF
               by Justin Turney, Rob Parrish, Andy Simmonett
                          and Daniel G. A. Smith
                              RHF Reference
                        6 Threads,  57220 MiB Core
         ---------------------------------------------------------

  ==> Geometry <==

    Molecular point group: c1
    Full point group: C1

    Geometry (in Angstrom), charge = 0, multiplicity = 1:

       Center              X                  Y                   Z               Mass       
    ------------   -----------------  -----------------  -----------------  -----------------
         O            0.000000000000     0.000000000000     0.000000000000    15.994914619570
         H            0.166282000000     0.942740000000    -0.044555000000     1.007825032230
         H            0.885519000000    -0.359212000000    -0.237274000000     1.007825032230
      Gh(BR)          3.212066000000     0.000000000000     0.000000000000    78.918337600000

  Running in c1 symmetry.

  Rotational constants: A =     15.54551  B =      0.02068  C =      0.02066 [cm^-1]
  Rotational constants: A = 466042.69834  B =    620.01745  C =    619.27976 [MHz]
  Nuclear repulsion =    9.069869464435882

  Charge       = 0
  Multiplicity = 1
  Electrons    = 10
  Nalpha       = 5
  Nbeta        = 5

  ==> Algorithm <==

  SCF Algorithm Type is DF.
  DIIS enabled.
  MOM disabled.
  Fractional occupation disabled.
  Guess Type is SAD.
  Energy threshold   = 1.00e-08
  Density threshold  = 1.00e-08
  Integral threshold = 1.00e-12

  ==> Primary Basis <==

  Basis Set: AUG-CC-PVTZ
    Blend: AUG-CC-PVTZ
    Number of shells: 51
    Number of basis functions: 151
    Number of Cartesian functions: 174
    Spherical Harmonics?: true
    Max angular momentum: 3

   => Loading Basis Set <=

    Name: (AUG-CC-PVTZ AUX)
    Role: JKFIT
    Keyword: DF_BASIS_SCF
    atoms 1   entry O          line   286 file /home/kchung25/anaconda3/envs/p415env/share/psi4/basis/aug-cc-pvtz-jkfit.gbs 
    atoms 2-3 entry H          line    70 file /home/kchung25/anaconda3/envs/p415env/share/psi4/basis/aug-cc-pvtz-jkfit.gbs 
    atoms 4   entry BR         line  1492 file /home/kchung25/anaconda3/envs/p415env/share/psi4/basis/aug-cc-pvtz-jkfit.gbs 

  ==> Integral Setup <==

  ==> DiskDFJK: Density-Fitted J/K Matrices <==

    J tasked:                  Yes
    K tasked:                  Yes
    wK tasked:                  No
    OpenMP threads:              6
    Integrals threads:           6
    Memory [MiB]:            42915
    Algorithm:                Core
    Integral Cache:           LOAD
    Schwarz Cutoff:          1E-12
    Fitting Condition:       1E-10

   => Auxiliary Basis Set <=

  Basis Set: (AUG-CC-PVTZ AUX)
    Blend: AUG-CC-PVTZ-JKFIT
    Number of shells: 116
    Number of basis functions: 444
    Number of Cartesian functions: 570
    Spherical Harmonics?: true
    Max angular momentum: 4

  Minimum eigenvalue in the overlap matrix is 3.1881834129E-04.
  Reciprocal condition number of the overlap matrix is 4.1546523930E-05.
    Using symmetric orthogonalization.

  ==> Pre-Iterations <==

  SCF Guess: Superposition of Atomic Densities via on-the-fly atomic UHF (no occupation information).

   -------------------------
    Irrep   Nso     Nmo    
   -------------------------
     A        151     151 
   -------------------------
    Total     151     151
   -------------------------

  ==> Iterations <==

                           Total Energy        Delta E     RMS |[F,P]|

   @DF-RHF iter SAD:   -75.46503805895023   -7.54650e+01   0.00000e+00 
   @DF-RHF iter   1:   -75.97319985638472   -5.08162e-01   3.09800e-03 DIIS/ADIIS
   @DF-RHF iter   2:   -76.02543161221047   -5.22318e-02   2.14852e-03 DIIS/ADIIS
   @DF-RHF iter   3:   -76.05811401625004   -3.26824e-02   1.46772e-04 DIIS/ADIIS
   @DF-RHF iter   4:   -76.05852084074174   -4.06824e-04   3.58913e-05 DIIS
   @DF-RHF iter   5:   -76.05854812324822   -2.72825e-05   8.38232e-06 DIIS
   @DF-RHF iter   6:   -76.05855043883145   -2.31558e-06   1.81953e-06 DIIS
   @DF-RHF iter   7:   -76.05855055669271   -1.17861e-07   3.10383e-07 DIIS
   @DF-RHF iter   8:   -76.05855055964062   -2.94791e-09   5.21509e-08 DIIS
   @DF-RHF iter   9:   -76.05855055970611   -6.54836e-11   1.28357e-08 DIIS
   @DF-RHF iter  10:   -76.05855055971051   -4.40536e-12   2.08202e-09 DIIS
  Energy and wave function converged.


  ==> Post-Iterations <==

    Orbital Energies [Eh]
    ---------------------

    Doubly Occupied:                                                      

       1A    -20.571137     2A     -1.348960     3A     -0.703440  
       4A     -0.588883     5A     -0.510232  

    Virtual:                                                              

       6A      0.025376     7A      0.045848     8A      0.067346  
       9A      0.073156    10A      0.089661    11A      0.101320  
      12A      0.161732    13A      0.176025    14A      0.181589  
      15A      0.198731    16A      0.241046    17A      0.254498  
      18A      0.268962    19A      0.281066    20A      0.290828  
      21A      0.303062    22A      0.325328    23A      0.330521  
      24A      0.335898    25A      0.343370    26A      0.392923  
      27A      0.426186    28A      0.434977    29A      0.442570  
      30A      0.457774    31A      0.523346    32A      0.553791  
      33A      0.632377    34A      0.683585    35A      0.713576  
      36A      0.739116    37A      0.751716    38A      0.844969  
      39A      0.887928    40A      0.890793    41A      0.908700  
      42A      0.921660    43A      0.934406    44A      0.942517  
      45A      0.959902    46A      0.969558    47A      0.985754  
      48A      1.012353    49A      1.029005    50A      1.034673  
      51A      1.046074    52A      1.068381    53A      1.072149  
      54A      1.097917    55A      1.104659    56A      1.129218  
      57A      1.143088    58A      1.163872    59A      1.168846  
      60A      1.221055    61A      1.238695    62A      1.245205  
      63A      1.264105    64A      1.325579    65A      1.377834  
      66A      1.452914    67A      1.465961    68A      1.545790  
      69A      1.608086    70A      1.632363    71A      1.688141  
      72A      1.873781    73A      1.910173    74A      2.033489  
      75A      2.216742    76A      2.319133    77A      2.354574  
      78A      2.403936    79A      2.459193    80A      2.478554  
      81A      2.536408    82A      2.604108    83A      2.699893  
      84A      2.736911    85A      2.810835    86A      2.831070  
      87A      2.875180    88A      2.882820    89A      2.916729  
      90A      3.056972    91A      3.092806    92A      3.109663  
      93A      3.110700    94A      3.141766    95A      3.169686  
      96A      3.233899    97A      3.267753    98A      3.280588  
      99A      3.284137   100A      3.350293   101A      3.352420  
     102A      3.395573   103A      3.546410   104A      3.721793  
     105A      3.872190   106A      4.051035   107A      4.158383  
     108A      4.214133   109A      4.270770   110A      4.293721  
     111A      4.390151   112A      4.394705   113A      4.431816  
     114A      4.587217   115A      4.785886   116A      4.873859  
     117A      5.123186   118A      5.191886   119A      5.248452  
     120A      5.320633   121A      5.514964   122A      5.636145  
     123A      6.224568   124A      6.520915   125A      6.773986  
     126A      6.948184   127A      7.126510   128A      7.273821  
     129A      7.281462   130A      7.313123   131A      7.380929  
     132A      7.401372   133A      7.575962   134A      7.894347  
     135A      7.954678   136A      8.787504   137A      9.717850  
     138A     13.443477   139A     13.460323   140A     13.706966  
     141A     15.723170   142A     26.120089   143A     26.123960  
     144A     26.182349   145A     26.199672   146A     26.327562  
     147A     45.593901   148A    138.396447   149A    138.424024  
     150A    138.800179   151A    709.069063  

    Final Occupation by Irrep:
              A 
    DOCC [     5 ]
    NA   [     5 ]
    NB   [     5 ]

  @DF-RHF Final Energy:   -76.05855055971051

   => Energetics <=

    Nuclear Repulsion Energy =              9.0698694644358824
    One-Electron Energy =                -122.8115341923099066
    Two-Electron Energy =                  37.6831141681635131
    Total Energy =                        -76.0585505597105112

Computation Completed


Properties will be evaluated at   0.000000,   0.000000,   0.000000 [a0]

Properties computed using the SCF density matrix


 Multipole Moments:

 ------------------------------------------------------------------------------------
     Multipole            Electronic (a.u.)      Nuclear  (a.u.)        Total (a.u.)
 ------------------------------------------------------------------------------------

 L = 1.  Multiply by 2.5417464519 to convert [e a0] to [Debye]
 Dipole X            :         -1.3029391            1.9876158            0.6846768
 Dipole Y            :         -0.7174487            1.1027081            0.3852595
 Dipole Z            :          0.3491745           -0.5325796           -0.1834051
 Magnitude           :                                                    0.8067494

 ------------------------------------------------------------------------------------

*** tstop() called on moses-razer at Wed Jan  3 16:04:24 2024
Module time:
	user time   =       4.01 seconds =       0.07 minutes
	system time =       0.42 seconds =       0.01 minutes
	total time  =          2 seconds =       0.03 minutes
Total time:
	user time   =      11.93 seconds =       0.20 minutes
	system time =       1.40 seconds =       0.02 minutes
	total time  =          5 seconds =       0.08 minutes

  //>>>>>>>>>>>>>>>>>>>>>>>>>>>>>>>>>>>//
  //            Monomer B HF           //
  //<<<<<<<<<<<<<<<<<<<<<<<<<<<<<<<<<<<//

   => Libint2 <=

    Primary   basis highest AM E, G, H:  5, 4, 3
    Auxiliary basis highest AM E, G, H:  6, 5, 4
    Onebody   basis highest AM E, G, H:  6, 5, 4
    Solid Harmonics ordering:            gaussian

*** tstart() called on moses-razer
*** at Wed Jan  3 16:04:24 2024

   => Loading Basis Set <=

    Name: AUG-CC-PVTZ
    Role: ORBITAL
    Keyword: BASIS
    atoms 1   entry O          line   331 file /home/kchung25/anaconda3/envs/p415env/share/psi4/basis/aug-cc-pvtz.gbs 
    atoms 2-3 entry H          line    40 file /home/kchung25/anaconda3/envs/p415env/share/psi4/basis/aug-cc-pvtz.gbs 
    atoms 4   entry BR         line  4564 file /home/kchung25/anaconda3/envs/p415env/share/psi4/basis/aug-cc-pvtz.gbs 


         ---------------------------------------------------------
                                   SCF
               by Justin Turney, Rob Parrish, Andy Simmonett
                          and Daniel G. A. Smith
                              RHF Reference
                        6 Threads,  57220 MiB Core
         ---------------------------------------------------------

  ==> Geometry <==

    Molecular point group: c1
    Full point group: C1

    Geometry (in Angstrom), charge = -1, multiplicity = 1:

       Center              X                  Y                   Z               Mass       
    ------------   -----------------  -----------------  -----------------  -----------------
      Gh(O)           0.000000000000     0.000000000000     0.000000000000    15.994914619570
      Gh(H)           0.166282000000     0.942740000000    -0.044555000000     1.007825032230
      Gh(H)           0.885519000000    -0.359212000000    -0.237274000000     1.007825032230
         BR           3.212066000000     0.000000000000     0.000000000000    78.918337600000

  Running in c1 symmetry.

  Rotational constants: A =     15.54551  B =      0.02068  C =      0.02066 [cm^-1]
  Rotational constants: A = 466042.69834  B =    620.01745  C =    619.27976 [MHz]
  Nuclear repulsion =    0.000000000000000

  Charge       = -1
  Multiplicity = 1
  Electrons    = 36
  Nalpha       = 18
  Nbeta        = 18

  ==> Algorithm <==

  SCF Algorithm Type is DF.
  DIIS enabled.
  MOM disabled.
  Fractional occupation disabled.
  Guess Type is SAD.
  Energy threshold   = 1.00e-08
  Density threshold  = 1.00e-08
  Integral threshold = 1.00e-12

  ==> Primary Basis <==

  Basis Set: AUG-CC-PVTZ
    Blend: AUG-CC-PVTZ
    Number of shells: 51
    Number of basis functions: 151
    Number of Cartesian functions: 174
    Spherical Harmonics?: true
    Max angular momentum: 3

   => Loading Basis Set <=

    Name: (AUG-CC-PVTZ AUX)
    Role: JKFIT
    Keyword: DF_BASIS_SCF
    atoms 1   entry O          line   286 file /home/kchung25/anaconda3/envs/p415env/share/psi4/basis/aug-cc-pvtz-jkfit.gbs 
    atoms 2-3 entry H          line    70 file /home/kchung25/anaconda3/envs/p415env/share/psi4/basis/aug-cc-pvtz-jkfit.gbs 
    atoms 4   entry BR         line  1492 file /home/kchung25/anaconda3/envs/p415env/share/psi4/basis/aug-cc-pvtz-jkfit.gbs 

  ==> Integral Setup <==

  ==> DiskDFJK: Density-Fitted J/K Matrices <==

    J tasked:                  Yes
    K tasked:                  Yes
    wK tasked:                  No
    OpenMP threads:              6
    Integrals threads:           6
    Memory [MiB]:            42915
    Algorithm:                Core
    Integral Cache:           LOAD
    Schwarz Cutoff:          1E-12
    Fitting Condition:       1E-10

   => Auxiliary Basis Set <=

  Basis Set: (AUG-CC-PVTZ AUX)
    Blend: AUG-CC-PVTZ-JKFIT
    Number of shells: 116
    Number of basis functions: 444
    Number of Cartesian functions: 570
    Spherical Harmonics?: true
    Max angular momentum: 4

  Minimum eigenvalue in the overlap matrix is 3.1881834129E-04.
  Reciprocal condition number of the overlap matrix is 4.1546523930E-05.
    Using symmetric orthogonalization.

  ==> Pre-Iterations <==

  SCF Guess: Superposition of Atomic Densities via on-the-fly atomic UHF (no occupation information).

   -------------------------
    Irrep   Nso     Nmo    
   -------------------------
     A        151     151 
   -------------------------
    Total     151     151
   -------------------------

  ==> Iterations <==

                           Total Energy        Delta E     RMS |[F,P]|

   @DF-RHF iter SAD: -2570.41423532191220   -2.57041e+03   0.00000e+00 
   @DF-RHF iter   1: -2572.25497337046909   -1.84074e+00   6.99667e-03 DIIS/ADIIS
   @DF-RHF iter   2: -2572.46422857688867   -2.09255e-01   3.88804e-03 DIIS/ADIIS
   @DF-RHF iter   3: -2572.53364539419181   -6.94168e-02   6.51281e-05 DIIS
   @DF-RHF iter   4: -2572.53368040263740   -3.50084e-05   7.58158e-06 DIIS
   @DF-RHF iter   5: -2572.53368153710790   -1.13447e-06   1.86972e-06 DIIS
   @DF-RHF iter   6: -2572.53368161234357   -7.52357e-08   3.50218e-07 DIIS
   @DF-RHF iter   7: -2572.53368162146626   -9.12269e-09   3.19468e-08 DIIS
   @DF-RHF iter   8: -2572.53368162154493   -7.86713e-11   1.02931e-08 DIIS
   @DF-RHF iter   9: -2572.53368162155175   -6.82121e-12   3.03311e-09 DIIS
  Energy and wave function converged.


  ==> Post-Iterations <==

    Orbital Energies [Eh]
    ---------------------

    Doubly Occupied:                                                      

       1A   -489.720784     2A    -64.860749     3A    -58.215237  
       4A    -58.215237     5A    -58.215233     6A     -9.532944  
       7A     -7.140295     8A     -7.140293     9A     -7.140270  
      10A     -2.881968    11A     -2.881967    12A     -2.881963  
      13A     -2.881960    14A     -2.881945    15A     -0.685999  
      16A     -0.139340    17A     -0.139340    18A     -0.139336  

    Virtual:                                                              

      19A      0.138906    20A      0.163348    21A      0.231426  
      22A      0.238724    23A      0.260866    24A      0.263319  
      25A      0.269490    26A      0.276202    27A      0.306283  
      28A      0.353452    29A      0.410409    30A      0.420810  
      31A      0.449136    32A      0.466643    33A      0.485365  
      34A      0.506256    35A      0.510423    36A      0.532262  
      37A      0.561597    38A      0.573477    39A      0.586214  
      40A      0.590355    41A      0.623470    42A      0.749230  
      43A      0.755918    44A      0.787587    45A      0.821937  
      46A      0.867196    47A      0.927167    48A      0.941413  
      49A      0.947080    50A      0.961388    51A      0.980563  
      52A      1.001249    53A      1.028973    54A      1.036171  
      55A      1.041804    56A      1.045363    57A      1.064074  
      58A      1.085210    59A      1.098241    60A      1.113150  
      61A      1.151733    62A      1.160564    63A      1.199566  
      64A      1.206647    65A      1.220578    66A      1.230651  
      67A      1.247977    68A      1.284751    69A      1.303593  
      70A      1.387698    71A      1.401039    72A      1.423574  
      73A      1.542145    74A      1.589779    75A      1.599510  
      76A      1.637121    77A      1.711453    78A      1.782584  
      79A      1.877507    80A      1.896604    81A      1.951101  
      82A      1.995674    83A      2.047460    84A      2.267296  
      85A      2.426910    86A      2.445182    87A      2.533630  
      88A      2.557092    89A      2.565115    90A      2.575333  
      91A      2.579810    92A      2.588416    93A      2.590854  
      94A      2.616370    95A      2.619333    96A      2.633103  
      97A      2.646480    98A      2.684085    99A      2.690405  
     100A      2.710309   101A      2.722580   102A      2.733546  
     103A      2.791487   104A      2.822266   105A      2.848839  
     106A      2.908456   107A      3.073009   108A      3.132549  
     109A      3.342503   110A      3.362357   111A      3.423279  
     112A      3.515589   113A      3.571338   114A      3.745475  
     115A      3.875979   116A      4.417268   117A      4.585249  
     118A      4.626676   119A      4.681253   120A      4.747390  
     121A      4.854945   122A      4.994984   123A      5.037004  
     124A      5.050538   125A      5.139373   126A      5.425335  
     127A      5.730816   128A      5.771124   129A      5.801949  
     130A      6.026264   131A      6.292256   132A      6.542595  
     133A      6.728598   134A      7.207422   135A      7.884387  
     136A      8.032823   137A      8.192739   138A      8.315781  
     139A      8.436329   140A      8.872533   141A      8.990095  
     142A      9.804351   143A     10.028383   144A     10.182213  
     145A     10.454234   146A     11.352212   147A     11.842502  
     148A     12.170590   149A     13.656245   150A     13.979910  
     151A     64.762086  

    Final Occupation by Irrep:
              A 
    DOCC [    18 ]
    NA   [    18 ]
    NB   [    18 ]

  @DF-RHF Final Energy: -2572.53368162155175

   => Energetics <=

    Nuclear Repulsion Energy =              0.0000000000000000
    One-Electron Energy =               -3593.6776458962867764
    Two-Electron Energy =                1021.1439642747347989
    Total Energy =                      -2572.5336816215522049

Computation Completed


Properties will be evaluated at   0.000000,   0.000000,   0.000000 [a0]

Properties computed using the SCF density matrix


 Multipole Moments:

 ------------------------------------------------------------------------------------
     Multipole            Electronic (a.u.)      Nuclear  (a.u.)        Total (a.u.)
 ------------------------------------------------------------------------------------

 L = 1.  Multiply by 2.5417464519 to convert [e a0] to [Debye]
 Dipole X            :       -218.5174850          212.4473763           -6.0701087
 Dipole Y            :         -0.0001272            0.0000000           -0.0001272
 Dipole Z            :         -0.0000458            0.0000000           -0.0000458
 Magnitude           :                                                    6.0701087

 ------------------------------------------------------------------------------------

*** tstop() called on moses-razer at Wed Jan  3 16:04:26 2024
Module time:
	user time   =       6.19 seconds =       0.10 minutes
	system time =       0.87 seconds =       0.01 minutes
	total time  =          2 seconds =       0.03 minutes
Total time:
	user time   =      18.15 seconds =       0.30 minutes
	system time =       2.27 seconds =       0.04 minutes
	total time  =          7 seconds =       0.12 minutes
  Constructing Basis Sets for SAPT...

   => Loading Basis Set <=

    Name: (AUG-CC-PVTZ AUX)
    Role: RIFIT
    Keyword: DF_BASIS_SAPT
    atoms 1   entry O          line   264 file /home/kchung25/anaconda3/envs/p415env/share/psi4/basis/aug-cc-pvtz-ri.gbs 
    atoms 2-3 entry H          line    30 file /home/kchung25/anaconda3/envs/p415env/share/psi4/basis/aug-cc-pvtz-ri.gbs 
    atoms 4   entry BR         line  1248 file /home/kchung25/anaconda3/envs/p415env/share/psi4/basis/aug-cc-pvtz-ri.gbs 

   => Loading Basis Set <=

    Name: (AUG-CC-PVTZ AUX)
    Role: JKFIT
    Keyword: DF_BASIS_ELST
    atoms 1   entry O          line   286 file /home/kchung25/anaconda3/envs/p415env/share/psi4/basis/aug-cc-pvtz-jkfit.gbs 
    atoms 2-3 entry H          line    70 file /home/kchung25/anaconda3/envs/p415env/share/psi4/basis/aug-cc-pvtz-jkfit.gbs 
    atoms 4   entry BR         line  1492 file /home/kchung25/anaconda3/envs/p415env/share/psi4/basis/aug-cc-pvtz-jkfit.gbs 


  //>>>>>>>>>>>>>>>>>>>>>>>>>>>>>>>>>>>//
  //               SAPT2+              //
  //<<<<<<<<<<<<<<<<<<<<<<<<<<<<<<<<<<<//


*** tstart() called on moses-razer
*** at Wed Jan  3 16:04:26 2024

        SAPT2+  
    Ed Hohenstein
     6 June 2009

      Orbital Information
  --------------------------
    NSO        =       151
    NMO        =       151
    NRI        =       389
    NOCC A     =         5
    NOCC B     =        18
    FOCC A     =         0
    FOCC B     =         0
    NVIR A     =       146
    NVIR B     =       133

    Estimated memory usage: 232.1 MB

    Natural Orbital Cutoff:   1.000E-06
    Disp(T3) Truncation:            Yes
    CCD (vv|vv) Truncation:         Yes
    MBPT T2 Truncation:             Yes

    Monomer A: 68 virtual orbitals dropped
    Monomer B: 75 virtual orbitals dropped

    Elst10,r            =    -0.027640781629 [Eh]
    Exch10 (S^2)        =     0.021491917259 [Eh]
    Exch10              =     0.021798612796 [Eh]
    Ind20,r (A<-B)      =    -0.005870533251 [Eh]
    Ind20,r (B<-A)      =    -0.013007809625 [Eh]
    Ind20,r             =    -0.018878342876 [Eh]
    Exch-Ind20,r (A<-B) =     0.003014253397 [Eh]
    Exch-Ind20,r (B<-A) =     0.010633997430 [Eh]
    Exch-Ind20,r        =     0.013648250827 [Eh]
    Disp20              =    -0.008475280627 [Eh]
    Disp20 (NO)         =    -0.007325149141 [Eh]
    Exch-Disp20         =     0.002201940116 [Eh]
    Elst12,r            =    -0.000150654923 [Eh]
    Exch11              =     0.000868012398 [Eh]
    Exch12              =     0.001551203081 [Eh]
    Ind22               =    -0.002549887915 [Eh]
    Disp21              =     0.000533247406 [Eh]
    Disp22 (SDQ)        =    -0.000010642503 [Eh]

    (i =   1 of  18)          0 seconds
    (i =   2 of  18)          1 seconds
    (i =   3 of  18)          1 seconds
    (i =   4 of  18)          1 seconds
    (i =   5 of  18)          1 seconds
    (i =   6 of  18)          1 seconds
    (i =   7 of  18)          1 seconds
    (i =   8 of  18)          1 seconds
    (i =   9 of  18)          2 seconds
    (i =  10 of  18)          2 seconds
    (i =  11 of  18)          2 seconds
    (i =  12 of  18)          2 seconds
    (i =  13 of  18)          2 seconds
    (i =  14 of  18)          2 seconds
    (i =  15 of  18)          2 seconds
    (i =  16 of  18)          2 seconds
    (i =  17 of  18)          3 seconds
    (i =  18 of  18)          3 seconds

    Disp220 (T)         =    -0.000746079896 [Eh]

    (i =   1 of   5)          1 seconds
    (i =   2 of   5)          1 seconds
    (i =   3 of   5)          2 seconds
    (i =   4 of   5)          3 seconds
    (i =   5 of   5)          4 seconds

    Disp202 (T)         =    -0.000537734825 [Eh]

    Disp22 (T)          =    -0.001283814721 [Eh]

    Est. Disp220 (T)    =    -0.000863222901 [Eh]
    Est. Disp202 (T)    =    -0.000622165290 [Eh]

    Est. Disp22 (T)     =    -0.001485388191 [Eh]

    SAPT Results 
  --------------------------------------------------------------------------------------------------------
    Electrostatics                -27.79143655 [mEh]     -17.43938973 [kcal/mol]     -72.96640662 [kJ/mol]
      Elst10,r                    -27.64078163 [mEh]     -17.34485233 [kcal/mol]     -72.57086217 [kJ/mol]
      Elst12,r                     -0.15065492 [mEh]      -0.09453739 [kcal/mol]      -0.39554445 [kJ/mol]

    Exchange                       24.21782828 [mEh]      15.19691668 [kcal/mol]      63.58389938 [kJ/mol]
      Exch10                       21.79861280 [mEh]      13.67883604 [kcal/mol]      57.23225001 [kJ/mol]
      Exch10(S^2)                  21.49191726 [mEh]      13.48638169 [kcal/mol]      56.42702099 [kJ/mol]
      Exch11(S^2)                   0.86801240 [mEh]       0.54468600 [kcal/mol]       2.27896624 [kJ/mol]
      Exch12(S^2)                   1.55120308 [mEh]       0.97339463 [kcal/mol]       4.07268313 [kJ/mol]

    Induction                      -8.79232353 [mEh]      -5.51726631 [kcal/mol]     -23.08424224 [kJ/mol]
      Ind20,r                     -18.87834288 [mEh]     -11.84633900 [kcal/mol]     -49.56508239 [kJ/mol]
      Ind22                        -2.54988792 [mEh]      -1.60007882 [kcal/mol]      -6.69472980 [kJ/mol]
      Exch-Ind20,r                 13.64825083 [mEh]       8.56440669 [kcal/mol]      35.83347761 [kJ/mol]
      Exch-Ind22                    1.84346211 [mEh]       1.15678994 [kcal/mol]       4.84000911 [kJ/mol]
      delta HF,r (2)               -2.85580568 [mEh]      -1.79204512 [kcal/mol]      -7.49791677 [kJ/mol]

    Dispersion                     -7.23612380 [mEh]      -4.54073624 [kcal/mol]     -18.99844042 [kJ/mol]
      Disp20                       -8.47528063 [mEh]      -5.31831889 [kcal/mol]     -22.25184622 [kJ/mol]
      Disp21                        0.53324741 [mEh]       0.33461780 [kcal/mol]       1.40004087 [kJ/mol]
      Disp22 (SDQ)                 -0.01064250 [mEh]      -0.00667827 [kcal/mol]      -0.02794189 [kJ/mol]
      Disp22 (T)                   -1.28381472 [mEh]      -0.80560590 [kcal/mol]      -3.37065509 [kJ/mol]
      Est. Disp22 (T)              -1.48538819 [mEh]      -0.93209516 [kcal/mol]      -3.89988616 [kJ/mol]
      Exch-Disp20                   2.20194012 [mEh]       1.38173828 [kcal/mol]       5.78119298 [kJ/mol]

  Total HF                        -13.92806656 [mEh]      -8.73999372 [kcal/mol]     -36.56813371 [kJ/mol]
  Total SAPT0                     -20.20140707 [mEh]     -12.67657432 [kcal/mol]     -53.03878695 [kJ/mol]
  Total SAPT2                     -18.63927232 [mEh]     -11.69631996 [kcal/mol]     -48.93740272 [kJ/mol]
  Total SAPT2+                    -19.60205560 [mEh]     -12.30047560 [kcal/mol]     -51.46518990 [kJ/mol]

  Special recipe for scaled SAPT0 (see Manual):
    Electrostatics sSAPT0         -27.64078163 [mEh]     -17.34485233 [kcal/mol]     -72.57086217 [kJ/mol]
    Exchange sSAPT0                21.79861280 [mEh]      13.67883604 [kcal/mol]      57.23225001 [kJ/mol]
    Induction sSAPT0               -7.49322723 [mEh]      -4.70207108 [kcal/mol]     -19.67346538 [kJ/mol]
    Dispersion sSAPT0              -6.17772204 [mEh]      -3.87657910 [kcal/mol]     -16.21960697 [kJ/mol]
  Total sSAPT0                    -19.51311810 [mEh]     -12.24466647 [kcal/mol]     -51.23168451 [kJ/mol]
  --------------------------------------------------------------------------------------------------------

*** tstop() called on moses-razer at Wed Jan  3 16:04:42 2024
Module time:
	user time   =      77.47 seconds =       1.29 minutes
	system time =       2.88 seconds =       0.05 minutes
	total time  =         16 seconds =       0.27 minutes
Total time:
	user time   =      95.86 seconds =       1.60 minutes
	system time =       5.16 seconds =       0.09 minutes
	total time  =         23 seconds =       0.38 minutes

    Psi4 stopped on: Wednesday, 03 January 2024 04:04PM
    Psi4 wall time for execution: 0:00:22.53

*** Psi4 exiting successfully. Buy a developer a beer!
