
    -----------------------------------------------------------------------
          Psi4: An Open-Source Ab Initio Electronic Structure Package
                               Psi4 1.9 release

                         Git: Rev {} zzzzzzz 


    D. G. A. Smith, L. A. Burns, A. C. Simmonett, R. M. Parrish,
    M. C. Schieber, R. Galvelis, P. Kraus, H. Kruse, R. Di Remigio,
    A. Alenaizan, A. M. James, S. Lehtola, J. P. Misiewicz, M. Scheurer,
    R. A. Shaw, J. B. Schriber, Y. Xie, Z. L. Glick, D. A. Sirianni,
    J. S. O'Brien, J. M. Waldrop, A. Kumar, E. G. Hohenstein,
    B. P. Pritchard, B. R. Brooks, H. F. Schaefer III, A. Yu. Sokolov,
    K. Patkowski, A. E. DePrince III, U. Bozkaya, R. A. King,
    F. A. Evangelista, J. M. Turney, T. D. Crawford, C. D. Sherrill,
    J. Chem. Phys. 152(18) 184108 (2020). https://doi.org/10.1063/5.0006002

                            Additional Code Authors
    E. T. Seidl, C. L. Janssen, E. F. Valeev, M. L. Leininger,
    J. F. Gonthier, R. M. Richard, H. R. McAlexander, M. Saitow, X. Wang,
    P. Verma, M. H. Lechner, A. Jiang, S. Behnle, A. G. Heide,
    M. F. Herbst, and D. L. Poole

             Previous Authors, Complete List of Code Contributors,
                       and Citations for Specific Modules
    https://github.com/psi4/psi4/blob/master/codemeta.json
    https://github.com/psi4/psi4/graphs/contributors
    http://psicode.org/psi4manual/master/introduction.html#citing-psifour

    -----------------------------------------------------------------------


    Psi4 started on: Wednesday, 03 January 2024 03:23PM

    Process ID: 410150
    Host:       moses-razer
    PSIDATADIR: /home/kchung25/anaconda3/envs/psi4_19/share/psi4
    Memory:     500.0 MiB
    Threads:    6
    
  ==> Input File <==

--------------------------------------------------------------------------
MEMORY 60 GB

molecule dimer {
0 1
O      0.000000     0.000000     0.000000
H      0.105625     0.953626    -0.060983
H     -0.825864    -0.121965     0.476813
--
1 1
Na     2.158940     0.000000     0.000000

units ang
no_reorient
no_com
symmetry c1
}

set {
basis        aug-cc-pVTZ
scf_type     df
}

energy("sapt2+")
--------------------------------------------------------------------------

  Memory set to  55.879 GiB by Python driver.

Scratch directory: /scratch/
   => Loading Basis Set <=

    Name: AUG-CC-PVTZ
    Role: ORBITAL
    Keyword: BASIS
    atoms 1   entry O          line   331 file /home/kchung25/anaconda3/envs/p415env/share/psi4/basis/aug-cc-pvtz.gbs 
    atoms 2-3 entry H          line    40 file /home/kchung25/anaconda3/envs/p415env/share/psi4/basis/aug-cc-pvtz.gbs 
    atoms 4   entry NA         line   469 file /home/kchung25/anaconda3/envs/p415env/share/psi4/basis/aug-cc-pvtz.gbs 

   => Loading Basis Set <=

    Name: AUG-CC-PVTZ
    Role: ORBITAL
    Keyword: BASIS
    atoms 1   entry O          line   331 file /home/kchung25/anaconda3/envs/p415env/share/psi4/basis/aug-cc-pvtz.gbs 
    atoms 2-3 entry H          line    40 file /home/kchung25/anaconda3/envs/p415env/share/psi4/basis/aug-cc-pvtz.gbs 
    atoms 4   entry NA         line   469 file /home/kchung25/anaconda3/envs/p415env/share/psi4/basis/aug-cc-pvtz.gbs 


  //>>>>>>>>>>>>>>>>>>>>>>>>>>>>>>>>>>>//
  //              Dimer HF             //
  //<<<<<<<<<<<<<<<<<<<<<<<<<<<<<<<<<<<//

   => Libint2 <=

    Primary   basis highest AM E, G, H:  5, 4, 3
    Auxiliary basis highest AM E, G, H:  6, 5, 4
    Onebody   basis highest AM E, G, H:  6, 5, 4
    Solid Harmonics ordering:            gaussian

*** tstart() called on moses-razer
*** at Wed Jan  3 15:23:40 2024

   => Loading Basis Set <=

    Name: AUG-CC-PVTZ
    Role: ORBITAL
    Keyword: BASIS
    atoms 1   entry O          line   331 file /home/kchung25/anaconda3/envs/p415env/share/psi4/basis/aug-cc-pvtz.gbs 
    atoms 2-3 entry H          line    40 file /home/kchung25/anaconda3/envs/p415env/share/psi4/basis/aug-cc-pvtz.gbs 
    atoms 4   entry NA         line   469 file /home/kchung25/anaconda3/envs/p415env/share/psi4/basis/aug-cc-pvtz.gbs 


         ---------------------------------------------------------
                                   SCF
               by Justin Turney, Rob Parrish, Andy Simmonett
                          and Daniel G. A. Smith
                              RHF Reference
                        6 Threads,  57220 MiB Core
         ---------------------------------------------------------

  ==> Geometry <==

    Molecular point group: c1
    Full point group: C1

    Geometry (in Angstrom), charge = 1, multiplicity = 1:

       Center              X                  Y                   Z               Mass       
    ------------   -----------------  -----------------  -----------------  -----------------
         O            0.000000000000     0.000000000000     0.000000000000    15.994914619570
         H            0.105625000000     0.953626000000    -0.060983000000     1.007825032230
         H           -0.825864000000    -0.121965000000     0.476813000000     1.007825032230
         NA           2.158940000000     0.000000000000     0.000000000000    22.989769282000

  Running in c1 symmetry.

  Rotational constants: A =     14.50132  B =      0.15599  C =      0.15493 [cm^-1]
  Rotational constants: A = 434738.63055  B =   4676.45432  C =   4644.75675 [MHz]
  Nuclear repulsion =   35.218797353470983

  Charge       = 1
  Multiplicity = 1
  Electrons    = 20
  Nalpha       = 10
  Nbeta        = 10

  ==> Algorithm <==

  SCF Algorithm Type is DF.
  DIIS enabled.
  MOM disabled.
  Fractional occupation disabled.
  Guess Type is SAD.
  Energy threshold   = 1.00e-08
  Density threshold  = 1.00e-08
  Integral threshold = 1.00e-12

  ==> Primary Basis <==

  Basis Set: AUG-CC-PVTZ
    Blend: AUG-CC-PVTZ
    Number of shells: 48
    Number of basis functions: 142
    Number of Cartesian functions: 164
    Spherical Harmonics?: true
    Max angular momentum: 3

   => Loading Basis Set <=

    Name: (AUG-CC-PVTZ AUX)
    Role: JKFIT
    Keyword: DF_BASIS_SCF
    atoms 1   entry O          line   286 file /home/kchung25/anaconda3/envs/p415env/share/psi4/basis/aug-cc-pvtz-jkfit.gbs 
    atoms 2-3 entry H          line    70 file /home/kchung25/anaconda3/envs/p415env/share/psi4/basis/aug-cc-pvtz-jkfit.gbs 
    atoms 4   entry NA         line   498 file /home/kchung25/anaconda3/envs/p415env/share/psi4/basis/def2-universal-jkfit.gbs 

  ==> Integral Setup <==

  ==> DiskDFJK: Density-Fitted J/K Matrices <==

    J tasked:                  Yes
    K tasked:                  Yes
    wK tasked:                  No
    OpenMP threads:              6
    Integrals threads:           6
    Memory [MiB]:            42915
    Algorithm:                Core
    Integral Cache:           SAVE
    Schwarz Cutoff:          1E-12
    Fitting Condition:       1E-10

   => Auxiliary Basis Set <=

  Basis Set: (AUG-CC-PVTZ AUX)
    Blend: AUG-CC-PVTZ-JKFIT + DEF2-UNIVERSAL-JKFIT
    Number of shells: 92
    Number of basis functions: 308
    Number of Cartesian functions: 378
    Spherical Harmonics?: true
    Max angular momentum: 4

  Minimum eigenvalue in the overlap matrix is 5.4620989624E-05.
  Reciprocal condition number of the overlap matrix is 6.1147255101E-06.
    Using symmetric orthogonalization.

  ==> Pre-Iterations <==

  SCF Guess: Superposition of Atomic Densities via on-the-fly atomic UHF (no occupation information).

   -------------------------
    Irrep   Nso     Nmo    
   -------------------------
     A        142     142 
   -------------------------
    Total     142     142
   -------------------------

  ==> Iterations <==

                           Total Energy        Delta E     RMS |[F,P]|

   @DF-RHF iter SAD:  -237.30165526418261   -2.37302e+02   0.00000e+00 
   @DF-RHF iter   1:  -237.67762714770382   -3.75972e-01   3.32270e-03 ADIIS/DIIS
   @DF-RHF iter   2:  -237.73193602303678   -5.43089e-02   2.15307e-03 ADIIS/DIIS
   @DF-RHF iter   3:  -237.76032327335668   -2.83873e-02   1.57514e-04 ADIIS/DIIS
   @DF-RHF iter   4:  -237.76070932291407   -3.86050e-04   3.53256e-05 DIIS
   @DF-RHF iter   5:  -237.76073114451890   -2.18216e-05   7.98633e-06 DIIS
   @DF-RHF iter   6:  -237.76073283476194   -1.69024e-06   1.57957e-06 DIIS
   @DF-RHF iter   7:  -237.76073290720413   -7.24422e-08   2.85298e-07 DIIS
   @DF-RHF iter   8:  -237.76073290925515   -2.05102e-09   4.71344e-08 DIIS
   @DF-RHF iter   9:  -237.76073290930054   -4.53895e-11   1.13824e-08 DIIS
   @DF-RHF iter  10:  -237.76073290930339   -2.84217e-12   2.45438e-09 DIIS
  Energy and wave function converged.


  ==> Post-Iterations <==

    Orbital Energies [Eh]
    ---------------------

    Doubly Occupied:                                                      

       1A    -40.709389     2A    -20.785688     3A     -3.027038  
       4A     -1.752313     5A     -1.750179     6A     -1.750139  
       7A     -1.574351     8A     -0.940195     9A     -0.818172  
      10A     -0.736291  

    Virtual:                                                              

      11A     -0.155087    12A     -0.101372    13A     -0.094985  
      14A     -0.089561    15A     -0.063926    16A     -0.052908  
      17A     -0.050439    18A     -0.047218    19A     -0.046875  
      20A     -0.045588    21A     -0.042898    22A     -0.040534  
      23A     -0.036577    24A     -0.015542    25A     -0.011075  
      26A      0.003049    27A      0.005998    28A      0.007080  
      29A      0.026080    30A      0.049244    31A      0.055175  
      32A      0.065903    33A      0.069769    34A      0.071783  
      35A      0.080548    36A      0.084954    37A      0.102093  
      38A      0.110553    39A      0.115281    40A      0.115530  
      41A      0.119241    42A      0.153251    43A      0.157282  
      44A      0.168125    45A      0.169338    46A      0.177740  
      47A      0.185201    48A      0.213529    49A      0.216470  
      50A      0.258710    51A      0.272743    52A      0.289201  
      53A      0.304708    54A      0.327756    55A      0.334123  
      56A      0.353958    57A      0.392679    58A      0.396176  
      59A      0.402504    60A      0.421555    61A      0.458274  
      62A      0.481113    63A      0.503056    64A      0.515147  
      65A      0.515954    66A      0.529363    67A      0.551693  
      68A      0.580683    69A      0.625284    70A      0.651496  
      71A      0.662923    72A      0.689658    73A      0.710154  
      74A      0.764796    75A      0.803327    76A      0.840412  
      77A      0.851359    78A      0.873090    79A      0.911570  
      80A      0.938196    81A      0.943287    82A      1.004145  
      83A      1.019946    84A      1.067487    85A      1.102207  
      86A      1.146330    87A      1.186605    88A      1.331312  
      89A      1.361013    90A      1.457182    91A      1.477422  
      92A      1.644904    93A      1.747043    94A      1.808942  
      95A      1.936759    96A      1.988839    97A      2.118363  
      98A      2.147091    99A      2.219510   100A      2.254633  
     101A      2.273313   102A      2.369317   103A      2.403589  
     104A      2.512305   105A      2.584112   106A      2.613175  
     107A      2.663440   108A      2.704607   109A      3.533843  
     110A      3.632741   111A      3.844573   112A      4.001556  
     113A      4.068536   114A      4.078481   115A      4.157137  
     116A      4.207759   117A      4.261018   118A      4.275930  
     119A      4.325211   120A      4.607439   121A      4.656480  
     122A      4.944438   123A      4.950072   124A      5.062959  
     125A      5.139844   126A      5.321979   127A      5.533467  
     128A      6.015950   129A      6.348446   130A      6.518667  
     131A      6.707241   132A      6.950685   133A      7.095352  
     134A      7.109955   135A      7.121442   136A      7.171478  
     137A      7.192499   138A      7.426759   139A      7.699814  
     140A      7.725522   141A      8.613551   142A     15.735216  

    Final Occupation by Irrep:
              A 
    DOCC [    10 ]
    NA   [    10 ]
    NB   [    10 ]

  @DF-RHF Final Energy:  -237.76073290930339

   => Energetics <=

    Nuclear Repulsion Energy =             35.2187973534709826
    One-Electron Energy =                -398.2715498600907154
    Two-Electron Energy =                 125.2920195973163686
    Total Energy =                       -237.7607329093033854

Computation Completed


Properties will be evaluated at   0.000000,   0.000000,   0.000000 [a0]

Properties computed using the SCF density matrix


 Multipole Moments:

 ------------------------------------------------------------------------------------
     Multipole            Electronic (a.u.)      Nuclear  (a.u.)        Total (a.u.)
 ------------------------------------------------------------------------------------

 L = 1.  Multiply by 2.5417464519 to convert [e a0] to [Debye]
 Dipole X            :        -40.2630028           43.5168041            3.2538013
 Dipole Y            :         -1.0088125            1.5716115            0.5627990
 Dipole Z            :         -0.4848841            0.7858048            0.3009207
 Magnitude           :                                                    3.3157984

 ------------------------------------------------------------------------------------

*** tstop() called on moses-razer at Wed Jan  3 15:23:41 2024
Module time:
	user time   =       5.51 seconds =       0.09 minutes
	system time =       0.63 seconds =       0.01 minutes
	total time  =          1 seconds =       0.02 minutes
Total time:
	user time   =       5.51 seconds =       0.09 minutes
	system time =       0.63 seconds =       0.01 minutes
	total time  =          1 seconds =       0.02 minutes

  //>>>>>>>>>>>>>>>>>>>>>>>>>>>>>>>>>>>//
  //            Monomer A HF           //
  //<<<<<<<<<<<<<<<<<<<<<<<<<<<<<<<<<<<//

   => Libint2 <=

    Primary   basis highest AM E, G, H:  5, 4, 3
    Auxiliary basis highest AM E, G, H:  6, 5, 4
    Onebody   basis highest AM E, G, H:  6, 5, 4
    Solid Harmonics ordering:            gaussian

*** tstart() called on moses-razer
*** at Wed Jan  3 15:23:41 2024

   => Loading Basis Set <=

    Name: AUG-CC-PVTZ
    Role: ORBITAL
    Keyword: BASIS
    atoms 1   entry O          line   331 file /home/kchung25/anaconda3/envs/p415env/share/psi4/basis/aug-cc-pvtz.gbs 
    atoms 2-3 entry H          line    40 file /home/kchung25/anaconda3/envs/p415env/share/psi4/basis/aug-cc-pvtz.gbs 
    atoms 4   entry NA         line   469 file /home/kchung25/anaconda3/envs/p415env/share/psi4/basis/aug-cc-pvtz.gbs 


         ---------------------------------------------------------
                                   SCF
               by Justin Turney, Rob Parrish, Andy Simmonett
                          and Daniel G. A. Smith
                              RHF Reference
                        6 Threads,  57220 MiB Core
         ---------------------------------------------------------

  ==> Geometry <==

    Molecular point group: c1
    Full point group: C1

    Geometry (in Angstrom), charge = 0, multiplicity = 1:

       Center              X                  Y                   Z               Mass       
    ------------   -----------------  -----------------  -----------------  -----------------
         O            0.000000000000     0.000000000000     0.000000000000    15.994914619570
         H            0.105625000000     0.953626000000    -0.060983000000     1.007825032230
         H           -0.825864000000    -0.121965000000     0.476813000000     1.007825032230
      Gh(NA)          2.158940000000     0.000000000000     0.000000000000    22.989769282000

  Running in c1 symmetry.

  Rotational constants: A =     14.50132  B =      0.15599  C =      0.15493 [cm^-1]
  Rotational constants: A = 434738.63055  B =   4676.45432  C =   4644.75675 [MHz]
  Nuclear repulsion =    9.154722588447749

  Charge       = 0
  Multiplicity = 1
  Electrons    = 10
  Nalpha       = 5
  Nbeta        = 5

  ==> Algorithm <==

  SCF Algorithm Type is DF.
  DIIS enabled.
  MOM disabled.
  Fractional occupation disabled.
  Guess Type is SAD.
  Energy threshold   = 1.00e-08
  Density threshold  = 1.00e-08
  Integral threshold = 1.00e-12

  ==> Primary Basis <==

  Basis Set: AUG-CC-PVTZ
    Blend: AUG-CC-PVTZ
    Number of shells: 48
    Number of basis functions: 142
    Number of Cartesian functions: 164
    Spherical Harmonics?: true
    Max angular momentum: 3

   => Loading Basis Set <=

    Name: (AUG-CC-PVTZ AUX)
    Role: JKFIT
    Keyword: DF_BASIS_SCF
    atoms 1   entry O          line   286 file /home/kchung25/anaconda3/envs/p415env/share/psi4/basis/aug-cc-pvtz-jkfit.gbs 
    atoms 2-3 entry H          line    70 file /home/kchung25/anaconda3/envs/p415env/share/psi4/basis/aug-cc-pvtz-jkfit.gbs 
    atoms 4   entry NA         line   498 file /home/kchung25/anaconda3/envs/p415env/share/psi4/basis/def2-universal-jkfit.gbs 

  ==> Integral Setup <==

  ==> DiskDFJK: Density-Fitted J/K Matrices <==

    J tasked:                  Yes
    K tasked:                  Yes
    wK tasked:                  No
    OpenMP threads:              6
    Integrals threads:           6
    Memory [MiB]:            42915
    Algorithm:                Core
    Integral Cache:           LOAD
    Schwarz Cutoff:          1E-12
    Fitting Condition:       1E-10

   => Auxiliary Basis Set <=

  Basis Set: (AUG-CC-PVTZ AUX)
    Blend: AUG-CC-PVTZ-JKFIT + DEF2-UNIVERSAL-JKFIT
    Number of shells: 92
    Number of basis functions: 308
    Number of Cartesian functions: 378
    Spherical Harmonics?: true
    Max angular momentum: 4

  Minimum eigenvalue in the overlap matrix is 5.4620989624E-05.
  Reciprocal condition number of the overlap matrix is 6.1147255101E-06.
    Using symmetric orthogonalization.

  ==> Pre-Iterations <==

  SCF Guess: Superposition of Atomic Densities via on-the-fly atomic UHF (no occupation information).

   -------------------------
    Irrep   Nso     Nmo    
   -------------------------
     A        142     142 
   -------------------------
    Total     142     142
   -------------------------

  ==> Iterations <==

                           Total Energy        Delta E     RMS |[F,P]|

   @DF-RHF iter SAD:   -75.47320800514804   -7.54732e+01   0.00000e+00 
   @DF-RHF iter   1:   -75.97596176439535   -5.02754e-01   3.29807e-03 ADIIS/DIIS
   @DF-RHF iter   2:   -76.02839491007819   -5.24331e-02   2.25242e-03 ADIIS/DIIS
   @DF-RHF iter   3:   -76.05995185312347   -3.15569e-02   1.54406e-04 ADIIS/DIIS
   @DF-RHF iter   4:   -76.06034747635420   -3.95623e-04   3.66770e-05 DIIS
   @DF-RHF iter   5:   -76.06037216287997   -2.46865e-05   8.37441e-06 DIIS
   @DF-RHF iter   6:   -76.06037419632125   -2.03344e-06   1.83658e-06 DIIS
   @DF-RHF iter   7:   -76.06037430396792   -1.07647e-07   3.32026e-07 DIIS
   @DF-RHF iter   8:   -76.06037430705180   -3.08388e-09   5.53312e-08 DIIS
   @DF-RHF iter   9:   -76.06037430711994   -6.81410e-11   1.37584e-08 DIIS
   @DF-RHF iter  10:   -76.06037430712387   -3.92220e-12   1.99417e-09 DIIS
  Energy and wave function converged.


  ==> Post-Iterations <==

    Orbital Energies [Eh]
    ---------------------

    Doubly Occupied:                                                      

       1A    -20.567761     2A     -1.351335     3A     -0.715612  
       4A     -0.583961     5A     -0.509963  

    Virtual:                                                              

       6A      0.008489     7A      0.016842     8A      0.018284  
       9A      0.019348    10A      0.045457    11A      0.056362  
      12A      0.058444    13A      0.062028    14A      0.063759  
      15A      0.070347    16A      0.072469    17A      0.074885  
      18A      0.075975    19A      0.095166    20A      0.098781  
      21A      0.146398    22A      0.152168    23A      0.159431  
      24A      0.171398    25A      0.195746    26A      0.203406  
      27A      0.219736    28A      0.235074    29A      0.249066  
      30A      0.260858    31A      0.264458    32A      0.271003  
      33A      0.283292    34A      0.283505    35A      0.284911  
      36A      0.290482    37A      0.321935    38A      0.330790  
      39A      0.338248    40A      0.346990    41A      0.349422  
      42A      0.362718    43A      0.381154    44A      0.387308  
      45A      0.430901    46A      0.438762    47A      0.471641  
      48A      0.484809    49A      0.492258    50A      0.522289  
      51A      0.558008    52A      0.673230    53A      0.692273  
      54A      0.699394    55A      0.721399    56A      0.731450  
      57A      0.736888    58A      0.762044    59A      0.768898  
      60A      0.779814    61A      0.780196    62A      0.795653  
      63A      0.804676    64A      0.847120    65A      0.857782  
      66A      0.875572    67A      0.902958    68A      0.918510  
      69A      0.965375    70A      0.986132    71A      1.033494  
      72A      1.045701    73A      1.058501    74A      1.097468  
      75A      1.107521    76A      1.122175    77A      1.190411  
      78A      1.212119    79A      1.228766    80A      1.294052  
      81A      1.330326    82A      1.364493    83A      1.448013  
      84A      1.555271    85A      1.641843    86A      1.655357  
      87A      1.706302    88A      1.844014    89A      2.018711  
      90A      2.034364    91A      2.192479    92A      2.337573  
      93A      2.374911    94A      2.444676    95A      2.488460  
      96A      2.496977    97A      2.584064    98A      2.618237  
      99A      2.734785   100A      2.797527   101A      2.819100  
     102A      2.898585   103A      2.917130   104A      3.748167  
     105A      3.842009   106A      4.045731   107A      4.209878  
     108A      4.259851   109A      4.290418   110A      4.365999  
     111A      4.410753   112A      4.426435   113A      4.477370  
     114A      4.532650   115A      4.646997   116A      4.837615  
     117A      4.862871   118A      5.146911   119A      5.168284  
     120A      5.276959   121A      5.356218   122A      5.540468  
     123A      5.738398   124A      6.226255   125A      6.384298  
     126A      6.449912   127A      6.606308   128A      6.739347  
     129A      6.928942   130A      7.050782   131A      7.184051  
     132A      7.324015   133A      7.337112   134A      7.361239  
     135A      7.416104   136A      7.533568   137A      7.720559  
     138A      7.925352   139A      8.025128   140A      8.842961  
     141A     15.953431   142A     64.509460  

    Final Occupation by Irrep:
              A 
    DOCC [     5 ]
    NA   [     5 ]
    NB   [     5 ]

  @DF-RHF Final Energy:   -76.06037430712387

   => Energetics <=

    Nuclear Repulsion Energy =              9.1547225884477488
    One-Electron Energy =                -122.9729283861542797
    Two-Electron Energy =                  37.7578314905826602
    Total Energy =                        -76.0603743071238654

Computation Completed


Properties will be evaluated at   0.000000,   0.000000,   0.000000 [a0]

Properties computed using the SCF density matrix


 Multipole Moments:

 ------------------------------------------------------------------------------------
     Multipole            Electronic (a.u.)      Nuclear  (a.u.)        Total (a.u.)
 ------------------------------------------------------------------------------------

 L = 1.  Multiply by 2.5417464519 to convert [e a0] to [Debye]
 Dipole X            :          0.8830327           -1.3610545           -0.4780218
 Dipole Y            :         -1.0196921            1.5716115            0.5519194
 Dipole Z            :         -0.5099968            0.7858048            0.2758080
 Magnitude           :                                                    0.7805062

 ------------------------------------------------------------------------------------

*** tstop() called on moses-razer at Wed Jan  3 15:23:42 2024
Module time:
	user time   =       3.08 seconds =       0.05 minutes
	system time =       0.25 seconds =       0.00 minutes
	total time  =          1 seconds =       0.02 minutes
Total time:
	user time   =       8.62 seconds =       0.14 minutes
	system time =       0.88 seconds =       0.01 minutes
	total time  =          2 seconds =       0.03 minutes

  //>>>>>>>>>>>>>>>>>>>>>>>>>>>>>>>>>>>//
  //            Monomer B HF           //
  //<<<<<<<<<<<<<<<<<<<<<<<<<<<<<<<<<<<//

   => Libint2 <=

    Primary   basis highest AM E, G, H:  5, 4, 3
    Auxiliary basis highest AM E, G, H:  6, 5, 4
    Onebody   basis highest AM E, G, H:  6, 5, 4
    Solid Harmonics ordering:            gaussian

*** tstart() called on moses-razer
*** at Wed Jan  3 15:23:42 2024

   => Loading Basis Set <=

    Name: AUG-CC-PVTZ
    Role: ORBITAL
    Keyword: BASIS
    atoms 1   entry O          line   331 file /home/kchung25/anaconda3/envs/p415env/share/psi4/basis/aug-cc-pvtz.gbs 
    atoms 2-3 entry H          line    40 file /home/kchung25/anaconda3/envs/p415env/share/psi4/basis/aug-cc-pvtz.gbs 
    atoms 4   entry NA         line   469 file /home/kchung25/anaconda3/envs/p415env/share/psi4/basis/aug-cc-pvtz.gbs 


         ---------------------------------------------------------
                                   SCF
               by Justin Turney, Rob Parrish, Andy Simmonett
                          and Daniel G. A. Smith
                              RHF Reference
                        6 Threads,  57220 MiB Core
         ---------------------------------------------------------

  ==> Geometry <==

    Molecular point group: c1
    Full point group: C1

    Geometry (in Angstrom), charge = 1, multiplicity = 1:

       Center              X                  Y                   Z               Mass       
    ------------   -----------------  -----------------  -----------------  -----------------
      Gh(O)           0.000000000000     0.000000000000     0.000000000000    15.994914619570
      Gh(H)           0.105625000000     0.953626000000    -0.060983000000     1.007825032230
      Gh(H)          -0.825864000000    -0.121965000000     0.476813000000     1.007825032230
         NA           2.158940000000     0.000000000000     0.000000000000    22.989769282000

  Running in c1 symmetry.

  Rotational constants: A =     14.50132  B =      0.15599  C =      0.15493 [cm^-1]
  Rotational constants: A = 434738.63055  B =   4676.45432  C =   4644.75675 [MHz]
  Nuclear repulsion =    0.000000000000000

  Charge       = 1
  Multiplicity = 1
  Electrons    = 10
  Nalpha       = 5
  Nbeta        = 5

  ==> Algorithm <==

  SCF Algorithm Type is DF.
  DIIS enabled.
  MOM disabled.
  Fractional occupation disabled.
  Guess Type is SAD.
  Energy threshold   = 1.00e-08
  Density threshold  = 1.00e-08
  Integral threshold = 1.00e-12

  ==> Primary Basis <==

  Basis Set: AUG-CC-PVTZ
    Blend: AUG-CC-PVTZ
    Number of shells: 48
    Number of basis functions: 142
    Number of Cartesian functions: 164
    Spherical Harmonics?: true
    Max angular momentum: 3

   => Loading Basis Set <=

    Name: (AUG-CC-PVTZ AUX)
    Role: JKFIT
    Keyword: DF_BASIS_SCF
    atoms 1   entry O          line   286 file /home/kchung25/anaconda3/envs/p415env/share/psi4/basis/aug-cc-pvtz-jkfit.gbs 
    atoms 2-3 entry H          line    70 file /home/kchung25/anaconda3/envs/p415env/share/psi4/basis/aug-cc-pvtz-jkfit.gbs 
    atoms 4   entry NA         line   498 file /home/kchung25/anaconda3/envs/p415env/share/psi4/basis/def2-universal-jkfit.gbs 

  ==> Integral Setup <==

  ==> DiskDFJK: Density-Fitted J/K Matrices <==

    J tasked:                  Yes
    K tasked:                  Yes
    wK tasked:                  No
    OpenMP threads:              6
    Integrals threads:           6
    Memory [MiB]:            42915
    Algorithm:                Core
    Integral Cache:           LOAD
    Schwarz Cutoff:          1E-12
    Fitting Condition:       1E-10

   => Auxiliary Basis Set <=

  Basis Set: (AUG-CC-PVTZ AUX)
    Blend: AUG-CC-PVTZ-JKFIT + DEF2-UNIVERSAL-JKFIT
    Number of shells: 92
    Number of basis functions: 308
    Number of Cartesian functions: 378
    Spherical Harmonics?: true
    Max angular momentum: 4

  Minimum eigenvalue in the overlap matrix is 5.4620989624E-05.
  Reciprocal condition number of the overlap matrix is 6.1147255101E-06.
    Using symmetric orthogonalization.

  ==> Pre-Iterations <==

  SCF Guess: Superposition of Atomic Densities via on-the-fly atomic UHF (no occupation information).

   -------------------------
    Irrep   Nso     Nmo    
   -------------------------
     A        142     142 
   -------------------------
    Total     142     142
   -------------------------

  ==> Iterations <==

                           Total Energy        Delta E     RMS |[F,P]|

   @DF-RHF iter SAD:  -161.74559947153989   -1.61746e+02   0.00000e+00 
   @DF-RHF iter   1:  -161.67602649865628    6.95730e-02   4.13102e-05 DIIS
   @DF-RHF iter   2:  -161.67604441786810   -1.79192e-05   7.97719e-06 DIIS
   @DF-RHF iter   3:  -161.67604487917373   -4.61306e-07   3.27367e-07 DIIS
   @DF-RHF iter   4:  -161.67604487995035   -7.76623e-10   3.11519e-08 DIIS
   @DF-RHF iter   5:  -161.67604487995715   -6.79279e-12   1.90383e-09 DIIS
  Energy and wave function converged.


  ==> Post-Iterations <==

    Orbital Energies [Eh]
    ---------------------

    Doubly Occupied:                                                      

       1A    -40.762723     2A     -3.074865     3A     -1.798153  
       4A     -1.798055     5A     -1.798008  

    Virtual:                                                              

       6A     -0.181834     7A     -0.109446     8A     -0.109437  
       9A     -0.109435    10A     -0.069987    11A     -0.051115  
      12A     -0.050595    13A     -0.050424    14A     -0.050241  
      15A     -0.050235    16A     -0.049062    17A     -0.049000  
      18A     -0.048946    19A     -0.020398    20A     -0.006917  
      21A     -0.001051    22A      0.000068    23A      0.001300  
      24A      0.010273    25A      0.035778    26A      0.040772  
      27A      0.041724    28A      0.058158    29A      0.058611  
      30A      0.072035    31A      0.087604    32A      0.101460  
      33A      0.104757    34A      0.105245    35A      0.105556  
      36A      0.118629    37A      0.131475    38A      0.147936  
      39A      0.160841    40A      0.169591    41A      0.179630  
      42A      0.182192    43A      0.211332    44A      0.226360  
      45A      0.234046    46A      0.258233    47A      0.270837  
      48A      0.283273    49A      0.317988    50A      0.331301  
      51A      0.357163    52A      0.373643    53A      0.374592  
      54A      0.385385    55A      0.395768    56A      0.458101  
      57A      0.486923    58A      0.494150    59A      0.495198  
      60A      0.497328    61A      0.501289    62A      0.517290  
      63A      0.560481    64A      0.626382    65A      0.666553  
      66A      0.693675    67A      0.714656    68A      0.721104  
      69A      0.770045    70A      0.792558    71A      0.829741  
      72A      0.891752    73A      0.905296    74A      0.922138  
      75A      0.945838    76A      0.992404    77A      1.009999  
      78A      1.027208    79A      1.056205    80A      1.095281  
      81A      1.140234    82A      1.247403    83A      1.310466  
      84A      1.396220    85A      1.545477    86A      1.585267  
      87A      1.617007    88A      1.664776    89A      1.706778  
      90A      1.879601    91A      1.927026    92A      2.219460  
      93A      2.263662    94A      2.316669    95A      2.331039  
      96A      2.370902    97A      2.423190    98A      2.523201  
      99A      2.644866   100A      2.672947   101A      2.972511  
     102A      2.986373   103A      3.074100   104A      3.119372  
     105A      3.122430   106A      3.349489   107A      3.487731  
     108A      4.181291   109A      4.281480   110A      4.345398  
     111A      4.442047   112A      4.524657   113A      4.547109  
     114A      4.692280   115A      4.762944   116A      4.780550  
     117A      5.003298   118A      5.335628   119A      5.403092  
     120A      5.458970   121A      5.664207   122A      5.928357  
     123A      6.184193   124A      6.440846   125A      6.849887  
     126A      7.448815   127A      7.590172   128A      7.842645  
     129A      7.935643   130A      8.057126   131A      8.544843  
     132A      8.603009   133A      9.570984   134A      9.692542  
     135A      9.775050   136A      9.986752   137A     10.996911  
     138A     11.504972   139A     11.913523   140A     13.319143  
     141A     13.618725   142A     64.819872  

    Final Occupation by Irrep:
              A 
    DOCC [     5 ]
    NA   [     5 ]
    NB   [     5 ]

  @DF-RHF Final Energy:  -161.67604487995715

   => Energetics <=

    Nuclear Repulsion Energy =              0.0000000000000000
    One-Electron Energy =                -224.8884830678611308
    Two-Electron Energy =                  63.2124381879039845
    Total Energy =                       -161.6760448799571463

Computation Completed


Properties will be evaluated at   0.000000,   0.000000,   0.000000 [a0]

Properties computed using the SCF density matrix


 Multipole Moments:

 ------------------------------------------------------------------------------------
     Multipole            Electronic (a.u.)      Nuclear  (a.u.)        Total (a.u.)
 ------------------------------------------------------------------------------------

 L = 1.  Multiply by 2.5417464519 to convert [e a0] to [Debye]
 Dipole X            :        -40.7986570           44.8778585            4.0792015
 Dipole Y            :          0.0000677            0.0000000            0.0000677
 Dipole Z            :          0.0000256            0.0000000            0.0000256
 Magnitude           :                                                    4.0792015

 ------------------------------------------------------------------------------------

*** tstop() called on moses-razer at Wed Jan  3 15:23:43 2024
Module time:
	user time   =       3.92 seconds =       0.07 minutes
	system time =       0.52 seconds =       0.01 minutes
	total time  =          1 seconds =       0.02 minutes
Total time:
	user time   =      12.56 seconds =       0.21 minutes
	system time =       1.40 seconds =       0.02 minutes
	total time  =          3 seconds =       0.05 minutes
  Constructing Basis Sets for SAPT...

   => Loading Basis Set <=

    Name: (AUG-CC-PVTZ AUX)
    Role: RIFIT
    Keyword: DF_BASIS_SAPT
    atoms 1   entry O          line   264 file /home/kchung25/anaconda3/envs/p415env/share/psi4/basis/aug-cc-pvtz-ri.gbs 
    atoms 2-3 entry H          line    30 file /home/kchung25/anaconda3/envs/p415env/share/psi4/basis/aug-cc-pvtz-ri.gbs 
    atoms 4   entry NA         line   610 file /home/kchung25/anaconda3/envs/p415env/share/psi4/basis/def2-qzvpp-ri.gbs 

   => Loading Basis Set <=

    Name: (AUG-CC-PVTZ AUX)
    Role: JKFIT
    Keyword: DF_BASIS_ELST
    atoms 1   entry O          line   286 file /home/kchung25/anaconda3/envs/p415env/share/psi4/basis/aug-cc-pvtz-jkfit.gbs 
    atoms 2-3 entry H          line    70 file /home/kchung25/anaconda3/envs/p415env/share/psi4/basis/aug-cc-pvtz-jkfit.gbs 
    atoms 4   entry NA         line   498 file /home/kchung25/anaconda3/envs/p415env/share/psi4/basis/def2-universal-jkfit.gbs 


  //>>>>>>>>>>>>>>>>>>>>>>>>>>>>>>>>>>>//
  //               SAPT2+              //
  //<<<<<<<<<<<<<<<<<<<<<<<<<<<<<<<<<<<//


*** tstart() called on moses-razer
*** at Wed Jan  3 15:23:43 2024

        SAPT2+  
    Ed Hohenstein
     6 June 2009

      Orbital Information
  --------------------------
    NSO        =       142
    NMO        =       142
    NRI        =       364
    NOCC A     =         5
    NOCC B     =         5
    FOCC A     =         0
    FOCC B     =         0
    NVIR A     =       137
    NVIR B     =       137

    Estimated memory usage: 65.9 MB

    Natural Orbital Cutoff:   1.000E-06
    Disp(T3) Truncation:            Yes
    CCD (vv|vv) Truncation:         Yes
    MBPT T2 Truncation:             Yes

    Monomer A: 56 virtual orbitals dropped
    Monomer B: 125 virtual orbitals dropped

    Elst10,r            =    -0.031072732114 [Eh]
    Exch10 (S^2)        =     0.016441305818 [Eh]
    Exch10              =     0.016516356857 [Eh]
    Ind20,r (A<-B)      =    -0.027338234303 [Eh]
    Ind20,r (B<-A)      =    -0.000131866301 [Eh]
    Ind20,r             =    -0.027470100604 [Eh]
    Exch-Ind20,r (A<-B) =     0.016209377808 [Eh]
    Exch-Ind20,r (B<-A) =     0.000073750539 [Eh]
    Exch-Ind20,r        =     0.016283128347 [Eh]
    Disp20              =    -0.000920868362 [Eh]
    Disp20 (NO)         =    -0.000763613189 [Eh]
    Exch-Disp20         =     0.000177647161 [Eh]
    Elst12,r            =     0.001406367014 [Eh]
    Exch11              =    -0.000149908056 [Eh]
    Exch12              =     0.001706262755 [Eh]
    Ind22               =    -0.003358923638 [Eh]
    Disp21              =    -0.000028198249 [Eh]
    Disp22 (SDQ)        =    -0.000048861928 [Eh]

    (i =   1 of   5)          0 seconds
    (i =   2 of   5)          0 seconds
    (i =   3 of   5)          0 seconds
    (i =   4 of   5)          0 seconds
    (i =   5 of   5)          0 seconds

    Disp220 (T)         =    -0.000045712172 [Eh]

    (i =   1 of   5)          0 seconds
    (i =   2 of   5)          0 seconds
    (i =   3 of   5)          0 seconds
    (i =   4 of   5)          0 seconds
    (i =   5 of   5)          0 seconds

    Disp202 (T)         =    -0.000021040399 [Eh]

    Disp22 (T)          =    -0.000066752571 [Eh]

    Est. Disp220 (T)    =    -0.000055125938 [Eh]
    Est. Disp202 (T)    =    -0.000025373368 [Eh]

    Est. Disp22 (T)     =    -0.000080499305 [Eh]

    SAPT Results 
  --------------------------------------------------------------------------------------------------------
    Electrostatics                -29.66636510 [mEh]     -18.61592515 [kcal/mol]     -77.88903084 [kJ/mol]
      Elst10,r                    -31.07273211 [mEh]     -19.49843378 [kcal/mol]     -81.58144693 [kJ/mol]
      Elst12,r                      1.40636701 [mEh]       0.88250862 [kcal/mol]       3.69241609 [kJ/mol]

    Exchange                       18.07271156 [mEh]      11.34079772 [kcal/mol]      47.44989765 [kJ/mol]
      Exch10                       16.51635686 [mEh]      10.36417040 [kcal/mol]      43.36368895 [kJ/mol]
      Exch10(S^2)                  16.44130582 [mEh]      10.31707516 [kcal/mol]      43.16664248 [kJ/mol]
      Exch11(S^2)                  -0.14990806 [mEh]      -0.09406873 [kcal/mol]      -0.39358355 [kJ/mol]
      Exch12(S^2)                   1.70626276 [mEh]       1.07069604 [kcal/mol]       4.47979225 [kJ/mol]

    Induction                     -11.12524096 [mEh]      -6.98119410 [kcal/mol]     -29.20931611 [kJ/mol]
      Ind20,r                     -27.47010060 [mEh]     -17.23774837 [kcal/mol]     -72.12273920 [kJ/mol]
      Ind22                        -3.35892364 [mEh]      -2.10775640 [kcal/mol]      -8.81885280 [kJ/mol]
      Exch-Ind20,r                 16.28312835 [mEh]      10.21781730 [kcal/mol]      42.75134758 [kJ/mol]
      Exch-Ind22                    1.99102965 [mEh]       1.24938997 [kcal/mol]       5.22744762 [kJ/mol]
      delta HF,r (2)                1.42962529 [mEh]       0.89710341 [kcal/mol]       3.75348069 [kJ/mol]

    Dispersion                     -0.90078068 [mEh]      -0.56524841 [kcal/mol]      -2.36499936 [kJ/mol]
      Disp20                       -0.92086836 [mEh]      -0.57785362 [kcal/mol]      -2.41773955 [kJ/mol]
      Disp21                       -0.02819825 [mEh]      -0.01769467 [kcal/mol]      -0.07403449 [kJ/mol]
      Disp22 (SDQ)                 -0.04886193 [mEh]      -0.03066132 [kcal/mol]      -0.12828697 [kJ/mol]
      Disp22 (T)                   -0.06675257 [mEh]      -0.04188787 [kcal/mol]      -0.17525885 [kJ/mol]
      Est. Disp22 (T)              -0.08049931 [mEh]      -0.05051408 [kcal/mol]      -0.21135090 [kJ/mol]
      Exch-Disp20                   0.17764716 [mEh]       0.11147528 [kcal/mol]       0.46641256 [kJ/mol]

  Total HF                        -24.31372222 [mEh]     -15.25709104 [kcal/mol]     -63.83566890 [kJ/mol]
  Total SAPT0                     -25.05694342 [mEh]     -15.72346938 [kcal/mol]     -65.78699590 [kJ/mol]
  Total SAPT2                     -23.46211570 [mEh]     -14.72269988 [kcal/mol]     -61.59977629 [kJ/mol]
  Total SAPT2+                    -23.61967518 [mEh]     -14.82156995 [kcal/mol]     -62.01344865 [kJ/mol]

  Special recipe for scaled SAPT0 (see Manual):
    Electrostatics sSAPT0         -31.07273211 [mEh]     -19.49843378 [kcal/mol]     -81.58144693 [kJ/mol]
    Exchange sSAPT0                16.51635686 [mEh]      10.36417040 [kcal/mol]      43.36368895 [kJ/mol]
    Induction sSAPT0               -9.53334055 [mEh]      -5.98226151 [kcal/mol]     -25.02978217 [kJ/mol]
    Dispersion sSAPT0              -0.74077732 [mEh]      -0.46484478 [kcal/mol]      -1.94491057 [kJ/mol]
  Total sSAPT0                    -24.83049313 [mEh]     -15.58136967 [kcal/mol]     -65.19245072 [kJ/mol]
  --------------------------------------------------------------------------------------------------------

*** tstop() called on moses-razer at Wed Jan  3 15:23:47 2024
Module time:
	user time   =      17.60 seconds =       0.29 minutes
	system time =       1.54 seconds =       0.03 minutes
	total time  =          4 seconds =       0.07 minutes
Total time:
	user time   =      30.56 seconds =       0.51 minutes
	system time =       2.94 seconds =       0.05 minutes
	total time  =          7 seconds =       0.12 minutes

    Psi4 stopped on: Wednesday, 03 January 2024 03:23PM
    Psi4 wall time for execution: 0:00:07.50

*** Psi4 exiting successfully. Buy a developer a beer!
