
    -----------------------------------------------------------------------
          Psi4: An Open-Source Ab Initio Electronic Structure Package
                               Psi4 1.9 release

                         Git: Rev {} zzzzzzz 


    D. G. A. Smith, L. A. Burns, A. C. Simmonett, R. M. Parrish,
    M. C. Schieber, R. Galvelis, P. Kraus, H. Kruse, R. Di Remigio,
    A. Alenaizan, A. M. James, S. Lehtola, J. P. Misiewicz, M. Scheurer,
    R. A. Shaw, J. B. Schriber, Y. Xie, Z. L. Glick, D. A. Sirianni,
    J. S. O'Brien, J. M. Waldrop, A. Kumar, E. G. Hohenstein,
    B. P. Pritchard, B. R. Brooks, H. F. Schaefer III, A. Yu. Sokolov,
    K. Patkowski, A. E. DePrince III, U. Bozkaya, R. A. King,
    F. A. Evangelista, J. M. Turney, T. D. Crawford, C. D. Sherrill,
    J. Chem. Phys. 152(18) 184108 (2020). https://doi.org/10.1063/5.0006002

                            Additional Code Authors
    E. T. Seidl, C. L. Janssen, E. F. Valeev, M. L. Leininger,
    J. F. Gonthier, R. M. Richard, H. R. McAlexander, M. Saitow, X. Wang,
    P. Verma, M. H. Lechner, A. Jiang, S. Behnle, A. G. Heide,
    M. F. Herbst, and D. L. Poole

             Previous Authors, Complete List of Code Contributors,
                       and Citations for Specific Modules
    https://github.com/psi4/psi4/blob/master/codemeta.json
    https://github.com/psi4/psi4/graphs/contributors
    http://psicode.org/psi4manual/master/introduction.html#citing-psifour

    -----------------------------------------------------------------------


    Psi4 started on: Wednesday, 03 January 2024 04:10PM

    Process ID: 413108
    Host:       moses-razer
    PSIDATADIR: /home/kchung25/anaconda3/envs/psi4_19/share/psi4
    Memory:     500.0 MiB
    Threads:    6
    
  ==> Input File <==

--------------------------------------------------------------------------
MEMORY 60 GB

molecule dimer {
0 1
O      0.000000     0.000000     0.000000
H     -0.227890     0.902511     0.227890
H      0.688397     0.147292    -0.688397
--
-1 1
Br     3.212066     0.000000     0.000000

units ang
no_reorient
no_com
symmetry c1
}

set {
basis        aug-cc-pVTZ
scf_type     df
}

energy("sapt2+")
--------------------------------------------------------------------------

  Memory set to  55.879 GiB by Python driver.

Scratch directory: /scratch/
   => Loading Basis Set <=

    Name: AUG-CC-PVTZ
    Role: ORBITAL
    Keyword: BASIS
    atoms 1   entry O          line   331 file /home/kchung25/anaconda3/envs/p415env/share/psi4/basis/aug-cc-pvtz.gbs 
    atoms 2-3 entry H          line    40 file /home/kchung25/anaconda3/envs/p415env/share/psi4/basis/aug-cc-pvtz.gbs 
    atoms 4   entry BR         line  4564 file /home/kchung25/anaconda3/envs/p415env/share/psi4/basis/aug-cc-pvtz.gbs 

   => Loading Basis Set <=

    Name: AUG-CC-PVTZ
    Role: ORBITAL
    Keyword: BASIS
    atoms 1   entry O          line   331 file /home/kchung25/anaconda3/envs/p415env/share/psi4/basis/aug-cc-pvtz.gbs 
    atoms 2-3 entry H          line    40 file /home/kchung25/anaconda3/envs/p415env/share/psi4/basis/aug-cc-pvtz.gbs 
    atoms 4   entry BR         line  4564 file /home/kchung25/anaconda3/envs/p415env/share/psi4/basis/aug-cc-pvtz.gbs 


  //>>>>>>>>>>>>>>>>>>>>>>>>>>>>>>>>>>>//
  //              Dimer HF             //
  //<<<<<<<<<<<<<<<<<<<<<<<<<<<<<<<<<<<//

   => Libint2 <=

    Primary   basis highest AM E, G, H:  5, 4, 3
    Auxiliary basis highest AM E, G, H:  6, 5, 4
    Onebody   basis highest AM E, G, H:  6, 5, 4
    Solid Harmonics ordering:            gaussian

*** tstart() called on moses-razer
*** at Wed Jan  3 16:10:26 2024

   => Loading Basis Set <=

    Name: AUG-CC-PVTZ
    Role: ORBITAL
    Keyword: BASIS
    atoms 1   entry O          line   331 file /home/kchung25/anaconda3/envs/p415env/share/psi4/basis/aug-cc-pvtz.gbs 
    atoms 2-3 entry H          line    40 file /home/kchung25/anaconda3/envs/p415env/share/psi4/basis/aug-cc-pvtz.gbs 
    atoms 4   entry BR         line  4564 file /home/kchung25/anaconda3/envs/p415env/share/psi4/basis/aug-cc-pvtz.gbs 


         ---------------------------------------------------------
                                   SCF
               by Justin Turney, Rob Parrish, Andy Simmonett
                          and Daniel G. A. Smith
                              RHF Reference
                        6 Threads,  57220 MiB Core
         ---------------------------------------------------------

  ==> Geometry <==

    Molecular point group: c1
    Full point group: C1

    Geometry (in Angstrom), charge = -1, multiplicity = 1:

       Center              X                  Y                   Z               Mass       
    ------------   -----------------  -----------------  -----------------  -----------------
         O            0.000000000000     0.000000000000     0.000000000000    15.994914619570
         H           -0.227890000000     0.902511000000     0.227890000000     1.007825032230
         H            0.688397000000     0.147292000000    -0.688397000000     1.007825032230
         BR           3.212066000000     0.000000000000     0.000000000000    78.918337600000

  Running in c1 symmetry.

  Rotational constants: A =     12.28381  B =      0.02068  C =      0.02067 [cm^-1]
  Rotational constants: A = 368259.47989  B =    619.90112  C =    619.61453 [MHz]
  Nuclear repulsion =   67.465279188452172

  Charge       = -1
  Multiplicity = 1
  Electrons    = 46
  Nalpha       = 23
  Nbeta        = 23

  ==> Algorithm <==

  SCF Algorithm Type is DF.
  DIIS enabled.
  MOM disabled.
  Fractional occupation disabled.
  Guess Type is SAD.
  Energy threshold   = 1.00e-08
  Density threshold  = 1.00e-08
  Integral threshold = 1.00e-12

  ==> Primary Basis <==

  Basis Set: AUG-CC-PVTZ
    Blend: AUG-CC-PVTZ
    Number of shells: 51
    Number of basis functions: 151
    Number of Cartesian functions: 174
    Spherical Harmonics?: true
    Max angular momentum: 3

   => Loading Basis Set <=

    Name: (AUG-CC-PVTZ AUX)
    Role: JKFIT
    Keyword: DF_BASIS_SCF
    atoms 1   entry O          line   286 file /home/kchung25/anaconda3/envs/p415env/share/psi4/basis/aug-cc-pvtz-jkfit.gbs 
    atoms 2-3 entry H          line    70 file /home/kchung25/anaconda3/envs/p415env/share/psi4/basis/aug-cc-pvtz-jkfit.gbs 
    atoms 4   entry BR         line  1492 file /home/kchung25/anaconda3/envs/p415env/share/psi4/basis/aug-cc-pvtz-jkfit.gbs 

  ==> Integral Setup <==

  ==> DiskDFJK: Density-Fitted J/K Matrices <==

    J tasked:                  Yes
    K tasked:                  Yes
    wK tasked:                  No
    OpenMP threads:              6
    Integrals threads:           6
    Memory [MiB]:            42915
    Algorithm:                Core
    Integral Cache:           SAVE
    Schwarz Cutoff:          1E-12
    Fitting Condition:       1E-10

   => Auxiliary Basis Set <=

  Basis Set: (AUG-CC-PVTZ AUX)
    Blend: AUG-CC-PVTZ-JKFIT
    Number of shells: 116
    Number of basis functions: 444
    Number of Cartesian functions: 570
    Spherical Harmonics?: true
    Max angular momentum: 4

  Minimum eigenvalue in the overlap matrix is 3.5708281889E-04.
  Reciprocal condition number of the overlap matrix is 4.7564214418E-05.
    Using symmetric orthogonalization.

  ==> Pre-Iterations <==

  SCF Guess: Superposition of Atomic Densities via on-the-fly atomic UHF (no occupation information).

   -------------------------
    Irrep   Nso     Nmo    
   -------------------------
     A        151     151 
   -------------------------
    Total     151     151
   -------------------------

  ==> Iterations <==

                           Total Energy        Delta E     RMS |[F,P]|

   @DF-RHF iter SAD: -2645.92787830200359   -2.64593e+03   0.00000e+00 
   @DF-RHF iter   1: -2648.24325216695934   -2.31537e+00   7.57664e-03 ADIIS/DIIS
   @DF-RHF iter   2: -2648.49815149037249   -2.54899e-01   4.32702e-03 ADIIS/DIIS
   @DF-RHF iter   3: -2648.59362439001325   -9.54729e-02   2.48156e-04 ADIIS/DIIS
   @DF-RHF iter   4: -2648.59424761405262   -6.23224e-04   1.25655e-04 ADIIS/DIIS
   @DF-RHF iter   5: -2648.59438783553333   -1.40221e-04   2.01555e-05 DIIS
   @DF-RHF iter   6: -2648.59439981580317   -1.19803e-05   4.31009e-06 DIIS
   @DF-RHF iter   7: -2648.59440049213572   -6.76333e-07   1.18584e-06 DIIS
   @DF-RHF iter   8: -2648.59440053897015   -4.68344e-08   3.16943e-07 DIIS
   @DF-RHF iter   9: -2648.59440054254082   -3.57068e-09   7.17735e-08 DIIS
   @DF-RHF iter  10: -2648.59440054268907   -1.48248e-10   1.86931e-08 DIIS
   @DF-RHF iter  11: -2648.59440054270226   -1.31877e-11   4.32494e-09 DIIS
  Energy and wave function converged.


  ==> Post-Iterations <==

    Orbital Energies [Eh]
    ---------------------

    Doubly Occupied:                                                      

       1A   -489.727225     2A    -64.867447     3A    -58.221947  
       4A    -58.221926     5A    -58.221863     6A    -20.402674  
       7A     -9.539915     8A     -7.147473     9A     -7.147319  
      10A     -7.147070    11A     -2.889241    12A     -2.889223  
      13A     -2.888875    14A     -2.888690    15A     -2.888616  
      16A     -1.183283    17A     -0.696135    18A     -0.538171  
      19A     -0.426436    20A     -0.346016    21A     -0.150132  
      22A     -0.147966    23A     -0.145504  

    Virtual:                                                              

      24A      0.135387    25A      0.163980    26A      0.237833  
      27A      0.243897    28A      0.256314    29A      0.268803  
      30A      0.283438    31A      0.299444    32A      0.330074  
      33A      0.362403    34A      0.377062    35A      0.389912  
      36A      0.422388    37A      0.457242    38A      0.479121  
      39A      0.492559    40A      0.540206    41A      0.544493  
      42A      0.558277    43A      0.570113    44A      0.583829  
      45A      0.599777    46A      0.644426    47A      0.738218  
      48A      0.746649    49A      0.761028    50A      0.782908  
      51A      0.831642    52A      0.878894    53A      0.884137  
      54A      0.892452    55A      0.975318    56A      0.992628  
      57A      1.015815    58A      1.020210    59A      1.030581  
      60A      1.031771    61A      1.058053    62A      1.068102  
      63A      1.072529    64A      1.094368    65A      1.103823  
      66A      1.115604    67A      1.173653    68A      1.179282  
      69A      1.185316    70A      1.199398    71A      1.215100  
      72A      1.223421    73A      1.234118    74A      1.273532  
      75A      1.322327    76A      1.359232    77A      1.373081  
      78A      1.407847    79A      1.459173    80A      1.533558  
      81A      1.566061    82A      1.678882    83A      1.689182  
      84A      1.724994    85A      1.780767    86A      2.009935  
      87A      2.054180    88A      2.145777    89A      2.291836  
      90A      2.409229    91A      2.415374    92A      2.449670  
      93A      2.465237    94A      2.493522    95A      2.523262  
      96A      2.559438    97A      2.563090    98A      2.571343  
      99A      2.575734   100A      2.581636   101A      2.584724  
     102A      2.589020   103A      2.629154   104A      2.639393  
     105A      2.649675   106A      2.664173   107A      2.676428  
     108A      2.701962   109A      2.739130   110A      2.810124  
     111A      2.842195   112A      2.920130   113A      2.937179  
     114A      2.965480   115A      2.984957   116A      3.104044  
     117A      3.873374   118A      3.901799   119A      4.192915  
     120A      4.272358   121A      4.322733   122A      4.367482  
     123A      4.433694   124A      4.456197   125A      4.543442  
     126A      4.586275   127A      4.627184   128A      4.703932  
     129A      4.914021   130A      5.024699   131A      5.295025  
     132A      5.343294   133A      5.381772   134A      5.469549  
     135A      5.682665   136A      5.798665   137A      6.386434  
     138A      6.698680   139A      6.910024   140A      7.119921  
     141A      7.290271   142A      7.410655   143A      7.454071  
     144A      7.496703   145A      7.548147   146A      7.575466  
     147A      7.719741   148A      8.016213   149A      8.101801  
     150A      8.949990   151A     15.712662  

    Final Occupation by Irrep:
              A 
    DOCC [    23 ]
    NA   [    23 ]
    NB   [    23 ]

  @DF-RHF Final Energy: -2648.59440054270226

   => Energetics <=

    Nuclear Repulsion Energy =             67.4652791884521719
    One-Electron Energy =               -3834.6730670502224712
    Two-Electron Energy =                1118.6133873190674421
    Total Energy =                      -2648.5944005427027150

Computation Completed


Properties will be evaluated at   0.000000,   0.000000,   0.000000 [a0]

Properties computed using the SCF density matrix


 Multipole Moments:

 ------------------------------------------------------------------------------------
     Multipole            Electronic (a.u.)      Nuclear  (a.u.)        Total (a.u.)
 ------------------------------------------------------------------------------------

 L = 1.  Multiply by 2.5417464519 to convert [e a0] to [Debye]
 Dipole X            :       -218.8467255          213.3176084           -5.5291171
 Dipole Y            :         -1.3938696            1.9838402            0.5899706
 Dipole Z            :          0.6892361           -0.8702321           -0.1809960
 Magnitude           :                                                    5.5634487

 ------------------------------------------------------------------------------------

*** tstop() called on moses-razer at Wed Jan  3 16:10:28 2024
Module time:
	user time   =       8.05 seconds =       0.13 minutes
	system time =       0.89 seconds =       0.01 minutes
	total time  =          2 seconds =       0.03 minutes
Total time:
	user time   =       8.05 seconds =       0.13 minutes
	system time =       0.89 seconds =       0.01 minutes
	total time  =          2 seconds =       0.03 minutes

  //>>>>>>>>>>>>>>>>>>>>>>>>>>>>>>>>>>>//
  //            Monomer A HF           //
  //<<<<<<<<<<<<<<<<<<<<<<<<<<<<<<<<<<<//

   => Libint2 <=

    Primary   basis highest AM E, G, H:  5, 4, 3
    Auxiliary basis highest AM E, G, H:  6, 5, 4
    Onebody   basis highest AM E, G, H:  6, 5, 4
    Solid Harmonics ordering:            gaussian

*** tstart() called on moses-razer
*** at Wed Jan  3 16:10:28 2024

   => Loading Basis Set <=

    Name: AUG-CC-PVTZ
    Role: ORBITAL
    Keyword: BASIS
    atoms 1   entry O          line   331 file /home/kchung25/anaconda3/envs/p415env/share/psi4/basis/aug-cc-pvtz.gbs 
    atoms 2-3 entry H          line    40 file /home/kchung25/anaconda3/envs/p415env/share/psi4/basis/aug-cc-pvtz.gbs 
    atoms 4   entry BR         line  4564 file /home/kchung25/anaconda3/envs/p415env/share/psi4/basis/aug-cc-pvtz.gbs 


         ---------------------------------------------------------
                                   SCF
               by Justin Turney, Rob Parrish, Andy Simmonett
                          and Daniel G. A. Smith
                              RHF Reference
                        6 Threads,  57220 MiB Core
         ---------------------------------------------------------

  ==> Geometry <==

    Molecular point group: c1
    Full point group: C1

    Geometry (in Angstrom), charge = 0, multiplicity = 1:

       Center              X                  Y                   Z               Mass       
    ------------   -----------------  -----------------  -----------------  -----------------
         O            0.000000000000     0.000000000000     0.000000000000    15.994914619570
         H           -0.227890000000     0.902511000000     0.227890000000     1.007825032230
         H            0.688397000000     0.147292000000    -0.688397000000     1.007825032230
      Gh(BR)          3.212066000000     0.000000000000     0.000000000000    78.918337600000

  Running in c1 symmetry.

  Rotational constants: A =     12.28381  B =      0.02068  C =      0.02067 [cm^-1]
  Rotational constants: A = 368259.47989  B =    619.90112  C =    619.61453 [MHz]
  Nuclear repulsion =    9.069869727912794

  Charge       = 0
  Multiplicity = 1
  Electrons    = 10
  Nalpha       = 5
  Nbeta        = 5

  ==> Algorithm <==

  SCF Algorithm Type is DF.
  DIIS enabled.
  MOM disabled.
  Fractional occupation disabled.
  Guess Type is SAD.
  Energy threshold   = 1.00e-08
  Density threshold  = 1.00e-08
  Integral threshold = 1.00e-12

  ==> Primary Basis <==

  Basis Set: AUG-CC-PVTZ
    Blend: AUG-CC-PVTZ
    Number of shells: 51
    Number of basis functions: 151
    Number of Cartesian functions: 174
    Spherical Harmonics?: true
    Max angular momentum: 3

   => Loading Basis Set <=

    Name: (AUG-CC-PVTZ AUX)
    Role: JKFIT
    Keyword: DF_BASIS_SCF
    atoms 1   entry O          line   286 file /home/kchung25/anaconda3/envs/p415env/share/psi4/basis/aug-cc-pvtz-jkfit.gbs 
    atoms 2-3 entry H          line    70 file /home/kchung25/anaconda3/envs/p415env/share/psi4/basis/aug-cc-pvtz-jkfit.gbs 
    atoms 4   entry BR         line  1492 file /home/kchung25/anaconda3/envs/p415env/share/psi4/basis/aug-cc-pvtz-jkfit.gbs 

  ==> Integral Setup <==

  ==> DiskDFJK: Density-Fitted J/K Matrices <==

    J tasked:                  Yes
    K tasked:                  Yes
    wK tasked:                  No
    OpenMP threads:              6
    Integrals threads:           6
    Memory [MiB]:            42915
    Algorithm:                Core
    Integral Cache:           LOAD
    Schwarz Cutoff:          1E-12
    Fitting Condition:       1E-10

   => Auxiliary Basis Set <=

  Basis Set: (AUG-CC-PVTZ AUX)
    Blend: AUG-CC-PVTZ-JKFIT
    Number of shells: 116
    Number of basis functions: 444
    Number of Cartesian functions: 570
    Spherical Harmonics?: true
    Max angular momentum: 4

  Minimum eigenvalue in the overlap matrix is 3.5708281889E-04.
  Reciprocal condition number of the overlap matrix is 4.7564214418E-05.
    Using symmetric orthogonalization.

  ==> Pre-Iterations <==

  SCF Guess: Superposition of Atomic Densities via on-the-fly atomic UHF (no occupation information).

   -------------------------
    Irrep   Nso     Nmo    
   -------------------------
     A        151     151 
   -------------------------
    Total     151     151
   -------------------------

  ==> Iterations <==

                           Total Energy        Delta E     RMS |[F,P]|

   @DF-RHF iter SAD:   -75.46503813955215   -7.54650e+01   0.00000e+00 
   @DF-RHF iter   1:   -75.97320049566669   -5.08162e-01   3.09796e-03 ADIIS/DIIS
   @DF-RHF iter   2:   -76.02543189136597   -5.22314e-02   2.14843e-03 ADIIS/DIIS
   @DF-RHF iter   3:   -76.05811285818760   -3.26810e-02   1.46769e-04 ADIIS/DIIS
   @DF-RHF iter   4:   -76.05851964558164   -4.06787e-04   3.58924e-05 DIIS
   @DF-RHF iter   5:   -76.05854692237108   -2.72768e-05   8.37986e-06 DIIS
   @DF-RHF iter   6:   -76.05854923657655   -2.31421e-06   1.81881e-06 DIIS
   @DF-RHF iter   7:   -76.05854935436369   -1.17787e-07   3.10252e-07 DIIS
   @DF-RHF iter   8:   -76.05854935730974   -2.94605e-09   5.21570e-08 DIIS
   @DF-RHF iter   9:   -76.05854935737534   -6.55973e-11   1.28372e-08 DIIS
   @DF-RHF iter  10:   -76.05854935737943   -4.09273e-12   2.07756e-09 DIIS
  Energy and wave function converged.


  ==> Post-Iterations <==

    Orbital Energies [Eh]
    ---------------------

    Doubly Occupied:                                                      

       1A    -20.571129     2A     -1.348963     3A     -0.703447  
       4A     -0.588888     5A     -0.510230  

    Virtual:                                                              

       6A      0.025958     7A      0.046089     8A      0.068745  
       9A      0.077776    10A      0.091183    11A      0.105922  
      12A      0.143519    13A      0.179537    14A      0.182953  
      15A      0.211803    16A      0.228217    17A      0.248397  
      18A      0.275866    19A      0.296916    20A      0.298915  
      21A      0.312693    22A      0.324564    23A      0.331118  
      24A      0.337725    25A      0.343169    26A      0.400475  
      27A      0.417932    28A      0.420022    29A      0.433858  
      30A      0.463272    31A      0.488460    32A      0.520513  
      33A      0.607261    34A      0.673501    35A      0.730649  
      36A      0.738809    37A      0.769566    38A      0.826291  
      39A      0.872702    40A      0.890567    41A      0.905224  
      42A      0.922119    43A      0.932509    44A      0.948877  
      45A      0.969156    46A      0.992307    47A      1.000412  
      48A      1.028408    49A      1.030153    50A      1.034294  
      51A      1.048983    52A      1.055386    53A      1.065553  
      54A      1.078627    55A      1.112578    56A      1.121113  
      57A      1.127087    58A      1.136473    59A      1.149635  
      60A      1.162368    61A      1.203979    62A      1.234503  
      63A      1.260544    64A      1.283777    65A      1.338419  
      66A      1.400895    67A      1.434306    68A      1.525851  
      69A      1.571105    70A      1.597504    71A      1.649332  
      72A      1.849283    73A      1.900336    74A      2.001529  
      75A      2.147033    76A      2.301872    77A      2.348050  
      78A      2.405476    79A      2.453581    80A      2.464726  
      81A      2.522876    82A      2.527218    83A      2.703044  
      84A      2.744157    85A      2.785669    86A      2.797770  
      87A      2.863252    88A      2.868174    89A      2.909675  
      90A      2.997958    91A      3.046280    92A      3.121294  
      93A      3.121938    94A      3.152584    95A      3.157694  
      96A      3.226759    97A      3.245464    98A      3.292042  
      99A      3.294631   100A      3.330501   101A      3.336128  
     102A      3.375568   103A      3.504404   104A      3.722069  
     105A      3.774335   106A      4.083782   107A      4.149098  
     108A      4.203419   109A      4.265766   110A      4.293781  
     111A      4.376052   112A      4.420975   113A      4.441033  
     114A      4.536065   115A      4.744967   116A      4.858673  
     117A      5.127145   118A      5.174217   119A      5.216600  
     120A      5.304280   121A      5.516753   122A      5.634251  
     123A      6.221659   124A      6.534220   125A      6.745134  
     126A      6.953556   127A      7.125149   128A      7.244675  
     129A      7.288570   130A      7.332035   131A      7.380209  
     132A      7.408809   133A      7.550753   134A      7.849638  
     135A      7.937178   136A      8.781990   137A      9.552525  
     138A     13.450548   139A     13.457782   140A     13.585778  
     141A     15.548822   142A     26.133879   143A     26.136462  
     144A     26.169806   145A     26.182970   146A     26.304925  
     147A     45.469287   148A    138.400520   149A    138.411530  
     150A    138.604727   151A    708.675297  

    Final Occupation by Irrep:
              A 
    DOCC [     5 ]
    NA   [     5 ]
    NB   [     5 ]

  @DF-RHF Final Energy:   -76.05854935737943

   => Energetics <=

    Nuclear Repulsion Energy =              9.0698697279127938
    One-Electron Energy =                -122.8115248786138807
    Two-Electron Energy =                  37.6831057933216584
    Total Energy =                        -76.0585493573794338

Computation Completed


Properties will be evaluated at   0.000000,   0.000000,   0.000000 [a0]

Properties computed using the SCF density matrix


 Multipole Moments:

 ------------------------------------------------------------------------------------
     Multipole            Electronic (a.u.)      Nuclear  (a.u.)        Total (a.u.)
 ------------------------------------------------------------------------------------

 L = 1.  Multiply by 2.5417464519 to convert [e a0] to [Debye]
 Dipole X            :         -0.5725265            0.8702321            0.2977057
 Dipole Y            :         -1.2956716            1.9838402            0.6881686
 Dipole Z            :          0.5721568           -0.8702321           -0.2980753
 Magnitude           :                                                    0.8068789

 ------------------------------------------------------------------------------------

*** tstop() called on moses-razer at Wed Jan  3 16:10:30 2024
Module time:
	user time   =       4.08 seconds =       0.07 minutes
	system time =       0.37 seconds =       0.01 minutes
	total time  =          2 seconds =       0.03 minutes
Total time:
	user time   =      12.16 seconds =       0.20 minutes
	system time =       1.26 seconds =       0.02 minutes
	total time  =          4 seconds =       0.07 minutes

  //>>>>>>>>>>>>>>>>>>>>>>>>>>>>>>>>>>>//
  //            Monomer B HF           //
  //<<<<<<<<<<<<<<<<<<<<<<<<<<<<<<<<<<<//

   => Libint2 <=

    Primary   basis highest AM E, G, H:  5, 4, 3
    Auxiliary basis highest AM E, G, H:  6, 5, 4
    Onebody   basis highest AM E, G, H:  6, 5, 4
    Solid Harmonics ordering:            gaussian

*** tstart() called on moses-razer
*** at Wed Jan  3 16:10:30 2024

   => Loading Basis Set <=

    Name: AUG-CC-PVTZ
    Role: ORBITAL
    Keyword: BASIS
    atoms 1   entry O          line   331 file /home/kchung25/anaconda3/envs/p415env/share/psi4/basis/aug-cc-pvtz.gbs 
    atoms 2-3 entry H          line    40 file /home/kchung25/anaconda3/envs/p415env/share/psi4/basis/aug-cc-pvtz.gbs 
    atoms 4   entry BR         line  4564 file /home/kchung25/anaconda3/envs/p415env/share/psi4/basis/aug-cc-pvtz.gbs 


         ---------------------------------------------------------
                                   SCF
               by Justin Turney, Rob Parrish, Andy Simmonett
                          and Daniel G. A. Smith
                              RHF Reference
                        6 Threads,  57220 MiB Core
         ---------------------------------------------------------

  ==> Geometry <==

    Molecular point group: c1
    Full point group: C1

    Geometry (in Angstrom), charge = -1, multiplicity = 1:

       Center              X                  Y                   Z               Mass       
    ------------   -----------------  -----------------  -----------------  -----------------
      Gh(O)           0.000000000000     0.000000000000     0.000000000000    15.994914619570
      Gh(H)          -0.227890000000     0.902511000000     0.227890000000     1.007825032230
      Gh(H)           0.688397000000     0.147292000000    -0.688397000000     1.007825032230
         BR           3.212066000000     0.000000000000     0.000000000000    78.918337600000

  Running in c1 symmetry.

  Rotational constants: A =     12.28381  B =      0.02068  C =      0.02067 [cm^-1]
  Rotational constants: A = 368259.47989  B =    619.90112  C =    619.61453 [MHz]
  Nuclear repulsion =    0.000000000000000

  Charge       = -1
  Multiplicity = 1
  Electrons    = 36
  Nalpha       = 18
  Nbeta        = 18

  ==> Algorithm <==

  SCF Algorithm Type is DF.
  DIIS enabled.
  MOM disabled.
  Fractional occupation disabled.
  Guess Type is SAD.
  Energy threshold   = 1.00e-08
  Density threshold  = 1.00e-08
  Integral threshold = 1.00e-12

  ==> Primary Basis <==

  Basis Set: AUG-CC-PVTZ
    Blend: AUG-CC-PVTZ
    Number of shells: 51
    Number of basis functions: 151
    Number of Cartesian functions: 174
    Spherical Harmonics?: true
    Max angular momentum: 3

   => Loading Basis Set <=

    Name: (AUG-CC-PVTZ AUX)
    Role: JKFIT
    Keyword: DF_BASIS_SCF
    atoms 1   entry O          line   286 file /home/kchung25/anaconda3/envs/p415env/share/psi4/basis/aug-cc-pvtz-jkfit.gbs 
    atoms 2-3 entry H          line    70 file /home/kchung25/anaconda3/envs/p415env/share/psi4/basis/aug-cc-pvtz-jkfit.gbs 
    atoms 4   entry BR         line  1492 file /home/kchung25/anaconda3/envs/p415env/share/psi4/basis/aug-cc-pvtz-jkfit.gbs 

  ==> Integral Setup <==

  ==> DiskDFJK: Density-Fitted J/K Matrices <==

    J tasked:                  Yes
    K tasked:                  Yes
    wK tasked:                  No
    OpenMP threads:              6
    Integrals threads:           6
    Memory [MiB]:            42915
    Algorithm:                Core
    Integral Cache:           LOAD
    Schwarz Cutoff:          1E-12
    Fitting Condition:       1E-10

   => Auxiliary Basis Set <=

  Basis Set: (AUG-CC-PVTZ AUX)
    Blend: AUG-CC-PVTZ-JKFIT
    Number of shells: 116
    Number of basis functions: 444
    Number of Cartesian functions: 570
    Spherical Harmonics?: true
    Max angular momentum: 4

  Minimum eigenvalue in the overlap matrix is 3.5708281889E-04.
  Reciprocal condition number of the overlap matrix is 4.7564214418E-05.
    Using symmetric orthogonalization.

  ==> Pre-Iterations <==

  SCF Guess: Superposition of Atomic Densities via on-the-fly atomic UHF (no occupation information).

   -------------------------
    Irrep   Nso     Nmo    
   -------------------------
     A        151     151 
   -------------------------
    Total     151     151
   -------------------------

  ==> Iterations <==

                           Total Energy        Delta E     RMS |[F,P]|

   @DF-RHF iter SAD: -2570.41423529376925   -2.57041e+03   0.00000e+00 
   @DF-RHF iter   1: -2572.25536533538434   -1.84113e+00   6.97102e-03 ADIIS/DIIS
   @DF-RHF iter   2: -2572.46447168248096   -2.09106e-01   3.87058e-03 ADIIS/DIIS
   @DF-RHF iter   3: -2572.53364257943167   -6.91709e-02   6.38487e-05 DIIS
   @DF-RHF iter   4: -2572.53367672962077   -3.41502e-05   7.42567e-06 DIIS
   @DF-RHF iter   5: -2572.53367783153635   -1.10192e-06   1.87392e-06 DIIS
   @DF-RHF iter   6: -2572.53367790501306   -7.34767e-08   3.47454e-07 DIIS
   @DF-RHF iter   7: -2572.53367791390974   -8.89668e-09   3.14479e-08 DIIS
   @DF-RHF iter   8: -2572.53367791399069   -8.09450e-11   1.00457e-08 DIIS
   @DF-RHF iter   9: -2572.53367791399933   -8.64020e-12   2.59227e-09 DIIS
  Energy and wave function converged.


  ==> Post-Iterations <==

    Orbital Energies [Eh]
    ---------------------

    Doubly Occupied:                                                      

       1A   -489.720615     2A    -64.860633     3A    -58.215114  
       4A    -58.215113     5A    -58.215110     6A     -9.532908  
       7A     -7.140256     8A     -7.140255     9A     -7.140241  
      10A     -2.881926    11A     -2.881926    12A     -2.881923  
      13A     -2.881921    14A     -2.881906    15A     -0.685998  
      16A     -0.139337    17A     -0.139337    18A     -0.139337  

    Virtual:                                                              

      19A      0.134223    20A      0.163656    21A      0.226733  
      22A      0.243744    23A      0.259386    24A      0.261732  
      25A      0.265439    26A      0.275995    27A      0.312944  
      28A      0.359133    29A      0.399093    30A      0.408528  
      31A      0.432930    32A      0.460645    33A      0.487717  
      34A      0.493955    35A      0.506629    36A      0.531957  
      37A      0.538190    38A      0.564204    39A      0.573090  
      40A      0.594908    41A      0.609809    42A      0.743910  
      43A      0.749925    44A      0.772906    45A      0.816922  
      46A      0.876737    47A      0.907034    48A      0.918637  
      49A      0.930660    50A      0.955269    51A      0.958530  
      52A      0.985275    53A      1.024715    54A      1.033406  
      55A      1.039796    56A      1.044026    57A      1.062507  
      58A      1.082035    59A      1.093740    60A      1.109415  
      61A      1.143066    62A      1.145337    63A      1.172332  
      64A      1.201225    65A      1.207172    66A      1.209853  
      67A      1.218743    68A      1.241884    69A      1.266030  
      70A      1.348286    71A      1.372555    72A      1.400955  
      73A      1.458680    74A      1.516609    75A      1.581908  
      76A      1.619355    77A      1.643410    78A      1.735264  
      79A      1.853064    80A      1.894907    81A      1.935433  
      82A      1.954914    83A      2.033911    84A      2.250382  
      85A      2.418682    86A      2.426829    87A      2.482644  
      88A      2.537583    89A      2.567720    90A      2.571102  
      91A      2.573734    92A      2.585703    93A      2.587416  
      94A      2.589351    95A      2.608422    96A      2.623927  
      97A      2.646253    98A      2.660435    99A      2.669910  
     100A      2.680115   101A      2.717291   102A      2.726666  
     103A      2.742026   104A      2.775696   105A      2.809910  
     106A      2.950024   107A      2.980887   108A      3.055628  
     109A      3.307600   110A      3.346317   111A      3.394927  
     112A      3.514591   113A      3.518235   114A      3.677174  
     115A      3.850752   116A      4.258594   117A      4.578695  
     118A      4.598819   119A      4.695606   120A      4.749376  
     121A      4.818366   122A      4.853562   123A      5.009378  
     124A      5.051716   125A      5.134861   126A      5.397099  
     127A      5.712713   128A      5.768939   129A      5.802313  
     130A      6.022202   131A      6.267381   132A      6.506678  
     133A      6.707797   134A      7.179564   135A      7.854789  
     136A      8.021702   137A      8.184109   138A      8.285704  
     139A      8.460105   140A      8.821762   141A      8.963204  
     142A      9.845405   143A     10.027394   144A     10.180362  
     145A     10.395607   146A     11.344719   147A     11.814526  
     148A     12.176321   149A     13.605053   150A     13.962851  
     151A     64.385214  

    Final Occupation by Irrep:
              A 
    DOCC [    18 ]
    NA   [    18 ]
    NB   [    18 ]

  @DF-RHF Final Energy: -2572.53367791399933

   => Energetics <=

    Nuclear Repulsion Energy =              0.0000000000000000
    One-Electron Energy =               -3593.6796443110529253
    Two-Electron Energy =                1021.1459663970537122
    Total Energy =                      -2572.5336779139993268

Computation Completed


Properties will be evaluated at   0.000000,   0.000000,   0.000000 [a0]

Properties computed using the SCF density matrix


 Multipole Moments:

 ------------------------------------------------------------------------------------
     Multipole            Electronic (a.u.)      Nuclear  (a.u.)        Total (a.u.)
 ------------------------------------------------------------------------------------

 L = 1.  Multiply by 2.5417464519 to convert [e a0] to [Debye]
 Dipole X            :       -218.5173837          212.4473763           -6.0700074
 Dipole Y            :         -0.0000172            0.0000000           -0.0000172
 Dipole Z            :         -0.0000861            0.0000000           -0.0000861
 Magnitude           :                                                    6.0700074

 ------------------------------------------------------------------------------------

*** tstop() called on moses-razer at Wed Jan  3 16:10:32 2024
Module time:
	user time   =       6.18 seconds =       0.10 minutes
	system time =       0.91 seconds =       0.02 minutes
	total time  =          2 seconds =       0.03 minutes
Total time:
	user time   =      18.36 seconds =       0.31 minutes
	system time =       2.17 seconds =       0.04 minutes
	total time  =          6 seconds =       0.10 minutes
  Constructing Basis Sets for SAPT...

   => Loading Basis Set <=

    Name: (AUG-CC-PVTZ AUX)
    Role: RIFIT
    Keyword: DF_BASIS_SAPT
    atoms 1   entry O          line   264 file /home/kchung25/anaconda3/envs/p415env/share/psi4/basis/aug-cc-pvtz-ri.gbs 
    atoms 2-3 entry H          line    30 file /home/kchung25/anaconda3/envs/p415env/share/psi4/basis/aug-cc-pvtz-ri.gbs 
    atoms 4   entry BR         line  1248 file /home/kchung25/anaconda3/envs/p415env/share/psi4/basis/aug-cc-pvtz-ri.gbs 

   => Loading Basis Set <=

    Name: (AUG-CC-PVTZ AUX)
    Role: JKFIT
    Keyword: DF_BASIS_ELST
    atoms 1   entry O          line   286 file /home/kchung25/anaconda3/envs/p415env/share/psi4/basis/aug-cc-pvtz-jkfit.gbs 
    atoms 2-3 entry H          line    70 file /home/kchung25/anaconda3/envs/p415env/share/psi4/basis/aug-cc-pvtz-jkfit.gbs 
    atoms 4   entry BR         line  1492 file /home/kchung25/anaconda3/envs/p415env/share/psi4/basis/aug-cc-pvtz-jkfit.gbs 


  //>>>>>>>>>>>>>>>>>>>>>>>>>>>>>>>>>>>//
  //               SAPT2+              //
  //<<<<<<<<<<<<<<<<<<<<<<<<<<<<<<<<<<<//


*** tstart() called on moses-razer
*** at Wed Jan  3 16:10:32 2024

        SAPT2+  
    Ed Hohenstein
     6 June 2009

      Orbital Information
  --------------------------
    NSO        =       151
    NMO        =       151
    NRI        =       389
    NOCC A     =         5
    NOCC B     =        18
    FOCC A     =         0
    FOCC B     =         0
    NVIR A     =       146
    NVIR B     =       133

    Estimated memory usage: 232.1 MB

    Natural Orbital Cutoff:   1.000E-06
    Disp(T3) Truncation:            Yes
    CCD (vv|vv) Truncation:         Yes
    MBPT T2 Truncation:             Yes

    Monomer A: 68 virtual orbitals dropped
    Monomer B: 76 virtual orbitals dropped

    Elst10,r            =    -0.012975618586 [Eh]
    Exch10 (S^2)        =     0.015704895773 [Eh]
    Exch10              =     0.015859919242 [Eh]
    Ind20,r (A<-B)      =    -0.004472013975 [Eh]
    Ind20,r (B<-A)      =    -0.009917266663 [Eh]
    Ind20,r             =    -0.014389280638 [Eh]
    Exch-Ind20,r (A<-B) =     0.002041123760 [Eh]
    Exch-Ind20,r (B<-A) =     0.008803411604 [Eh]
    Exch-Ind20,r        =     0.010844535364 [Eh]
    Disp20              =    -0.006798214825 [Eh]
    Disp20 (NO)         =    -0.005846306535 [Eh]
    Exch-Disp20         =     0.001816029215 [Eh]
    Elst12,r            =    -0.000760671468 [Eh]
    Exch11              =     0.000429296961 [Eh]
    Exch12              =     0.001428656315 [Eh]
    Ind22               =    -0.002116097827 [Eh]
    Disp21              =     0.000474006125 [Eh]
    Disp22 (SDQ)        =    -0.000023981900 [Eh]

    (i =   1 of  18)          0 seconds
    (i =   2 of  18)          0 seconds
    (i =   3 of  18)          0 seconds
    (i =   4 of  18)          0 seconds
    (i =   5 of  18)          0 seconds
    (i =   6 of  18)          0 seconds
    (i =   7 of  18)          1 seconds
    (i =   8 of  18)          1 seconds
    (i =   9 of  18)          1 seconds
    (i =  10 of  18)          1 seconds
    (i =  11 of  18)          1 seconds
    (i =  12 of  18)          1 seconds
    (i =  13 of  18)          1 seconds
    (i =  14 of  18)          2 seconds
    (i =  15 of  18)          2 seconds
    (i =  16 of  18)          2 seconds
    (i =  17 of  18)          2 seconds
    (i =  18 of  18)          2 seconds

    Disp220 (T)         =    -0.000583058475 [Eh]

    (i =   1 of   5)          1 seconds
    (i =   2 of   5)          2 seconds
    (i =   3 of   5)          2 seconds
    (i =   4 of   5)          3 seconds
    (i =   5 of   5)          4 seconds

    Disp202 (T)         =    -0.000436287442 [Eh]

    Disp22 (T)          =    -0.001019345917 [Eh]

    Est. Disp220 (T)    =    -0.000677993319 [Eh]
    Est. Disp202 (T)    =    -0.000507324708 [Eh]

    Est. Disp22 (T)     =    -0.001185318027 [Eh]

    SAPT Results 
  --------------------------------------------------------------------------------------------------------
    Electrostatics                -13.73629005 [mEh]      -8.61965214 [kcal/mol]     -36.06462457 [kJ/mol]
      Elst10,r                    -12.97561859 [mEh]      -8.14232359 [kcal/mol]     -34.06748190 [kJ/mol]
      Elst12,r                     -0.76067147 [mEh]      -0.47732855 [kcal/mol]      -1.99714266 [kJ/mol]

    Exchange                       17.71787252 [mEh]      11.11813286 [kcal/mol]      46.51826789 [kJ/mol]
      Exch10                       15.85991924 [mEh]       9.95224958 [kcal/mol]      41.64021223 [kJ/mol]
      Exch10(S^2)                  15.70489577 [mEh]       9.85497088 [kcal/mol]      41.23319817 [kJ/mol]
      Exch11(S^2)                   0.42929696 [mEh]       0.26938791 [kcal/mol]       1.12711902 [kJ/mol]
      Exch12(S^2)                   1.42865631 [mEh]       0.89649537 [kcal/mol]       3.75093664 [kJ/mol]

    Induction                      -5.57886474 [mEh]      -3.50079047 [kcal/mol]     -14.64730735 [kJ/mol]
      Ind20,r                     -14.38928064 [mEh]      -9.02940992 [kcal/mol]     -37.77905111 [kJ/mol]
      Ind22                        -2.11609783 [mEh]      -1.32787143 [kcal/mol]      -5.55581408 [kJ/mol]
      Exch-Ind20,r                 10.84453536 [mEh]       6.80504868 [kcal/mol]      28.47232368 [kJ/mol]
      Exch-Ind22                    1.59480507 [mEh]       1.00075529 [kcal/mol]       4.18716014 [kJ/mol]
      delta HF,r (2)               -1.51282671 [mEh]      -0.94931309 [kcal/mol]      -3.97192597 [kJ/mol]

    Dispersion                     -5.71747941 [mEh]      -3.58777250 [kcal/mol]     -15.01124013 [kJ/mol]
      Disp20                       -6.79821482 [mEh]      -4.26594421 [kcal/mol]     -17.84871056 [kJ/mol]
      Disp21                        0.47400613 [mEh]       0.29744333 [kcal/mol]       1.24450291 [kJ/mol]
      Disp22 (SDQ)                 -0.02398190 [mEh]      -0.01504887 [kcal/mol]      -0.06296447 [kJ/mol]
      Disp22 (T)                   -1.01934592 [mEh]      -0.63964922 [kcal/mol]      -2.67629234 [kJ/mol]
      Est. Disp22 (T)              -1.18531803 [mEh]      -0.74379829 [kcal/mol]      -3.11205205 [kJ/mol]
      Exch-Disp20                   1.81602922 [mEh]       1.13957554 [kcal/mol]       4.76798405 [kJ/mol]

  Total HF                         -2.17327132 [mEh]      -1.36374834 [kcal/mol]      -5.70592307 [kJ/mol]
  Total SAPT0                      -7.15545693 [mEh]      -4.49011701 [kcal/mol]     -18.78664959 [kJ/mol]
  Total SAPT2                      -6.57946788 [mEh]      -4.12867843 [kcal/mol]     -17.27439054 [kJ/mol]
  Total SAPT2+                     -7.31476168 [mEh]      -4.59008225 [kcal/mol]     -19.20490415 [kJ/mol]

  Special recipe for scaled SAPT0 (see Manual):
    Electrostatics sSAPT0         -12.97561859 [mEh]      -8.14232359 [kcal/mol]     -34.06748190 [kJ/mol]
    Exchange sSAPT0                15.85991924 [mEh]       9.95224958 [kcal/mol]      41.64021223 [kJ/mol]
    Induction sSAPT0               -4.73325142 [mEh]      -2.97016011 [kcal/mol]     -12.42714990 [kJ/mol]
    Dispersion sSAPT0              -4.92787479 [mEh]      -3.09228812 [kcal/mol]     -12.93813348 [kJ/mol]
  Total sSAPT0                     -6.77682556 [mEh]      -4.25252224 [kcal/mol]     -17.79255305 [kJ/mol]
  --------------------------------------------------------------------------------------------------------

*** tstop() called on moses-razer at Wed Jan  3 16:10:48 2024
Module time:
	user time   =      76.54 seconds =       1.28 minutes
	system time =       2.76 seconds =       0.05 minutes
	total time  =         16 seconds =       0.27 minutes
Total time:
	user time   =      95.15 seconds =       1.59 minutes
	system time =       4.93 seconds =       0.08 minutes
	total time  =         22 seconds =       0.37 minutes

    Psi4 stopped on: Wednesday, 03 January 2024 04:10PM
    Psi4 wall time for execution: 0:00:22.35

*** Psi4 exiting successfully. Buy a developer a beer!
