
    -----------------------------------------------------------------------
          Psi4: An Open-Source Ab Initio Electronic Structure Package
                               Psi4 1.9 release

                         Git: Rev {} zzzzzzz 


    D. G. A. Smith, L. A. Burns, A. C. Simmonett, R. M. Parrish,
    M. C. Schieber, R. Galvelis, P. Kraus, H. Kruse, R. Di Remigio,
    A. Alenaizan, A. M. James, S. Lehtola, J. P. Misiewicz, M. Scheurer,
    R. A. Shaw, J. B. Schriber, Y. Xie, Z. L. Glick, D. A. Sirianni,
    J. S. O'Brien, J. M. Waldrop, A. Kumar, E. G. Hohenstein,
    B. P. Pritchard, B. R. Brooks, H. F. Schaefer III, A. Yu. Sokolov,
    K. Patkowski, A. E. DePrince III, U. Bozkaya, R. A. King,
    F. A. Evangelista, J. M. Turney, T. D. Crawford, C. D. Sherrill,
    J. Chem. Phys. 152(18) 184108 (2020). https://doi.org/10.1063/5.0006002

                            Additional Code Authors
    E. T. Seidl, C. L. Janssen, E. F. Valeev, M. L. Leininger,
    J. F. Gonthier, R. M. Richard, H. R. McAlexander, M. Saitow, X. Wang,
    P. Verma, M. H. Lechner, A. Jiang, S. Behnle, A. G. Heide,
    M. F. Herbst, and D. L. Poole

             Previous Authors, Complete List of Code Contributors,
                       and Citations for Specific Modules
    https://github.com/psi4/psi4/blob/master/codemeta.json
    https://github.com/psi4/psi4/graphs/contributors
    http://psicode.org/psi4manual/master/introduction.html#citing-psifour

    -----------------------------------------------------------------------


    Psi4 started on: Wednesday, 03 January 2024 03:20PM

    Process ID: 409882
    Host:       moses-razer
    PSIDATADIR: /home/kchung25/anaconda3/envs/psi4_19/share/psi4
    Memory:     500.0 MiB
    Threads:    6
    
  ==> Input File <==

--------------------------------------------------------------------------
MEMORY 60 GB

molecule dimer {
0 1
O      0.000000     0.000000     0.000000
H     -0.381797     0.586632     0.661291
H     -0.183988    -0.889835     0.318676
--
1 1
Li     1.828878     0.000000     0.000000

units ang
no_reorient
no_com
symmetry c1
}

set {
basis        aug-cc-pVTZ
scf_type     df
}

energy("sapt2+")
--------------------------------------------------------------------------

  Memory set to  55.879 GiB by Python driver.

Scratch directory: /scratch/
   => Loading Basis Set <=

    Name: AUG-CC-PVTZ
    Role: ORBITAL
    Keyword: BASIS
    atoms 1   entry O          line   331 file /home/kchung25/anaconda3/envs/p415env/share/psi4/basis/aug-cc-pvtz.gbs 
    atoms 2-3 entry H          line    40 file /home/kchung25/anaconda3/envs/p415env/share/psi4/basis/aug-cc-pvtz.gbs 
    atoms 4   entry LI         line    85 file /home/kchung25/anaconda3/envs/p415env/share/psi4/basis/aug-cc-pvtz.gbs 

   => Loading Basis Set <=

    Name: AUG-CC-PVTZ
    Role: ORBITAL
    Keyword: BASIS
    atoms 1   entry O          line   331 file /home/kchung25/anaconda3/envs/p415env/share/psi4/basis/aug-cc-pvtz.gbs 
    atoms 2-3 entry H          line    40 file /home/kchung25/anaconda3/envs/p415env/share/psi4/basis/aug-cc-pvtz.gbs 
    atoms 4   entry LI         line    85 file /home/kchung25/anaconda3/envs/p415env/share/psi4/basis/aug-cc-pvtz.gbs 


  //>>>>>>>>>>>>>>>>>>>>>>>>>>>>>>>>>>>//
  //              Dimer HF             //
  //<<<<<<<<<<<<<<<<<<<<<<<<<<<<<<<<<<<//

   => Libint2 <=

    Primary   basis highest AM E, G, H:  5, 4, 3
    Auxiliary basis highest AM E, G, H:  6, 5, 4
    Onebody   basis highest AM E, G, H:  6, 5, 4
    Solid Harmonics ordering:            gaussian

*** tstart() called on moses-razer
*** at Wed Jan  3 15:20:54 2024

   => Loading Basis Set <=

    Name: AUG-CC-PVTZ
    Role: ORBITAL
    Keyword: BASIS
    atoms 1   entry O          line   331 file /home/kchung25/anaconda3/envs/p415env/share/psi4/basis/aug-cc-pvtz.gbs 
    atoms 2-3 entry H          line    40 file /home/kchung25/anaconda3/envs/p415env/share/psi4/basis/aug-cc-pvtz.gbs 
    atoms 4   entry LI         line    85 file /home/kchung25/anaconda3/envs/p415env/share/psi4/basis/aug-cc-pvtz.gbs 


         ---------------------------------------------------------
                                   SCF
               by Justin Turney, Rob Parrish, Andy Simmonett
                          and Daniel G. A. Smith
                              RHF Reference
                        6 Threads,  57220 MiB Core
         ---------------------------------------------------------

  ==> Geometry <==

    Molecular point group: c1
    Full point group: C1

    Geometry (in Angstrom), charge = 1, multiplicity = 1:

       Center              X                  Y                   Z               Mass       
    ------------   -----------------  -----------------  -----------------  -----------------
         O            0.000000000000     0.000000000000     0.000000000000    15.994914619570
         H           -0.381797000000     0.586632000000     0.661291000000     1.007825032230
         H           -0.183988000000    -0.889835000000     0.318676000000     1.007825032230
         LI           1.828878000000     0.000000000000     0.000000000000     7.016003436600

  Running in c1 symmetry.

  Rotational constants: A =     10.01354  B =      0.69735  C =      0.67934 [cm^-1]
  Rotational constants: A = 300198.42413  B =  20905.98019  C =  20366.13629 [MHz]
  Nuclear repulsion =   17.464061675883890

  Charge       = 1
  Multiplicity = 1
  Electrons    = 12
  Nalpha       = 6
  Nbeta        = 6

  ==> Algorithm <==

  SCF Algorithm Type is DF.
  DIIS enabled.
  MOM disabled.
  Fractional occupation disabled.
  Guess Type is SAD.
  Energy threshold   = 1.00e-08
  Density threshold  = 1.00e-08
  Integral threshold = 1.00e-12

  ==> Primary Basis <==

  Basis Set: AUG-CC-PVTZ
    Blend: AUG-CC-PVTZ
    Number of shells: 46
    Number of basis functions: 138
    Number of Cartesian functions: 160
    Spherical Harmonics?: true
    Max angular momentum: 3

   => Loading Basis Set <=

    Name: (AUG-CC-PVTZ AUX)
    Role: JKFIT
    Keyword: DF_BASIS_SCF
    atoms 1   entry O          line   286 file /home/kchung25/anaconda3/envs/p415env/share/psi4/basis/aug-cc-pvtz-jkfit.gbs 
    atoms 2-3 entry H          line    70 file /home/kchung25/anaconda3/envs/p415env/share/psi4/basis/aug-cc-pvtz-jkfit.gbs 
    atoms 4   entry LI         line    54 file /home/kchung25/anaconda3/envs/p415env/share/psi4/basis/def2-universal-jkfit.gbs 

  ==> Integral Setup <==

  ==> DiskDFJK: Density-Fitted J/K Matrices <==

    J tasked:                  Yes
    K tasked:                  Yes
    wK tasked:                  No
    OpenMP threads:              6
    Integrals threads:           6
    Memory [MiB]:            42915
    Algorithm:                Core
    Integral Cache:           SAVE
    Schwarz Cutoff:          1E-12
    Fitting Condition:       1E-10

   => Auxiliary Basis Set <=

  Basis Set: (AUG-CC-PVTZ AUX)
    Blend: AUG-CC-PVTZ-JKFIT + DEF2-UNIVERSAL-JKFIT
    Number of shells: 75
    Number of basis functions: 247
    Number of Cartesian functions: 301
    Spherical Harmonics?: true
    Max angular momentum: 4

  Minimum eigenvalue in the overlap matrix is 1.4961815536E-04.
  Reciprocal condition number of the overlap matrix is 1.6060799497E-05.
    Using symmetric orthogonalization.

  ==> Pre-Iterations <==

  SCF Guess: Superposition of Atomic Densities via on-the-fly atomic UHF (no occupation information).

   -------------------------
    Irrep   Nso     Nmo    
   -------------------------
     A        138     138 
   -------------------------
    Total     138     138
   -------------------------

  ==> Iterations <==

                           Total Energy        Delta E     RMS |[F,P]|

   @DF-RHF iter SAD:   -82.88539233678529   -8.28854e+01   0.00000e+00 
   @DF-RHF iter   1:   -83.26071744366077   -3.75325e-01   3.40137e-03 ADIIS/DIIS
   @DF-RHF iter   2:   -83.31548501584746   -5.47676e-02   2.17007e-03 ADIIS/DIIS
   @DF-RHF iter   3:   -83.34258714459497   -2.71021e-02   1.65871e-04 ADIIS/DIIS
   @DF-RHF iter   4:   -83.34298810952552   -4.00965e-04   3.58144e-05 DIIS
   @DF-RHF iter   5:   -83.34300868817920   -2.05787e-05   7.60798e-06 DIIS
   @DF-RHF iter   6:   -83.34301005429629   -1.36612e-06   1.38235e-06 DIIS
   @DF-RHF iter   7:   -83.34301010498960   -5.06933e-08   2.61617e-07 DIIS
   @DF-RHF iter   8:   -83.34301010657788   -1.58828e-09   4.28548e-08 DIIS
   @DF-RHF iter   9:   -83.34301010661343   -3.55556e-11   1.04191e-08 DIIS
   @DF-RHF iter  10:   -83.34301010661542   -1.98952e-12   1.79931e-09 DIIS
  Energy and wave function converged.


  ==> Post-Iterations <==

    Orbital Energies [Eh]
    ---------------------

    Doubly Occupied:                                                      

       1A    -20.821863     2A     -2.709329     3A     -1.612162  
       4A     -0.971645     5A     -0.856903     6A     -0.780443  

    Virtual:                                                              

       7A     -0.161416     8A     -0.107924     9A     -0.106353  
      10A     -0.096461    11A     -0.064842    12A     -0.056874  
      13A     -0.051522    14A     -0.047166    15A     -0.045667  
      16A     -0.045260    17A     -0.028231    18A     -0.024601  
      19A     -0.014549    20A     -0.000734    21A      0.004509  
      22A      0.008735    23A      0.019273    24A      0.028544  
      25A      0.037203    26A      0.053509    27A      0.059245  
      28A      0.066973    29A      0.092011    30A      0.101625  
      31A      0.133762    32A      0.135925    33A      0.147494  
      34A      0.150287    35A      0.161858    36A      0.173165  
      37A      0.182103    38A      0.190761    39A      0.195600  
      40A      0.212100    41A      0.215884    42A      0.219161  
      43A      0.222098    44A      0.235792    45A      0.258288  
      46A      0.264290    47A      0.288952    48A      0.296872  
      49A      0.312132    50A      0.320257    51A      0.332684  
      52A      0.385251    53A      0.478592    54A      0.488148  
      55A      0.538436    56A      0.555041    57A      0.555237  
      58A      0.570730    59A      0.588286    60A      0.594755  
      61A      0.595822    62A      0.599388    63A      0.622089  
      64A      0.647449    65A      0.654348    66A      0.691935  
      67A      0.708201    68A      0.771430    69A      0.776269  
      70A      0.809296    71A      0.831953    72A      0.857939  
      73A      0.867396    74A      0.879547    75A      0.898706  
      76A      0.910174    77A      0.944577    78A      0.966518  
      79A      0.993127    80A      1.050446    81A      1.081051  
      82A      1.155365    83A      1.197152    84A      1.309129  
      85A      1.421551    86A      1.463999    87A      1.558235  
      88A      1.632882    89A      1.760592    90A      1.840853  
      91A      1.926394    92A      2.092632    93A      2.138862  
      94A      2.170889    95A      2.210692    96A      2.329532  
      97A      2.340458    98A      2.383550    99A      2.482906  
     100A      2.546058   101A      2.563229   102A      2.635941  
     103A      2.685780   104A      3.401504   105A      3.579078  
     106A      3.624121   107A      3.830520   108A      3.996044  
     109A      4.026561   110A      4.057325   111A      4.243660  
     112A      4.263138   113A      4.281358   114A      4.339604  
     115A      4.392524   116A      4.564127   117A      4.651938  
     118A      4.928314   119A      4.956022   120A      5.064210  
     121A      5.114590   122A      5.360186   123A      5.538834  
     124A      6.048709   125A      6.316699   126A      6.505664  
     127A      6.687681   128A      6.932726   129A      7.069041  
     130A      7.084562   131A      7.088700   132A      7.141056  
     133A      7.149298   134A      7.339618   135A      7.670520  
     136A      7.699843   137A      8.621650   138A     15.692920  

    Final Occupation by Irrep:
              A 
    DOCC [     6 ]
    NA   [     6 ]
    NB   [     6 ]

  @DF-RHF Final Energy:   -83.34301010661542

   => Energetics <=

    Nuclear Repulsion Energy =             17.4640616758838902
    One-Electron Energy =                -146.1094563300519269
    Two-Electron Energy =                  45.3023845475526059
    Total Energy =                        -83.3430101066154236

Computation Completed


Properties will be evaluated at   0.000000,   0.000000,   0.000000 [a0]

Properties computed using the SCF density matrix


 Multipole Moments:

 ------------------------------------------------------------------------------------
     Multipole            Electronic (a.u.)      Nuclear  (a.u.)        Total (a.u.)
 ------------------------------------------------------------------------------------

 L = 1.  Multiply by 2.5417464519 to convert [e a0] to [Debye]
 Dipole X            :         -6.6423183            9.2990569            2.6567387
 Dipole Y            :          0.3608054           -0.5729706           -0.2121652
 Dipole Z            :         -1.1435332            1.8518692            0.7083360
 Magnitude           :                                                    2.7577190

 ------------------------------------------------------------------------------------

*** tstop() called on moses-razer at Wed Jan  3 15:20:55 2024
Module time:
	user time   =       3.45 seconds =       0.06 minutes
	system time =       0.13 seconds =       0.00 minutes
	total time  =          1 seconds =       0.02 minutes
Total time:
	user time   =       3.45 seconds =       0.06 minutes
	system time =       0.13 seconds =       0.00 minutes
	total time  =          1 seconds =       0.02 minutes

  //>>>>>>>>>>>>>>>>>>>>>>>>>>>>>>>>>>>//
  //            Monomer A HF           //
  //<<<<<<<<<<<<<<<<<<<<<<<<<<<<<<<<<<<//

   => Libint2 <=

    Primary   basis highest AM E, G, H:  5, 4, 3
    Auxiliary basis highest AM E, G, H:  6, 5, 4
    Onebody   basis highest AM E, G, H:  6, 5, 4
    Solid Harmonics ordering:            gaussian

*** tstart() called on moses-razer
*** at Wed Jan  3 15:20:55 2024

   => Loading Basis Set <=

    Name: AUG-CC-PVTZ
    Role: ORBITAL
    Keyword: BASIS
    atoms 1   entry O          line   331 file /home/kchung25/anaconda3/envs/p415env/share/psi4/basis/aug-cc-pvtz.gbs 
    atoms 2-3 entry H          line    40 file /home/kchung25/anaconda3/envs/p415env/share/psi4/basis/aug-cc-pvtz.gbs 
    atoms 4   entry LI         line    85 file /home/kchung25/anaconda3/envs/p415env/share/psi4/basis/aug-cc-pvtz.gbs 


         ---------------------------------------------------------
                                   SCF
               by Justin Turney, Rob Parrish, Andy Simmonett
                          and Daniel G. A. Smith
                              RHF Reference
                        6 Threads,  57220 MiB Core
         ---------------------------------------------------------

  ==> Geometry <==

    Molecular point group: c1
    Full point group: C1

    Geometry (in Angstrom), charge = 0, multiplicity = 1:

       Center              X                  Y                   Z               Mass       
    ------------   -----------------  -----------------  -----------------  -----------------
         O            0.000000000000     0.000000000000     0.000000000000    15.994914619570
         H           -0.381797000000     0.586632000000     0.661291000000     1.007825032230
         H           -0.183988000000    -0.889835000000     0.318676000000     1.007825032230
      Gh(LI)          1.828878000000     0.000000000000     0.000000000000     7.016003436600

  Running in c1 symmetry.

  Rotational constants: A =     10.01354  B =      0.69735  C =      0.67934 [cm^-1]
  Rotational constants: A = 300198.42413  B =  20905.98019  C =  20366.13629 [MHz]
  Nuclear repulsion =    9.139084036888379

  Charge       = 0
  Multiplicity = 1
  Electrons    = 10
  Nalpha       = 5
  Nbeta        = 5

  ==> Algorithm <==

  SCF Algorithm Type is DF.
  DIIS enabled.
  MOM disabled.
  Fractional occupation disabled.
  Guess Type is SAD.
  Energy threshold   = 1.00e-08
  Density threshold  = 1.00e-08
  Integral threshold = 1.00e-12

  ==> Primary Basis <==

  Basis Set: AUG-CC-PVTZ
    Blend: AUG-CC-PVTZ
    Number of shells: 46
    Number of basis functions: 138
    Number of Cartesian functions: 160
    Spherical Harmonics?: true
    Max angular momentum: 3

   => Loading Basis Set <=

    Name: (AUG-CC-PVTZ AUX)
    Role: JKFIT
    Keyword: DF_BASIS_SCF
    atoms 1   entry O          line   286 file /home/kchung25/anaconda3/envs/p415env/share/psi4/basis/aug-cc-pvtz-jkfit.gbs 
    atoms 2-3 entry H          line    70 file /home/kchung25/anaconda3/envs/p415env/share/psi4/basis/aug-cc-pvtz-jkfit.gbs 
    atoms 4   entry LI         line    54 file /home/kchung25/anaconda3/envs/p415env/share/psi4/basis/def2-universal-jkfit.gbs 

  ==> Integral Setup <==

  ==> DiskDFJK: Density-Fitted J/K Matrices <==

    J tasked:                  Yes
    K tasked:                  Yes
    wK tasked:                  No
    OpenMP threads:              6
    Integrals threads:           6
    Memory [MiB]:            42915
    Algorithm:                Core
    Integral Cache:           LOAD
    Schwarz Cutoff:          1E-12
    Fitting Condition:       1E-10

   => Auxiliary Basis Set <=

  Basis Set: (AUG-CC-PVTZ AUX)
    Blend: AUG-CC-PVTZ-JKFIT + DEF2-UNIVERSAL-JKFIT
    Number of shells: 75
    Number of basis functions: 247
    Number of Cartesian functions: 301
    Spherical Harmonics?: true
    Max angular momentum: 4

  Minimum eigenvalue in the overlap matrix is 1.4961815536E-04.
  Reciprocal condition number of the overlap matrix is 1.6060799497E-05.
    Using symmetric orthogonalization.

  ==> Pre-Iterations <==

  SCF Guess: Superposition of Atomic Densities via on-the-fly atomic UHF (no occupation information).

   -------------------------
    Irrep   Nso     Nmo    
   -------------------------
     A        138     138 
   -------------------------
    Total     138     138
   -------------------------

  ==> Iterations <==

                           Total Energy        Delta E     RMS |[F,P]|

   @DF-RHF iter SAD:   -75.47094835779139   -7.54709e+01   0.00000e+00 
   @DF-RHF iter   1:   -75.97584135156974   -5.04893e-01   3.39259e-03 ADIIS/DIIS
   @DF-RHF iter   2:   -76.02820596135901   -5.23646e-02   2.31991e-03 ADIIS/DIIS
   @DF-RHF iter   3:   -76.05984269336665   -3.16367e-02   1.59173e-04 ADIIS/DIIS
   @DF-RHF iter   4:   -76.06024108458629   -3.98391e-04   3.79216e-05 DIIS
   @DF-RHF iter   5:   -76.06026610795581   -2.50234e-05   8.66436e-06 DIIS
   @DF-RHF iter   6:   -76.06026817429071   -2.06633e-06   1.90474e-06 DIIS
   @DF-RHF iter   7:   -76.06026828423660   -1.09946e-07   3.45718e-07 DIIS
   @DF-RHF iter   8:   -76.06026828741189   -3.17529e-09   5.77163e-08 DIIS
   @DF-RHF iter   9:   -76.06026828748239   -7.05001e-11   1.44370e-08 DIIS
   @DF-RHF iter  10:   -76.06026828748671   -4.32010e-12   2.07239e-09 DIIS
  Energy and wave function converged.


  ==> Post-Iterations <==

    Orbital Energies [Eh]
    ---------------------

    Doubly Occupied:                                                      

       1A    -20.567801     2A     -1.350202     3A     -0.715712  
       4A     -0.582699     5A     -0.509708  

    Virtual:                                                              

       6A      0.009245     7A      0.018559     8A      0.018915  
       9A      0.021042    10A      0.048895    11A      0.062184  
      12A      0.067726    13A      0.070277    14A      0.072049  
      15A      0.081616    16A      0.121082    17A      0.123279  
      18A      0.126153    19A      0.155594    20A      0.158276  
      21A      0.174318    22A      0.185626    23A      0.195121  
      24A      0.199709    25A      0.217821    26A      0.223369  
      27A      0.233268    28A      0.257454    29A      0.279820  
      30A      0.307338    31A      0.310178    32A      0.349253  
      33A      0.353445    34A      0.354788    35A      0.365018  
      36A      0.368409    37A      0.377456    38A      0.384762  
      39A      0.389349    40A      0.391718    41A      0.396133  
      42A      0.412800    43A      0.416497    44A      0.455553  
      45A      0.466323    46A      0.477559    47A      0.498775  
      48A      0.516276    49A      0.611162    50A      0.663865  
      51A      0.684587    52A      0.708223    53A      0.737429  
      54A      0.798646    55A      0.815615    56A      0.815969  
      57A      0.840726    58A      0.861370    59A      0.879271  
      60A      0.890845    61A      0.909961    62A      0.931726  
      63A      0.938028    64A      0.944264    65A      0.956301  
      66A      0.957949    67A      0.976009    68A      1.010295  
      69A      1.037562    70A      1.072512    71A      1.080912  
      72A      1.106262    73A      1.114254    74A      1.134165  
      75A      1.163541    76A      1.188883    77A      1.234121  
      78A      1.248374    79A      1.300342    80A      1.326449  
      81A      1.506721    82A      1.532709    83A      1.611852  
      84A      1.700187    85A      1.715283    86A      1.835023  
      87A      1.873895    88A      1.953081    89A      2.108777  
      90A      2.179088    91A      2.266689    92A      2.387641  
      93A      2.413834    94A      2.485551    95A      2.589644  
      96A      2.613487    97A      2.655694    98A      2.724843  
      99A      2.756221   100A      2.798327   101A      2.893029  
     102A      2.914297   103A      2.950573   104A      3.820223  
     105A      3.838106   106A      4.069042   107A      4.231562  
     108A      4.268724   109A      4.301818   110A      4.450747  
     111A      4.492924   112A      4.515317   113A      4.576932  
     114A      4.597878   115A      4.809899   116A      4.889601  
     117A      5.181131   118A      5.196453   119A      5.312565  
     120A      5.361954   121A      5.590510   122A      5.771857  
     123A      6.301145   124A      6.578559   125A      6.774344  
     126A      6.943593   127A      7.193499   128A      7.334471  
     129A      7.343700   130A      7.351949   131A      7.402183  
     132A      7.408379   133A      7.598468   134A      7.925244  
     135A      7.961202   136A      8.870339   137A     11.332404  
     138A     15.949877  

    Final Occupation by Irrep:
              A 
    DOCC [     5 ]
    NA   [     5 ]
    NB   [     5 ]

  @DF-RHF Final Energy:   -76.06026828748671

   => Energetics <=

    Nuclear Repulsion Energy =              9.1390840368883790
    One-Electron Energy =                -122.9464616570008388
    Two-Electron Energy =                  37.7471093326257474
    Total Energy =                        -76.0602682874867071

Computation Completed


Properties will be evaluated at   0.000000,   0.000000,   0.000000 [a0]

Properties computed using the SCF density matrix


 Multipole Moments:

 ------------------------------------------------------------------------------------
     Multipole            Electronic (a.u.)      Nuclear  (a.u.)        Total (a.u.)
 ------------------------------------------------------------------------------------

 L = 1.  Multiply by 2.5417464519 to convert [e a0] to [Debye]
 Dipole X            :          0.6932232           -1.0691787           -0.3759555
 Dipole Y            :          0.3716941           -0.5729706           -0.2012765
 Dipole Z            :         -1.2014855            1.8518692            0.6503838
 Magnitude           :                                                    0.7777235

 ------------------------------------------------------------------------------------

*** tstop() called on moses-razer at Wed Jan  3 15:20:55 2024
Module time:
	user time   =       2.59 seconds =       0.04 minutes
	system time =       0.02 seconds =       0.00 minutes
	total time  =          0 seconds =       0.00 minutes
Total time:
	user time   =       6.06 seconds =       0.10 minutes
	system time =       0.15 seconds =       0.00 minutes
	total time  =          1 seconds =       0.02 minutes

  //>>>>>>>>>>>>>>>>>>>>>>>>>>>>>>>>>>>//
  //            Monomer B HF           //
  //<<<<<<<<<<<<<<<<<<<<<<<<<<<<<<<<<<<//

   => Libint2 <=

    Primary   basis highest AM E, G, H:  5, 4, 3
    Auxiliary basis highest AM E, G, H:  6, 5, 4
    Onebody   basis highest AM E, G, H:  6, 5, 4
    Solid Harmonics ordering:            gaussian

*** tstart() called on moses-razer
*** at Wed Jan  3 15:20:55 2024

   => Loading Basis Set <=

    Name: AUG-CC-PVTZ
    Role: ORBITAL
    Keyword: BASIS
    atoms 1   entry O          line   331 file /home/kchung25/anaconda3/envs/p415env/share/psi4/basis/aug-cc-pvtz.gbs 
    atoms 2-3 entry H          line    40 file /home/kchung25/anaconda3/envs/p415env/share/psi4/basis/aug-cc-pvtz.gbs 
    atoms 4   entry LI         line    85 file /home/kchung25/anaconda3/envs/p415env/share/psi4/basis/aug-cc-pvtz.gbs 


         ---------------------------------------------------------
                                   SCF
               by Justin Turney, Rob Parrish, Andy Simmonett
                          and Daniel G. A. Smith
                              RHF Reference
                        6 Threads,  57220 MiB Core
         ---------------------------------------------------------

  ==> Geometry <==

    Molecular point group: c1
    Full point group: C1

    Geometry (in Angstrom), charge = 1, multiplicity = 1:

       Center              X                  Y                   Z               Mass       
    ------------   -----------------  -----------------  -----------------  -----------------
      Gh(O)           0.000000000000     0.000000000000     0.000000000000    15.994914619570
      Gh(H)          -0.381797000000     0.586632000000     0.661291000000     1.007825032230
      Gh(H)          -0.183988000000    -0.889835000000     0.318676000000     1.007825032230
         LI           1.828878000000     0.000000000000     0.000000000000     7.016003436600

  Running in c1 symmetry.

  Rotational constants: A =     10.01354  B =      0.69735  C =      0.67934 [cm^-1]
  Rotational constants: A = 300198.42413  B =  20905.98019  C =  20366.13629 [MHz]
  Nuclear repulsion =    0.000000000000000

  Charge       = 1
  Multiplicity = 1
  Electrons    = 2
  Nalpha       = 1
  Nbeta        = 1

  ==> Algorithm <==

  SCF Algorithm Type is DF.
  DIIS enabled.
  MOM disabled.
  Fractional occupation disabled.
  Guess Type is SAD.
  Energy threshold   = 1.00e-08
  Density threshold  = 1.00e-08
  Integral threshold = 1.00e-12

  ==> Primary Basis <==

  Basis Set: AUG-CC-PVTZ
    Blend: AUG-CC-PVTZ
    Number of shells: 46
    Number of basis functions: 138
    Number of Cartesian functions: 160
    Spherical Harmonics?: true
    Max angular momentum: 3

   => Loading Basis Set <=

    Name: (AUG-CC-PVTZ AUX)
    Role: JKFIT
    Keyword: DF_BASIS_SCF
    atoms 1   entry O          line   286 file /home/kchung25/anaconda3/envs/p415env/share/psi4/basis/aug-cc-pvtz-jkfit.gbs 
    atoms 2-3 entry H          line    70 file /home/kchung25/anaconda3/envs/p415env/share/psi4/basis/aug-cc-pvtz-jkfit.gbs 
    atoms 4   entry LI         line    54 file /home/kchung25/anaconda3/envs/p415env/share/psi4/basis/def2-universal-jkfit.gbs 

  ==> Integral Setup <==

  ==> DiskDFJK: Density-Fitted J/K Matrices <==

    J tasked:                  Yes
    K tasked:                  Yes
    wK tasked:                  No
    OpenMP threads:              6
    Integrals threads:           6
    Memory [MiB]:            42915
    Algorithm:                Core
    Integral Cache:           LOAD
    Schwarz Cutoff:          1E-12
    Fitting Condition:       1E-10

   => Auxiliary Basis Set <=

  Basis Set: (AUG-CC-PVTZ AUX)
    Blend: AUG-CC-PVTZ-JKFIT + DEF2-UNIVERSAL-JKFIT
    Number of shells: 75
    Number of basis functions: 247
    Number of Cartesian functions: 301
    Spherical Harmonics?: true
    Max angular momentum: 4

  Minimum eigenvalue in the overlap matrix is 1.4961815536E-04.
  Reciprocal condition number of the overlap matrix is 1.6060799497E-05.
    Using symmetric orthogonalization.

  ==> Pre-Iterations <==

  SCF Guess: Superposition of Atomic Densities via on-the-fly atomic UHF (no occupation information).

   -------------------------
    Irrep   Nso     Nmo    
   -------------------------
     A        138     138 
   -------------------------
    Total     138     138
   -------------------------

  ==> Iterations <==

                           Total Energy        Delta E     RMS |[F,P]|

   @DF-RHF iter SAD:    -7.31449723791722   -7.31450e+00   0.00000e+00 
   @DF-RHF iter   1:    -7.23638165907398    7.81156e-02   1.64482e-05 DIIS
   @DF-RHF iter   2:    -7.23638352781060   -1.86874e-06   1.87804e-06 DIIS
   @DF-RHF iter   3:    -7.23638355597671   -2.81661e-08   9.51793e-08 DIIS
   @DF-RHF iter   4:    -7.23638355603290   -5.61853e-11   8.01139e-10 DIIS
  Energy and wave function converged.


  ==> Post-Iterations <==

    Orbital Energies [Eh]
    ---------------------

    Doubly Occupied:                                                      

       1A     -2.792368  

    Virtual:                                                              

       2A     -0.196298     3A     -0.128598     4A     -0.128595  
       5A     -0.128594     6A     -0.073714     7A     -0.056369  
       8A     -0.056353     9A     -0.056347    10A     -0.046945  
      11A     -0.046822    12A     -0.032421    13A     -0.031383  
      14A     -0.031364    15A     -0.010879    16A     -0.005993  
      17A     -0.004531    18A     -0.004088    19A      0.015174  
      20A      0.022659    21A      0.054845    22A      0.057202  
      23A      0.061635    24A      0.112176    25A      0.117872  
      26A      0.125897    27A      0.126674    28A      0.127123  
      29A      0.134865    30A      0.135150    31A      0.151935  
      32A      0.167321    33A      0.176081    34A      0.181436  
      35A      0.190646    36A      0.195226    37A      0.211210  
      38A      0.213897    39A      0.230929    40A      0.237407  
      41A      0.244678    42A      0.266011    43A      0.272788  
      44A      0.294481    45A      0.319827    46A      0.354013  
      47A      0.395833    48A      0.514043    49A      0.520326  
      50A      0.528490    51A      0.534613    52A      0.534880  
      53A      0.546948    54A      0.559326    55A      0.562420  
      56A      0.565804    57A      0.570168    58A      0.589294  
      59A      0.604008    60A      0.660676    61A      0.702544  
      62A      0.704742    63A      0.734319    64A      0.754093  
      65A      0.806758    66A      0.814660    67A      0.867384  
      68A      0.885796    69A      0.915990    70A      0.923727  
      71A      0.943383    72A      0.968156    73A      0.996069  
      74A      1.031242    75A      1.049300    76A      1.107066  
      77A      1.141298    78A      1.179059    79A      1.312175  
      80A      1.389305    81A      1.596187    82A      1.604893  
      83A      1.676300    84A      1.689435    85A      1.744453  
      86A      1.871428    87A      2.152157    88A      2.205122  
      89A      2.322478    90A      2.335982    91A      2.344722  
      92A      2.394533    93A      2.450328    94A      2.595590  
      95A      2.610236    96A      2.939391    97A      2.959696  
      98A      3.057571    99A      3.078574   100A      3.096916  
     101A      3.316887   102A      3.463459   103A      3.607248  
     104A      4.157026   105A      4.311587   106A      4.349516  
     107A      4.450634   108A      4.483831   109A      4.517227  
     110A      4.764030   111A      4.794350   112A      4.866725  
     113A      5.031217   114A      5.296813   115A      5.394256  
     116A      5.438999   117A      5.628065   118A      6.019369  
     119A      6.171346   120A      6.413189   121A      6.812649  
     122A      7.426346   123A      7.579498   124A      7.841979  
     125A      7.916133   126A      8.017395   127A      8.477517  
     128A      8.555434   129A      9.508056   130A      9.656704  
     131A      9.739735   132A      9.942457   133A     10.948355  
     134A     11.534434   135A     11.908444   136A     13.266717  
     137A     13.605416   138A     64.725491  

    Final Occupation by Irrep:
              A 
    DOCC [     1 ]
    NA   [     1 ]
    NB   [     1 ]

  @DF-RHF Final Energy:    -7.23638355603290

   => Energetics <=

    Nuclear Repulsion Energy =              0.0000000000000000
    One-Electron Energy =                  -8.8880315853794549
    Two-Electron Energy =                   1.6516480293465561
    Total Energy =                         -7.2363835560328988

Computation Completed


Properties will be evaluated at   0.000000,   0.000000,   0.000000 [a0]

Properties computed using the SCF density matrix


 Multipole Moments:

 ------------------------------------------------------------------------------------
     Multipole            Electronic (a.u.)      Nuclear  (a.u.)        Total (a.u.)
 ------------------------------------------------------------------------------------

 L = 1.  Multiply by 2.5417464519 to convert [e a0] to [Debye]
 Dipole X            :         -6.9121735           10.3682356            3.4560621
 Dipole Y            :         -0.0000047            0.0000000           -0.0000047
 Dipole Z            :          0.0000267            0.0000000            0.0000267
 Magnitude           :                                                    3.4560621

 ------------------------------------------------------------------------------------

*** tstop() called on moses-razer at Wed Jan  3 15:20:55 2024
Module time:
	user time   =       2.22 seconds =       0.04 minutes
	system time =       0.04 seconds =       0.00 minutes
	total time  =          0 seconds =       0.00 minutes
Total time:
	user time   =       8.30 seconds =       0.14 minutes
	system time =       0.19 seconds =       0.00 minutes
	total time  =          1 seconds =       0.02 minutes
  Constructing Basis Sets for SAPT...

   => Loading Basis Set <=

    Name: (AUG-CC-PVTZ AUX)
    Role: RIFIT
    Keyword: DF_BASIS_SAPT
    atoms 1   entry O          line   264 file /home/kchung25/anaconda3/envs/p415env/share/psi4/basis/aug-cc-pvtz-ri.gbs 
    atoms 2-3 entry H          line    30 file /home/kchung25/anaconda3/envs/p415env/share/psi4/basis/aug-cc-pvtz-ri.gbs 
    atoms 4   entry LI         line    90 file /home/kchung25/anaconda3/envs/p415env/share/psi4/basis/def2-qzvpp-ri.gbs 

   => Loading Basis Set <=

    Name: (AUG-CC-PVTZ AUX)
    Role: JKFIT
    Keyword: DF_BASIS_ELST
    atoms 1   entry O          line   286 file /home/kchung25/anaconda3/envs/p415env/share/psi4/basis/aug-cc-pvtz-jkfit.gbs 
    atoms 2-3 entry H          line    70 file /home/kchung25/anaconda3/envs/p415env/share/psi4/basis/aug-cc-pvtz-jkfit.gbs 
    atoms 4   entry LI         line    54 file /home/kchung25/anaconda3/envs/p415env/share/psi4/basis/def2-universal-jkfit.gbs 


  //>>>>>>>>>>>>>>>>>>>>>>>>>>>>>>>>>>>//
  //               SAPT2+              //
  //<<<<<<<<<<<<<<<<<<<<<<<<<<<<<<<<<<<//


*** tstart() called on moses-razer
*** at Wed Jan  3 15:20:56 2024

        SAPT2+  
    Ed Hohenstein
     6 June 2009

      Orbital Information
  --------------------------
    NSO        =       138
    NMO        =       138
    NRI        =       299
    NOCC A     =         5
    NOCC B     =         1
    FOCC A     =         0
    FOCC B     =         0
    NVIR A     =       133
    NVIR B     =       137

    Estimated memory usage: 56.2 MB

    Natural Orbital Cutoff:   1.000E-06
    Disp(T3) Truncation:            Yes
    CCD (vv|vv) Truncation:         Yes
    MBPT T2 Truncation:             Yes

    Monomer A: 50 virtual orbitals dropped
    Monomer B: 132 virtual orbitals dropped

    Elst10,r            =    -0.050719059375 [Eh]
    Exch10 (S^2)        =     0.024596943207 [Eh]
    Exch10              =     0.024754475994 [Eh]
    Ind20,r (A<-B)      =    -0.037431999964 [Eh]
    Ind20,r (B<-A)      =    -0.000054965363 [Eh]
    Ind20,r             =    -0.037486965327 [Eh]
    Exch-Ind20,r (A<-B) =     0.019033183080 [Eh]
    Exch-Ind20,r (B<-A) =    -0.000003355360 [Eh]
    Exch-Ind20,r        =     0.019029827720 [Eh]
    Disp20              =    -0.001008537659 [Eh]
    Disp20 (NO)         =    -0.000793775384 [Eh]
    Exch-Disp20         =     0.000126207708 [Eh]
    Elst12,r            =     0.002005966479 [Eh]
    Exch11              =    -0.000092916074 [Eh]
    Exch12              =     0.002128261429 [Eh]
    Ind22               =    -0.003545150253 [Eh]
    Disp21              =    -0.000057984532 [Eh]
    Disp22 (SDQ)        =    -0.000020858516 [Eh]

    (i =   1 of   1)          0 seconds

    Disp220 (T)         =    -0.000044119933 [Eh]

    (i =   1 of   5)          0 seconds
    (i =   2 of   5)          0 seconds
    (i =   3 of   5)          0 seconds
    (i =   4 of   5)          0 seconds
    (i =   5 of   5)          0 seconds

    Disp202 (T)         =    -0.000010044209 [Eh]

    Disp22 (T)          =    -0.000054164142 [Eh]

    Est. Disp220 (T)    =    -0.000056056933 [Eh]
    Est. Disp202 (T)    =    -0.000012761750 [Eh]

    Est. Disp22 (T)     =    -0.000068818684 [Eh]

    SAPT Results 
  --------------------------------------------------------------------------------------------------------
    Electrostatics                -48.71309290 [mEh]     -30.56792729 [kcal/mol]    -127.89620778 [kJ/mol]
      Elst10,r                    -50.71905937 [mEh]     -31.82669026 [kcal/mol]    -133.16287204 [kJ/mol]
      Elst12,r                      2.00596648 [mEh]       1.25876297 [kcal/mol]       5.26666426 [kJ/mol]

    Exchange                       26.78982135 [mEh]      16.81086670 [kcal/mol]      70.33666626 [kJ/mol]
      Exch10                       24.75447599 [mEh]      15.53366820 [kcal/mol]      64.99286777 [kJ/mol]
      Exch10(S^2)                  24.59694321 [mEh]      15.43481489 [kcal/mol]      64.57926549 [kJ/mol]
      Exch11(S^2)                  -0.09291607 [mEh]      -0.05830572 [kcal/mol]      -0.24395112 [kJ/mol]
      Exch12(S^2)                   2.12826143 [mEh]       1.33550421 [kcal/mol]       5.58774961 [kJ/mol]

    Induction                     -22.13917513 [mEh]     -13.89254214 [kcal/mol]     -58.12639629 [kJ/mol]
      Ind20,r                     -37.48696533 [mEh]     -23.52342589 [kcal/mol]     -98.42201391 [kJ/mol]
      Ind22                        -3.54515025 [mEh]      -2.22461537 [kcal/mol]      -9.30779071 [kJ/mol]
      Exch-Ind20,r                 19.02982772 [mEh]      11.94139718 [kcal/mol]      49.96280580 [kJ/mol]
      Exch-Ind22                    1.79965484 [mEh]       1.12930046 [kcal/mol]       4.72499313 [kJ/mol]
      delta HF,r (2)               -1.93654211 [mEh]      -1.21519852 [kcal/mol]      -5.08439060 [kJ/mol]

    Dispersion                     -1.02999168 [mEh]      -0.64632954 [kcal/mol]      -2.70424279 [kJ/mol]
      Disp20                       -1.00853766 [mEh]      -0.63286694 [kcal/mol]      -2.64791526 [kJ/mol]
      Disp21                       -0.05798453 [mEh]      -0.03638584 [kcal/mol]      -0.15223837 [kJ/mol]
      Disp22 (SDQ)                 -0.02085852 [mEh]      -0.01308892 [kcal/mol]      -0.05476403 [kJ/mol]
      Disp22 (T)                   -0.05416414 [mEh]      -0.03398851 [kcal/mol]      -0.14220794 [kJ/mol]
      Est. Disp22 (T)              -0.06881868 [mEh]      -0.04318438 [kcal/mol]      -0.18068343 [kJ/mol]
      Exch-Disp20                   0.12620771 [mEh]       0.07919653 [kcal/mol]       0.33135829 [kJ/mol]

  Total HF                        -46.35826310 [mEh]     -29.09024928 [kcal/mol]    -121.71360299 [kJ/mol]
  Total SAPT0                     -47.24059305 [mEh]     -29.64391968 [kcal/mol]    -124.03015996 [kJ/mol]
  Total SAPT2                     -44.94477663 [mEh]     -28.20327313 [kcal/mol]    -118.00249478 [kJ/mol]
  Total SAPT2+                    -45.09243836 [mEh]     -28.29593227 [kcal/mol]    -118.39018060 [kJ/mol]

  Special recipe for scaled SAPT0 (see Manual):
    Electrostatics sSAPT0         -50.71905937 [mEh]     -31.82669026 [kcal/mol]    -133.16287204 [kJ/mol]
    Exchange sSAPT0                24.75447599 [mEh]      15.53366820 [kcal/mol]      64.99286777 [kJ/mol]
    Induction sSAPT0              -20.02569954 [mEh]     -12.56631618 [kcal/mol]     -52.57746689 [kJ/mol]
    Dispersion sSAPT0              -0.87988947 [mEh]      -0.55213898 [kcal/mol]      -2.31014949 [kJ/mol]
  Total sSAPT0                    -46.87017239 [mEh]     -29.41147721 [kcal/mol]    -123.05762064 [kJ/mol]
  --------------------------------------------------------------------------------------------------------

*** tstop() called on moses-razer at Wed Jan  3 15:20:57 2024
Module time:
	user time   =       9.44 seconds =       0.16 minutes
	system time =       0.66 seconds =       0.01 minutes
	total time  =          1 seconds =       0.02 minutes
Total time:
	user time   =      18.12 seconds =       0.30 minutes
	system time =       0.85 seconds =       0.01 minutes
	total time  =          3 seconds =       0.05 minutes

    Psi4 stopped on: Wednesday, 03 January 2024 03:20PM
    Psi4 wall time for execution: 0:00:03.32

*** Psi4 exiting successfully. Buy a developer a beer!
