
    -----------------------------------------------------------------------
          Psi4: An Open-Source Ab Initio Electronic Structure Package
                               Psi4 1.9 release

                         Git: Rev {} zzzzzzz 


    D. G. A. Smith, L. A. Burns, A. C. Simmonett, R. M. Parrish,
    M. C. Schieber, R. Galvelis, P. Kraus, H. Kruse, R. Di Remigio,
    A. Alenaizan, A. M. James, S. Lehtola, J. P. Misiewicz, M. Scheurer,
    R. A. Shaw, J. B. Schriber, Y. Xie, Z. L. Glick, D. A. Sirianni,
    J. S. O'Brien, J. M. Waldrop, A. Kumar, E. G. Hohenstein,
    B. P. Pritchard, B. R. Brooks, H. F. Schaefer III, A. Yu. Sokolov,
    K. Patkowski, A. E. DePrince III, U. Bozkaya, R. A. King,
    F. A. Evangelista, J. M. Turney, T. D. Crawford, C. D. Sherrill,
    J. Chem. Phys. 152(18) 184108 (2020). https://doi.org/10.1063/5.0006002

                            Additional Code Authors
    E. T. Seidl, C. L. Janssen, E. F. Valeev, M. L. Leininger,
    J. F. Gonthier, R. M. Richard, H. R. McAlexander, M. Saitow, X. Wang,
    P. Verma, M. H. Lechner, A. Jiang, S. Behnle, A. G. Heide,
    M. F. Herbst, and D. L. Poole

             Previous Authors, Complete List of Code Contributors,
                       and Citations for Specific Modules
    https://github.com/psi4/psi4/blob/master/codemeta.json
    https://github.com/psi4/psi4/graphs/contributors
    http://psicode.org/psi4manual/master/introduction.html#citing-psifour

    -----------------------------------------------------------------------


    Psi4 started on: Wednesday, 03 January 2024 03:47PM

    Process ID: 411447
    Host:       moses-razer
    PSIDATADIR: /home/kchung25/anaconda3/envs/psi4_19/share/psi4
    Memory:     500.0 MiB
    Threads:    6
    
  ==> Input File <==

--------------------------------------------------------------------------
MEMORY 60 GB

molecule dimer {
0 1
O      0.000000     0.000000     0.000000
H     -0.476825     0.116533     0.825885
H      0.058266    -0.953649    -0.100920
--
1 1
K      2.466222     0.000000     0.000000

units ang
no_reorient
no_com
symmetry c1
}

set {
basis        aug-cc-pVTZ
scf_type     df
}

energy("sapt2+")
--------------------------------------------------------------------------

  Memory set to  55.879 GiB by Python driver.

Scratch directory: /scratch/
   => Loading Basis Set <=

    Name: AUG-CC-PVTZ
    Role: ORBITAL
    Keyword: BASIS
    atoms 1   entry O          line   331 file /home/kchung25/anaconda3/envs/p415env/share/psi4/basis/aug-cc-pvtz.gbs 
    atoms 2-3 entry H          line    40 file /home/kchung25/anaconda3/envs/p415env/share/psi4/basis/aug-cc-pvtz.gbs 
    atoms 4   entry K          line  1152 file /home/kchung25/anaconda3/envs/p415env/share/psi4/basis/aug-cc-pvtz.gbs 

   => Loading Basis Set <=

    Name: AUG-CC-PVTZ
    Role: ORBITAL
    Keyword: BASIS
    atoms 1   entry O          line   331 file /home/kchung25/anaconda3/envs/p415env/share/psi4/basis/aug-cc-pvtz.gbs 
    atoms 2-3 entry H          line    40 file /home/kchung25/anaconda3/envs/p415env/share/psi4/basis/aug-cc-pvtz.gbs 
    atoms 4   entry K          line  1152 file /home/kchung25/anaconda3/envs/p415env/share/psi4/basis/aug-cc-pvtz.gbs 


  //>>>>>>>>>>>>>>>>>>>>>>>>>>>>>>>>>>>//
  //              Dimer HF             //
  //<<<<<<<<<<<<<<<<<<<<<<<<<<<<<<<<<<<//

   => Libint2 <=

    Primary   basis highest AM E, G, H:  5, 4, 3
    Auxiliary basis highest AM E, G, H:  6, 5, 4
    Onebody   basis highest AM E, G, H:  6, 5, 4
    Solid Harmonics ordering:            gaussian

*** tstart() called on moses-razer
*** at Wed Jan  3 15:47:56 2024

   => Loading Basis Set <=

    Name: AUG-CC-PVTZ
    Role: ORBITAL
    Keyword: BASIS
    atoms 1   entry O          line   331 file /home/kchung25/anaconda3/envs/p415env/share/psi4/basis/aug-cc-pvtz.gbs 
    atoms 2-3 entry H          line    40 file /home/kchung25/anaconda3/envs/p415env/share/psi4/basis/aug-cc-pvtz.gbs 
    atoms 4   entry K          line  1152 file /home/kchung25/anaconda3/envs/p415env/share/psi4/basis/aug-cc-pvtz.gbs 


         ---------------------------------------------------------
                                   SCF
               by Justin Turney, Rob Parrish, Andy Simmonett
                          and Daniel G. A. Smith
                              RHF Reference
                        6 Threads,  57220 MiB Core
         ---------------------------------------------------------

  ==> Geometry <==

    Molecular point group: c1
    Full point group: C1

    Geometry (in Angstrom), charge = 1, multiplicity = 1:

       Center              X                  Y                   Z               Mass       
    ------------   -----------------  -----------------  -----------------  -----------------
         O            0.000000000000     0.000000000000     0.000000000000    15.994914619570
         H           -0.476825000000     0.116533000000     0.825885000000     1.007825032230
         H            0.058266000000    -0.953649000000    -0.100920000000     1.007825032230
         K            2.466222000000     0.000000000000     0.000000000000    38.963706486400

  Running in c1 symmetry.

  Rotational constants: A =     10.35992  B =      0.07089  C =      0.07075 [cm^-1]
  Rotational constants: A = 310582.44881  B =   2125.15767  C =   2121.12301 [MHz]
  Nuclear repulsion =   48.943115648757292

  Charge       = 1
  Multiplicity = 1
  Electrons    = 28
  Nalpha       = 14
  Nbeta        = 14

  ==> Algorithm <==

  SCF Algorithm Type is DF.
  DIIS enabled.
  MOM disabled.
  Fractional occupation disabled.
  Guess Type is SAD.
  Energy threshold   = 1.00e-08
  Density threshold  = 1.00e-08
  Integral threshold = 1.00e-12

  ==> Primary Basis <==

  Basis Set: AUG-CC-PVTZ
    Blend: AUG-CC-PVTZ
    Number of shells: 51
    Number of basis functions: 151
    Number of Cartesian functions: 174
    Spherical Harmonics?: true
    Max angular momentum: 3

   => Loading Basis Set <=

    Name: (AUG-CC-PVTZ AUX)
    Role: JKFIT
    Keyword: DF_BASIS_SCF
    atoms 1   entry O          line   286 file /home/kchung25/anaconda3/envs/p415env/share/psi4/basis/aug-cc-pvtz-jkfit.gbs 
    atoms 2-3 entry H          line    70 file /home/kchung25/anaconda3/envs/p415env/share/psi4/basis/aug-cc-pvtz-jkfit.gbs 
    atoms 4   entry K          line  1152 file /home/kchung25/anaconda3/envs/p415env/share/psi4/basis/def2-universal-jkfit.gbs 

  ==> Integral Setup <==

  ==> DiskDFJK: Density-Fitted J/K Matrices <==

    J tasked:                  Yes
    K tasked:                  Yes
    wK tasked:                  No
    OpenMP threads:              6
    Integrals threads:           6
    Memory [MiB]:            42915
    Algorithm:                Core
    Integral Cache:           SAVE
    Schwarz Cutoff:          1E-12
    Fitting Condition:       1E-10

   => Auxiliary Basis Set <=

  Basis Set: (AUG-CC-PVTZ AUX)
    Blend: AUG-CC-PVTZ-JKFIT + DEF2-UNIVERSAL-JKFIT
    Number of shells: 102
    Number of basis functions: 356
    Number of Cartesian functions: 444
    Spherical Harmonics?: true
    Max angular momentum: 4

  Minimum eigenvalue in the overlap matrix is 1.8030191207E-04.
  Reciprocal condition number of the overlap matrix is 2.0175090062E-05.
    Using symmetric orthogonalization.

  ==> Pre-Iterations <==

  SCF Guess: Superposition of Atomic Densities via on-the-fly atomic UHF (no occupation information).

   -------------------------
    Irrep   Nso     Nmo    
   -------------------------
     A        151     151 
   -------------------------
    Total     151     151
   -------------------------

  ==> Iterations <==

                           Total Energy        Delta E     RMS |[F,P]|

   @DF-RHF iter SAD:  -674.59439958774090   -6.74594e+02   0.00000e+00 
   @DF-RHF iter   1:  -675.00162596943892   -4.07226e-01   3.18662e-03 ADIIS/DIIS
   @DF-RHF iter   2:  -675.05755793504511   -5.59320e-02   2.10640e-03 ADIIS/DIIS
   @DF-RHF iter   3:  -675.08860760099287   -3.10497e-02   1.47787e-04 ADIIS/DIIS
   @DF-RHF iter   4:  -675.08900425999889   -3.96659e-04   3.39776e-05 DIIS
   @DF-RHF iter   5:  -675.08902775605156   -2.34961e-05   7.93796e-06 DIIS
   @DF-RHF iter   6:  -675.08902964908134   -1.89303e-06   1.63751e-06 DIIS
   @DF-RHF iter   7:  -675.08902973540535   -8.63240e-08   3.83508e-07 DIIS
   @DF-RHF iter   8:  -675.08902973941804   -4.01269e-09   9.10414e-08 DIIS
   @DF-RHF iter   9:  -675.08902973964405   -2.26009e-10   1.83549e-08 DIIS
   @DF-RHF iter  10:  -675.08902973965428   -1.02318e-11   5.26554e-09 DIIS
  Energy and wave function converged.


  ==> Post-Iterations <==

    Orbital Energies [Eh]
    ---------------------

    Doubly Occupied:                                                      

       1A   -133.712404     2A    -20.765104     3A    -14.669549  
       4A    -11.699514     5A    -11.699471     6A    -11.699347  
       7A     -1.929961     8A     -1.557222     9A     -1.139553  
      10A     -1.137852    11A     -1.136744    12A     -0.915744  
      13A     -0.791363    14A     -0.715905  

    Virtual:                                                              

      15A     -0.132909    16A     -0.093159    17A     -0.089860  
      18A     -0.083534    19A     -0.059372    20A     -0.057208  
      21A     -0.055944    22A     -0.053945    23A     -0.053016  
      24A     -0.050457    25A     -0.044583    26A     -0.043793  
      27A     -0.041338    28A     -0.030343    29A     -0.029888  
      30A     -0.028643    31A     -0.027557    32A     -0.025277  
      33A     -0.015513    34A     -0.014345    35A     -0.013474  
      36A     -0.011128    37A     -0.006713    38A     -0.000622  
      39A      0.014633    40A      0.016445    41A      0.018625  
      42A      0.020651    43A      0.021129    44A      0.023725  
      45A      0.026921    46A      0.028685    47A      0.030797  
      48A      0.045949    49A      0.065843    50A      0.078702  
      51A      0.093841    52A      0.099549    53A      0.110078  
      54A      0.113277    55A      0.120360    56A      0.133998  
      57A      0.153128    58A      0.164489    59A      0.178847  
      60A      0.199486    61A      0.226587    62A      0.236984  
      63A      0.239152    64A      0.245422    65A      0.246500  
      66A      0.248054    67A      0.254823    68A      0.258177  
      69A      0.262764    70A      0.268129    71A      0.275199  
      72A      0.282813    73A      0.333796    74A      0.348020  
      75A      0.354339    76A      0.365817    77A      0.372811  
      78A      0.495742    79A      0.553350    80A      0.614748  
      81A      0.632889    82A      0.653329    83A      0.708128  
      84A      0.762062    85A      0.790264    86A      0.797281  
      87A      0.819209    88A      0.855543    89A      0.877960  
      90A      0.911304    91A      0.929024    92A      0.948069  
      93A      0.978715    94A      1.028884    95A      1.034887  
      96A      1.051265    97A      1.095462    98A      1.176550  
      99A      1.383505   100A      1.413115   101A      1.452818  
     102A      1.658942   103A      1.698465   104A      1.826113  
     105A      1.942007   106A      2.103375   107A      2.145451  
     108A      2.190289   109A      2.235313   110A      2.291642  
     111A      2.293673   112A      2.352326   113A      2.505215  
     114A      2.564066   115A      2.616576   116A      2.637733  
     117A      2.722291   118A      3.522459   119A      3.607511  
     120A      3.842828   121A      3.981485   122A      3.997277  
     123A      4.067015   124A      4.115200   125A      4.212070  
     126A      4.243287   127A      4.252940   128A      4.338192  
     129A      4.585392   130A      4.675234   131A      4.959406  
     132A      4.979144   133A      5.073538   134A      5.144013  
     135A      5.329027   136A      5.509294   137A      6.025492  
     138A      6.340630   139A      6.522711   140A      6.716836  
     141A      6.958084   142A      7.104758   143A      7.111244  
     144A      7.128981   145A      7.173370   146A      7.185301  
     147A      7.354366   148A      7.705025   149A      7.742193  
     150A      8.638455   151A     15.658377  

    Final Occupation by Irrep:
              A 
    DOCC [    14 ]
    NA   [    14 ]
    NB   [    14 ]

  @DF-RHF Final Energy:  -675.08902973965428

   => Energetics <=

    Nuclear Repulsion Energy =             48.9431156487572920
    One-Electron Energy =               -1020.9248232563145393
    Two-Electron Energy =                 296.8926778679029326
    Total Energy =                       -675.0890297396542792

Computation Completed


Properties will be evaluated at   0.000000,   0.000000,   0.000000 [a0]

Properties computed using the SCF density matrix


 Multipole Moments:

 ------------------------------------------------------------------------------------
     Multipole            Electronic (a.u.)      Nuclear  (a.u.)        Total (a.u.)
 ------------------------------------------------------------------------------------

 L = 1.  Multiply by 2.5417464519 to convert [e a0] to [Debye]
 Dipole X            :        -83.7214685           87.7582369            4.0367683
 Dipole Y            :          1.0397811           -1.5819200           -0.5421388
 Dipole Z            :         -0.8602988            1.3699853            0.5096865
 Magnitude           :                                                    4.1047769

 ------------------------------------------------------------------------------------

*** tstop() called on moses-razer at Wed Jan  3 15:48:02 2024
Module time:
	user time   =      10.84 seconds =       0.18 minutes
	system time =       2.26 seconds =       0.04 minutes
	total time  =          6 seconds =       0.10 minutes
Total time:
	user time   =      10.84 seconds =       0.18 minutes
	system time =       2.26 seconds =       0.04 minutes
	total time  =          6 seconds =       0.10 minutes

  //>>>>>>>>>>>>>>>>>>>>>>>>>>>>>>>>>>>//
  //            Monomer A HF           //
  //<<<<<<<<<<<<<<<<<<<<<<<<<<<<<<<<<<<//

   => Libint2 <=

    Primary   basis highest AM E, G, H:  5, 4, 3
    Auxiliary basis highest AM E, G, H:  6, 5, 4
    Onebody   basis highest AM E, G, H:  6, 5, 4
    Solid Harmonics ordering:            gaussian

*** tstart() called on moses-razer
*** at Wed Jan  3 15:48:02 2024

   => Loading Basis Set <=

    Name: AUG-CC-PVTZ
    Role: ORBITAL
    Keyword: BASIS
    atoms 1   entry O          line   331 file /home/kchung25/anaconda3/envs/p415env/share/psi4/basis/aug-cc-pvtz.gbs 
    atoms 2-3 entry H          line    40 file /home/kchung25/anaconda3/envs/p415env/share/psi4/basis/aug-cc-pvtz.gbs 
    atoms 4   entry K          line  1152 file /home/kchung25/anaconda3/envs/p415env/share/psi4/basis/aug-cc-pvtz.gbs 


         ---------------------------------------------------------
                                   SCF
               by Justin Turney, Rob Parrish, Andy Simmonett
                          and Daniel G. A. Smith
                              RHF Reference
                        6 Threads,  57220 MiB Core
         ---------------------------------------------------------

  ==> Geometry <==

    Molecular point group: c1
    Full point group: C1

    Geometry (in Angstrom), charge = 0, multiplicity = 1:

       Center              X                  Y                   Z               Mass       
    ------------   -----------------  -----------------  -----------------  -----------------
         O            0.000000000000     0.000000000000     0.000000000000    15.994914619570
         H           -0.476825000000     0.116533000000     0.825885000000     1.007825032230
         H            0.058266000000    -0.953649000000    -0.100920000000     1.007825032230
      Gh(K)           2.466222000000     0.000000000000     0.000000000000    38.963706486400

  Running in c1 symmetry.

  Rotational constants: A =     10.35992  B =      0.07089  C =      0.07075 [cm^-1]
  Rotational constants: A = 310582.44881  B =   2125.15767  C =   2121.12301 [MHz]
  Nuclear repulsion =    9.162445308924433

  Charge       = 0
  Multiplicity = 1
  Electrons    = 10
  Nalpha       = 5
  Nbeta        = 5

  ==> Algorithm <==

  SCF Algorithm Type is DF.
  DIIS enabled.
  MOM disabled.
  Fractional occupation disabled.
  Guess Type is SAD.
  Energy threshold   = 1.00e-08
  Density threshold  = 1.00e-08
  Integral threshold = 1.00e-12

  ==> Primary Basis <==

  Basis Set: AUG-CC-PVTZ
    Blend: AUG-CC-PVTZ
    Number of shells: 51
    Number of basis functions: 151
    Number of Cartesian functions: 174
    Spherical Harmonics?: true
    Max angular momentum: 3

   => Loading Basis Set <=

    Name: (AUG-CC-PVTZ AUX)
    Role: JKFIT
    Keyword: DF_BASIS_SCF
    atoms 1   entry O          line   286 file /home/kchung25/anaconda3/envs/p415env/share/psi4/basis/aug-cc-pvtz-jkfit.gbs 
    atoms 2-3 entry H          line    70 file /home/kchung25/anaconda3/envs/p415env/share/psi4/basis/aug-cc-pvtz-jkfit.gbs 
    atoms 4   entry K          line  1152 file /home/kchung25/anaconda3/envs/p415env/share/psi4/basis/def2-universal-jkfit.gbs 

  ==> Integral Setup <==

  ==> DiskDFJK: Density-Fitted J/K Matrices <==

    J tasked:                  Yes
    K tasked:                  Yes
    wK tasked:                  No
    OpenMP threads:              6
    Integrals threads:           6
    Memory [MiB]:            42915
    Algorithm:                Core
    Integral Cache:           LOAD
    Schwarz Cutoff:          1E-12
    Fitting Condition:       1E-10

   => Auxiliary Basis Set <=

  Basis Set: (AUG-CC-PVTZ AUX)
    Blend: AUG-CC-PVTZ-JKFIT + DEF2-UNIVERSAL-JKFIT
    Number of shells: 102
    Number of basis functions: 356
    Number of Cartesian functions: 444
    Spherical Harmonics?: true
    Max angular momentum: 4

  Minimum eigenvalue in the overlap matrix is 1.8030191207E-04.
  Reciprocal condition number of the overlap matrix is 2.0175090062E-05.
    Using symmetric orthogonalization.

  ==> Pre-Iterations <==

  SCF Guess: Superposition of Atomic Densities via on-the-fly atomic UHF (no occupation information).

   -------------------------
    Irrep   Nso     Nmo    
   -------------------------
     A        151     151 
   -------------------------
    Total     151     151
   -------------------------

  ==> Iterations <==

                           Total Energy        Delta E     RMS |[F,P]|

   @DF-RHF iter SAD:   -75.47462077661426   -7.54746e+01   0.00000e+00 
   @DF-RHF iter   1:   -75.97588909514303   -5.01268e-01   3.10197e-03 ADIIS/DIIS
   @DF-RHF iter   2:   -76.02836195959402   -5.24729e-02   2.11842e-03 ADIIS/DIIS
   @DF-RHF iter   3:   -76.05992700507871   -3.15650e-02   1.44979e-04 ADIIS/DIIS
   @DF-RHF iter   4:   -76.06032063977382   -3.93635e-04   3.44234e-05 DIIS
   @DF-RHF iter   5:   -76.06034515736805   -2.45176e-05   7.86229e-06 DIIS
   @DF-RHF iter   6:   -76.06034717535302   -2.01798e-06   1.71961e-06 DIIS
   @DF-RHF iter   7:   -76.06034728145302   -1.06100e-07   3.08688e-07 DIIS
   @DF-RHF iter   8:   -76.06034728444489   -2.99187e-09   5.13852e-08 DIIS
   @DF-RHF iter   9:   -76.06034728451012   -6.52278e-11   1.26983e-08 DIIS
   @DF-RHF iter  10:   -76.06034728451419   -4.07852e-12   1.86582e-09 DIIS
  Energy and wave function converged.


  ==> Post-Iterations <==

    Orbital Energies [Eh]
    ---------------------

    Doubly Occupied:                                                      

       1A    -20.568027     2A     -1.352188     3A     -0.714775  
       4A     -0.585386     5A     -0.510237  

    Virtual:                                                              

       6A      0.006740     7A      0.009598     8A      0.009900  
       9A      0.011412    10A      0.018497    11A      0.018542  
      12A      0.019155    13A      0.019532    14A      0.019688  
      15A      0.032625    16A      0.035808    17A      0.037223  
      18A      0.041762    19A      0.061113    20A      0.061958  
      21A      0.065134    22A      0.066681    23A      0.067608  
      24A      0.079844    25A      0.085537    26A      0.102530  
      27A      0.106810    28A      0.110713    29A      0.119710  
      30A      0.140124    31A      0.141441    32A      0.142019  
      33A      0.145639    34A      0.145843    35A      0.164670  
      36A      0.167299    37A      0.203100    38A      0.205543  
      39A      0.214186    40A      0.228378    41A      0.230249  
      42A      0.256413    43A      0.260399    44A      0.266071  
      45A      0.269722    46A      0.276687    47A      0.291319  
      48A      0.302917    49A      0.307843    50A      0.325124  
      51A      0.396887    52A      0.402284    53A      0.423746  
      54A      0.431286    55A      0.461211    56A      0.463857  
      57A      0.466539    58A      0.469512    59A      0.476294  
      60A      0.493034    61A      0.512313    62A      0.522924  
      63A      0.537312    64A      0.637663    65A      0.659914  
      66A      0.720825    67A      0.768879    68A      0.779281  
      69A      0.802977    70A      0.883301    71A      0.918069  
      72A      0.955915    73A      0.966440    74A      0.993978  
      75A      1.026023    76A      1.048956    77A      1.066999  
      78A      1.084736    79A      1.095452    80A      1.127323  
      81A      1.160972    82A      1.199633    83A      1.212782  
      84A      1.292290    85A      1.521811    86A      1.570891  
      87A      1.585391    88A      1.781366    89A      1.832135  
      90A      1.871033    91A      1.888476    92A      1.939093  
      93A      1.962103    94A      1.982440    95A      2.004444  
      96A      2.138353    97A      2.193990    98A      2.245837  
      99A      2.296465   100A      2.351633   101A      2.407912  
     102A      2.442149   103A      2.464881   104A      2.529965  
     105A      2.567678   106A      2.700166   107A      2.725997  
     108A      2.773134   109A      2.785855   110A      2.852401  
     111A      2.918397   112A      2.975843   113A      3.742855  
     114A      3.813416   115A      4.041481   116A      4.201071  
     117A      4.207596   118A      4.262434   119A      4.329311  
     120A      4.407761   121A      4.450540   122A      4.468290  
     123A      4.541846   124A      4.783368   125A      4.874370  
     126A      5.161446   127A      5.177248   128A      5.275915  
     129A      5.343617   130A      5.534545   131A      5.714715  
     132A      6.230931   133A      6.548624   134A      6.729520  
     135A      6.921583   136A      7.166286   137A      7.308772  
     138A      7.317224   139A      7.334765   140A      7.378605  
     141A      7.387772   142A      7.555732   143A      7.908163  
     144A      7.947143   145A      8.839098   146A     10.201346  
     147A     15.858668   148A     30.263205   149A     30.297545  
     150A     30.812137   151A    197.691901  

    Final Occupation by Irrep:
              A 
    DOCC [     5 ]
    NA   [     5 ]
    NB   [     5 ]

  @DF-RHF Final Energy:   -76.06034728451419

   => Energetics <=

    Nuclear Repulsion Energy =              9.1624453089244327
    One-Electron Energy =                -122.9843592612669454
    Two-Electron Energy =                  37.7615666678283119
    Total Energy =                        -76.0603472845141937

Computation Completed


Properties will be evaluated at   0.000000,   0.000000,   0.000000 [a0]

Properties computed using the SCF density matrix


 Multipole Moments:

 ------------------------------------------------------------------------------------
     Multipole            Electronic (a.u.)      Nuclear  (a.u.)        Total (a.u.)
 ------------------------------------------------------------------------------------

 L = 1.  Multiply by 2.5417464519 to convert [e a0] to [Debye]
 Dipole X            :          0.5130876           -0.7909619           -0.2778743
 Dipole Y            :          1.0269794           -1.5819200           -0.5549406
 Dipole Z            :         -0.8893656            1.3699853            0.4806197
 Magnitude           :                                                    0.7849640

 ------------------------------------------------------------------------------------

*** tstop() called on moses-razer at Wed Jan  3 15:48:06 2024
Module time:
	user time   =       5.66 seconds =       0.09 minutes
	system time =       0.87 seconds =       0.01 minutes
	total time  =          4 seconds =       0.07 minutes
Total time:
	user time   =      16.52 seconds =       0.28 minutes
	system time =       3.13 seconds =       0.05 minutes
	total time  =         10 seconds =       0.17 minutes

  //>>>>>>>>>>>>>>>>>>>>>>>>>>>>>>>>>>>//
  //            Monomer B HF           //
  //<<<<<<<<<<<<<<<<<<<<<<<<<<<<<<<<<<<//

   => Libint2 <=

    Primary   basis highest AM E, G, H:  5, 4, 3
    Auxiliary basis highest AM E, G, H:  6, 5, 4
    Onebody   basis highest AM E, G, H:  6, 5, 4
    Solid Harmonics ordering:            gaussian

*** tstart() called on moses-razer
*** at Wed Jan  3 15:48:06 2024

   => Loading Basis Set <=

    Name: AUG-CC-PVTZ
    Role: ORBITAL
    Keyword: BASIS
    atoms 1   entry O          line   331 file /home/kchung25/anaconda3/envs/p415env/share/psi4/basis/aug-cc-pvtz.gbs 
    atoms 2-3 entry H          line    40 file /home/kchung25/anaconda3/envs/p415env/share/psi4/basis/aug-cc-pvtz.gbs 
    atoms 4   entry K          line  1152 file /home/kchung25/anaconda3/envs/p415env/share/psi4/basis/aug-cc-pvtz.gbs 


         ---------------------------------------------------------
                                   SCF
               by Justin Turney, Rob Parrish, Andy Simmonett
                          and Daniel G. A. Smith
                              RHF Reference
                        6 Threads,  57220 MiB Core
         ---------------------------------------------------------

  ==> Geometry <==

    Molecular point group: c1
    Full point group: C1

    Geometry (in Angstrom), charge = 1, multiplicity = 1:

       Center              X                  Y                   Z               Mass       
    ------------   -----------------  -----------------  -----------------  -----------------
      Gh(O)           0.000000000000     0.000000000000     0.000000000000    15.994914619570
      Gh(H)          -0.476825000000     0.116533000000     0.825885000000     1.007825032230
      Gh(H)           0.058266000000    -0.953649000000    -0.100920000000     1.007825032230
         K            2.466222000000     0.000000000000     0.000000000000    38.963706486400

  Running in c1 symmetry.

  Rotational constants: A =     10.35992  B =      0.07089  C =      0.07075 [cm^-1]
  Rotational constants: A = 310582.44881  B =   2125.15767  C =   2121.12301 [MHz]
  Nuclear repulsion =    0.000000000000000

  Charge       = 1
  Multiplicity = 1
  Electrons    = 18
  Nalpha       = 9
  Nbeta        = 9

  ==> Algorithm <==

  SCF Algorithm Type is DF.
  DIIS enabled.
  MOM disabled.
  Fractional occupation disabled.
  Guess Type is SAD.
  Energy threshold   = 1.00e-08
  Density threshold  = 1.00e-08
  Integral threshold = 1.00e-12

  ==> Primary Basis <==

  Basis Set: AUG-CC-PVTZ
    Blend: AUG-CC-PVTZ
    Number of shells: 51
    Number of basis functions: 151
    Number of Cartesian functions: 174
    Spherical Harmonics?: true
    Max angular momentum: 3

   => Loading Basis Set <=

    Name: (AUG-CC-PVTZ AUX)
    Role: JKFIT
    Keyword: DF_BASIS_SCF
    atoms 1   entry O          line   286 file /home/kchung25/anaconda3/envs/p415env/share/psi4/basis/aug-cc-pvtz-jkfit.gbs 
    atoms 2-3 entry H          line    70 file /home/kchung25/anaconda3/envs/p415env/share/psi4/basis/aug-cc-pvtz-jkfit.gbs 
    atoms 4   entry K          line  1152 file /home/kchung25/anaconda3/envs/p415env/share/psi4/basis/def2-universal-jkfit.gbs 

  ==> Integral Setup <==

  ==> DiskDFJK: Density-Fitted J/K Matrices <==

    J tasked:                  Yes
    K tasked:                  Yes
    wK tasked:                  No
    OpenMP threads:              6
    Integrals threads:           6
    Memory [MiB]:            42915
    Algorithm:                Core
    Integral Cache:           LOAD
    Schwarz Cutoff:          1E-12
    Fitting Condition:       1E-10

   => Auxiliary Basis Set <=

  Basis Set: (AUG-CC-PVTZ AUX)
    Blend: AUG-CC-PVTZ-JKFIT + DEF2-UNIVERSAL-JKFIT
    Number of shells: 102
    Number of basis functions: 356
    Number of Cartesian functions: 444
    Spherical Harmonics?: true
    Max angular momentum: 4

  Minimum eigenvalue in the overlap matrix is 1.8030191207E-04.
  Reciprocal condition number of the overlap matrix is 2.0175090062E-05.
    Using symmetric orthogonalization.

  ==> Pre-Iterations <==

  SCF Guess: Superposition of Atomic Densities via on-the-fly atomic UHF (no occupation information).

   -------------------------
    Irrep   Nso     Nmo    
   -------------------------
     A        151     151 
   -------------------------
    Total     151     151
   -------------------------

  ==> Iterations <==

                           Total Energy        Delta E     RMS |[F,P]|

   @DF-RHF iter SAD:  -599.05184780186789   -5.99052e+02   0.00000e+00 
   @DF-RHF iter   1:  -599.01748301827308    3.43648e-02   4.46932e-05 DIIS
   @DF-RHF iter   2:  -599.01750825090062   -2.52326e-05   6.38250e-06 DIIS
   @DF-RHF iter   3:  -599.01750893205838   -6.81158e-07   4.36149e-07 DIIS
   @DF-RHF iter   4:  -599.01750893501514   -2.95677e-09   3.66959e-08 DIIS
   @DF-RHF iter   5:  -599.01750893504277   -2.76259e-11   7.24513e-09 DIIS
  Energy and wave function converged.


  ==> Post-Iterations <==

    Orbital Energies [Eh]
    ---------------------

    Doubly Occupied:                                                      

       1A   -133.753663     2A    -14.709124     3A    -11.739197  
       4A    -11.739190     5A    -11.739190     6A     -1.964309  
       7A     -1.170968     8A     -1.170899     9A     -1.170894  

    Virtual:                                                              

      10A     -0.146971    11A     -0.095562    12A     -0.095552  
      13A     -0.095552    14A     -0.060607    15A     -0.057880  
      16A     -0.057830    17A     -0.057793    18A     -0.057724  
      19A     -0.057721    20A     -0.045541    21A     -0.045535  
      22A     -0.045535    23A     -0.031275    24A     -0.031246  
      25A     -0.031232    26A     -0.031208    27A     -0.031207  
      28A     -0.018047    29A     -0.016761    30A     -0.016267  
      31A     -0.014900    32A     -0.006628    33A     -0.000202  
      34A      0.013464    35A      0.014307    36A      0.014776  
      37A      0.016268    38A      0.016456    39A      0.016884  
      40A      0.016894    41A      0.017247    42A      0.019633  
      43A      0.019718    44A      0.055681    45A      0.059330  
      46A      0.088557    47A      0.094672    48A      0.098041  
      49A      0.100209    50A      0.114549    51A      0.125004  
      52A      0.145681    53A      0.170447    54A      0.186666  
      55A      0.194320    56A      0.214618    57A      0.220272  
      58A      0.223741    59A      0.225719    60A      0.236487  
      61A      0.238246    62A      0.240161    63A      0.244651  
      64A      0.249498    65A      0.258859    66A      0.271216  
      67A      0.289312    68A      0.290216    69A      0.320157  
      70A      0.336130    71A      0.345620    72A      0.395523  
      73A      0.528617    74A      0.617567    75A      0.640155  
      76A      0.659001    77A      0.683537    78A      0.707705  
      79A      0.716474    80A      0.740222    81A      0.759968  
      82A      0.800680    83A      0.847699    84A      0.893060  
      85A      0.902191    86A      0.935901    87A      0.989606  
      88A      1.008312    89A      1.011639    90A      1.077787  
      91A      1.080479    92A      1.117174    93A      1.286957  
      94A      1.349081    95A      1.553024    96A      1.595420  
      97A      1.614003    98A      1.662555    99A      1.691759  
     100A      1.898254   101A      2.173075   102A      2.223766  
     103A      2.330733   104A      2.348353   105A      2.367751  
     106A      2.391282   107A      2.420186   108A      2.518104  
     109A      2.666951   110A      2.978471   111A      2.993848  
     112A      3.040019   113A      3.130468   114A      3.146509  
     115A      3.351813   116A      3.487493   117A      4.179668  
     118A      4.285805   119A      4.312424   120A      4.424069  
     121A      4.476355   122A      4.521629   123A      4.706127  
     124A      4.744492   125A      4.759846   126A      5.028621  
     127A      5.358038   128A      5.419915   129A      5.457392  
     130A      5.650149   131A      5.943503   132A      6.197683  
     133A      6.429026   134A      6.866193   135A      7.463548  
     136A      7.618051   137A      7.857576   138A      7.952330  
     139A      8.083722   140A      8.526988   141A      8.623283  
     142A      9.482799   143A      9.677147   144A      9.792053  
     145A     10.015003   146A     11.030105   147A     11.440586  
     148A     11.916354   149A     13.327369   150A     13.610507  
     151A     64.519424  

    Final Occupation by Irrep:
              A 
    DOCC [     9 ]
    NA   [     9 ]
    NB   [     9 ]

  @DF-RHF Final Energy:  -599.01750893504277

   => Energetics <=

    Nuclear Repulsion Energy =              0.0000000000000000
    One-Electron Energy =                -819.7201512691613061
    Two-Electron Energy =                 220.7026423341185364
    Total Energy =                       -599.0175089350427697

Computation Completed


Properties will be evaluated at   0.000000,   0.000000,   0.000000 [a0]

Properties computed using the SCF density matrix


 Multipole Moments:

 ------------------------------------------------------------------------------------
     Multipole            Electronic (a.u.)      Nuclear  (a.u.)        Total (a.u.)
 ------------------------------------------------------------------------------------

 L = 1.  Multiply by 2.5417464519 to convert [e a0] to [Debye]
 Dipole X            :        -83.8891622           88.5491987            4.6600365
 Dipole Y            :         -0.0000540            0.0000000           -0.0000540
 Dipole Z            :          0.0000846            0.0000000            0.0000846
 Magnitude           :                                                    4.6600365

 ------------------------------------------------------------------------------------

*** tstop() called on moses-razer at Wed Jan  3 15:48:11 2024
Module time:
	user time   =       8.92 seconds =       0.15 minutes
	system time =       2.03 seconds =       0.03 minutes
	total time  =          5 seconds =       0.08 minutes
Total time:
	user time   =      25.47 seconds =       0.42 minutes
	system time =       5.16 seconds =       0.09 minutes
	total time  =         15 seconds =       0.25 minutes
  Constructing Basis Sets for SAPT...

   => Loading Basis Set <=

    Name: (AUG-CC-PVTZ AUX)
    Role: RIFIT
    Keyword: DF_BASIS_SAPT
    atoms 1   entry O          line   264 file /home/kchung25/anaconda3/envs/p415env/share/psi4/basis/aug-cc-pvtz-ri.gbs 
    atoms 2-3 entry H          line    30 file /home/kchung25/anaconda3/envs/p415env/share/psi4/basis/aug-cc-pvtz-ri.gbs 
    atoms 4   entry K          line  1282 file /home/kchung25/anaconda3/envs/p415env/share/psi4/basis/def2-qzvpp-ri.gbs 

   => Loading Basis Set <=

    Name: (AUG-CC-PVTZ AUX)
    Role: JKFIT
    Keyword: DF_BASIS_ELST
    atoms 1   entry O          line   286 file /home/kchung25/anaconda3/envs/p415env/share/psi4/basis/aug-cc-pvtz-jkfit.gbs 
    atoms 2-3 entry H          line    70 file /home/kchung25/anaconda3/envs/p415env/share/psi4/basis/aug-cc-pvtz-jkfit.gbs 
    atoms 4   entry K          line  1152 file /home/kchung25/anaconda3/envs/p415env/share/psi4/basis/def2-universal-jkfit.gbs 


  //>>>>>>>>>>>>>>>>>>>>>>>>>>>>>>>>>>>//
  //               SAPT2+              //
  //<<<<<<<<<<<<<<<<<<<<<<<<<<<<<<<<<<<//


*** tstart() called on moses-razer
*** at Wed Jan  3 15:48:11 2024

        SAPT2+  
    Ed Hohenstein
     6 June 2009

      Orbital Information
  --------------------------
    NSO        =       151
    NMO        =       151
    NRI        =       397
    NOCC A     =         5
    NOCC B     =         9
    FOCC A     =         0
    FOCC B     =         0
    NVIR A     =       146
    NVIR B     =       142

    Estimated memory usage: 109.1 MB

    Natural Orbital Cutoff:   1.000E-06
    Disp(T3) Truncation:            Yes
    CCD (vv|vv) Truncation:         Yes
    MBPT T2 Truncation:             Yes

    Monomer A: 68 virtual orbitals dropped
    Monomer B: 114 virtual orbitals dropped

    Elst10,r            =    -0.029015372809 [Eh]
    Exch10 (S^2)        =     0.025787979536 [Eh]
    Exch10              =     0.026094218086 [Eh]
    Ind20,r (A<-B)      =    -0.032081577490 [Eh]
    Ind20,r (B<-A)      =    -0.001087270880 [Eh]
    Ind20,r             =    -0.033168848370 [Eh]
    Exch-Ind20,r (A<-B) =     0.024621211427 [Eh]
    Exch-Ind20,r (B<-A) =     0.000724172588 [Eh]
    Exch-Ind20,r        =     0.025345384015 [Eh]
    Disp20              =    -0.004676749077 [Eh]
    Disp20 (NO)         =    -0.004135707371 [Eh]
    Exch-Disp20         =     0.000868306939 [Eh]
    Elst12,r            =    -0.000841113112 [Eh]
    Exch11              =     0.000026739354 [Eh]
    Exch12              =     0.002813934672 [Eh]
    Ind22               =    -0.006236983641 [Eh]
    Disp21              =     0.000491626980 [Eh]
    Disp22 (SDQ)        =    -0.000039522841 [Eh]

    (i =   1 of   9)          0 seconds
    (i =   2 of   9)          0 seconds
    (i =   3 of   9)          0 seconds
    (i =   4 of   9)          0 seconds
    (i =   5 of   9)          0 seconds
    (i =   6 of   9)          0 seconds
    (i =   7 of   9)          1 seconds
    (i =   8 of   9)          1 seconds
    (i =   9 of   9)          1 seconds

    Disp220 (T)         =    -0.000322925136 [Eh]

    (i =   1 of   5)          0 seconds
    (i =   2 of   5)          0 seconds
    (i =   3 of   5)          0 seconds
    (i =   4 of   5)          0 seconds
    (i =   5 of   5)          0 seconds

    Disp202 (T)         =    -0.000111751219 [Eh]

    Disp22 (T)          =    -0.000434676355 [Eh]

    Est. Disp220 (T)    =    -0.000365170863 [Eh]
    Est. Disp202 (T)    =    -0.000126370743 [Eh]

    Est. Disp22 (T)     =    -0.000491541606 [Eh]

    SAPT Results 
  --------------------------------------------------------------------------------------------------------
    Electrostatics                -29.85648592 [mEh]     -18.73522777 [kcal/mol]     -78.38819299 [kJ/mol]
      Elst10,r                    -29.01537281 [mEh]     -18.20742132 [kcal/mol]     -76.17985082 [kJ/mol]
      Elst12,r                     -0.84111311 [mEh]      -0.52780645 [kcal/mol]      -2.20834217 [kJ/mol]

    Exchange                       28.93489211 [mEh]      18.15691892 [kcal/mol]      75.96854877 [kJ/mol]
      Exch10                       26.09421809 [mEh]      16.37436906 [kcal/mol]      68.51036015 [kJ/mol]
      Exch10(S^2)                  25.78797954 [mEh]      16.18220147 [kcal/mol]      67.70633094 [kJ/mol]
      Exch11(S^2)                   0.02673935 [mEh]       0.01677920 [kcal/mol]       0.07020416 [kJ/mol]
      Exch12(S^2)                   2.81393467 [mEh]       1.76577067 [kcal/mol]       7.38798446 [kJ/mol]

    Induction                      -9.72346918 [mEh]      -6.10156903 [kcal/mol]     -25.52896482 [kJ/mol]
      Ind20,r                     -33.16884837 [mEh]     -20.81376659 [kcal/mol]     -87.08479940 [kJ/mol]
      Ind22                        -6.23698364 [mEh]      -3.91376632 [kcal/mol]     -16.37519829 [kJ/mol]
      Exch-Ind20,r                 25.34538401 [mEh]      15.90446859 [kcal/mol]      66.54429656 [kJ/mol]
      Exch-Ind22                    4.76587983 [mEh]       2.99063475 [kcal/mol]      12.51281577 [kJ/mol]
      delta HF,r (2)               -0.42890102 [mEh]      -0.26913945 [kcal/mol]      -1.12607947 [kJ/mol]

    Dispersion                     -3.84787960 [mEh]      -2.41458091 [kcal/mol]     -10.10260651 [kJ/mol]
      Disp20                       -4.67674908 [mEh]      -2.93470435 [kcal/mol]     -12.27880301 [kJ/mol]
      Disp21                        0.49162698 [mEh]       0.30850059 [kcal/mol]       1.29076646 [kJ/mol]
      Disp22 (SDQ)                 -0.03952284 [mEh]      -0.02480096 [kcal/mol]      -0.10376720 [kJ/mol]
      Disp22 (T)                   -0.43467636 [mEh]      -0.27276353 [kcal/mol]      -1.14124261 [kJ/mol]
      Est. Disp22 (T)              -0.49154161 [mEh]      -0.30844701 [kcal/mol]      -1.29054231 [kJ/mol]
      Exch-Disp20                   0.86830694 [mEh]       0.54487083 [kcal/mol]       2.27973955 [kJ/mol]

  Total HF                        -11.17352010 [mEh]      -7.01148972 [kcal/mol]     -29.33607297 [kJ/mol]
  Total SAPT0                     -14.98196224 [mEh]      -9.40132324 [kcal/mol]     -39.33513643 [kJ/mol]
  Total SAPT2                     -14.45350513 [mEh]      -9.06971140 [kcal/mol]     -37.94767249 [kJ/mol]
  Total SAPT2+                    -14.49294260 [mEh]      -9.09445878 [kcal/mol]     -38.05121555 [kJ/mol]

  Special recipe for scaled SAPT0 (see Manual):
    Electrostatics sSAPT0         -29.01537281 [mEh]     -18.20742132 [kcal/mol]     -76.17985082 [kJ/mol]
    Exchange sSAPT0                26.09421809 [mEh]      16.37436906 [kcal/mol]      68.51036015 [kJ/mol]
    Induction sSAPT0               -7.33865234 [mEh]      -4.60507387 [kcal/mol]     -19.26762907 [kJ/mol]
    Dispersion sSAPT0              -3.77713926 [mEh]      -2.37019067 [kcal/mol]      -9.91687777 [kJ/mol]
  Total sSAPT0                    -14.03694633 [mEh]      -8.80831681 [kcal/mol]     -36.85399751 [kJ/mol]
  --------------------------------------------------------------------------------------------------------

*** tstop() called on moses-razer at Wed Jan  3 15:48:25 2024
Module time:
	user time   =      36.88 seconds =       0.61 minutes
	system time =       2.63 seconds =       0.04 minutes
	total time  =         14 seconds =       0.23 minutes
Total time:
	user time   =      62.71 seconds =       1.05 minutes
	system time =       7.79 seconds =       0.13 minutes
	total time  =         29 seconds =       0.48 minutes

    Psi4 stopped on: Wednesday, 03 January 2024 03:48PM
    Psi4 wall time for execution: 0:00:28.75

*** Psi4 exiting successfully. Buy a developer a beer!
