
    -----------------------------------------------------------------------
          Psi4: An Open-Source Ab Initio Electronic Structure Package
                               Psi4 1.9 release

                         Git: Rev {} zzzzzzz 


    D. G. A. Smith, L. A. Burns, A. C. Simmonett, R. M. Parrish,
    M. C. Schieber, R. Galvelis, P. Kraus, H. Kruse, R. Di Remigio,
    A. Alenaizan, A. M. James, S. Lehtola, J. P. Misiewicz, M. Scheurer,
    R. A. Shaw, J. B. Schriber, Y. Xie, Z. L. Glick, D. A. Sirianni,
    J. S. O'Brien, J. M. Waldrop, A. Kumar, E. G. Hohenstein,
    B. P. Pritchard, B. R. Brooks, H. F. Schaefer III, A. Yu. Sokolov,
    K. Patkowski, A. E. DePrince III, U. Bozkaya, R. A. King,
    F. A. Evangelista, J. M. Turney, T. D. Crawford, C. D. Sherrill,
    J. Chem. Phys. 152(18) 184108 (2020). https://doi.org/10.1063/5.0006002

                            Additional Code Authors
    E. T. Seidl, C. L. Janssen, E. F. Valeev, M. L. Leininger,
    J. F. Gonthier, R. M. Richard, H. R. McAlexander, M. Saitow, X. Wang,
    P. Verma, M. H. Lechner, A. Jiang, S. Behnle, A. G. Heide,
    M. F. Herbst, and D. L. Poole

             Previous Authors, Complete List of Code Contributors,
                       and Citations for Specific Modules
    https://github.com/psi4/psi4/blob/master/codemeta.json
    https://github.com/psi4/psi4/graphs/contributors
    http://psicode.org/psi4manual/master/introduction.html#citing-psifour

    -----------------------------------------------------------------------


    Psi4 started on: Wednesday, 03 January 2024 03:52PM

    Process ID: 411935
    Host:       moses-razer
    PSIDATADIR: /home/kchung25/anaconda3/envs/psi4_19/share/psi4
    Memory:     500.0 MiB
    Threads:    6
    
  ==> Input File <==

--------------------------------------------------------------------------
MEMORY 60 GB

molecule dimer {
0 1
O      0.000000     0.000000     0.000000
H      0.167189     0.897287    -0.289581
H      0.449825    -0.561815    -0.779120
--
-1 1
F      2.426389     0.000000     0.000000

units ang
no_reorient
no_com
symmetry c1
}

set {
basis        aug-cc-pVTZ
scf_type     df
}

energy("sapt2+")
--------------------------------------------------------------------------

  Memory set to  55.879 GiB by Python driver.

Scratch directory: /scratch/
   => Loading Basis Set <=

    Name: AUG-CC-PVTZ
    Role: ORBITAL
    Keyword: BASIS
    atoms 1   entry O          line   331 file /home/kchung25/anaconda3/envs/p415env/share/psi4/basis/aug-cc-pvtz.gbs 
    atoms 2-3 entry H          line    40 file /home/kchung25/anaconda3/envs/p415env/share/psi4/basis/aug-cc-pvtz.gbs 
    atoms 4   entry F          line   377 file /home/kchung25/anaconda3/envs/p415env/share/psi4/basis/aug-cc-pvtz.gbs 

   => Loading Basis Set <=

    Name: AUG-CC-PVTZ
    Role: ORBITAL
    Keyword: BASIS
    atoms 1   entry O          line   331 file /home/kchung25/anaconda3/envs/p415env/share/psi4/basis/aug-cc-pvtz.gbs 
    atoms 2-3 entry H          line    40 file /home/kchung25/anaconda3/envs/p415env/share/psi4/basis/aug-cc-pvtz.gbs 
    atoms 4   entry F          line   377 file /home/kchung25/anaconda3/envs/p415env/share/psi4/basis/aug-cc-pvtz.gbs 


  //>>>>>>>>>>>>>>>>>>>>>>>>>>>>>>>>>>>//
  //              Dimer HF             //
  //<<<<<<<<<<<<<<<<<<<<<<<<<<<<<<<<<<<//

   => Libint2 <=

    Primary   basis highest AM E, G, H:  5, 4, 3
    Auxiliary basis highest AM E, G, H:  6, 5, 4
    Onebody   basis highest AM E, G, H:  6, 5, 4
    Solid Harmonics ordering:            gaussian

*** tstart() called on moses-razer
*** at Wed Jan  3 15:52:27 2024

   => Loading Basis Set <=

    Name: AUG-CC-PVTZ
    Role: ORBITAL
    Keyword: BASIS
    atoms 1   entry O          line   331 file /home/kchung25/anaconda3/envs/p415env/share/psi4/basis/aug-cc-pvtz.gbs 
    atoms 2-3 entry H          line    40 file /home/kchung25/anaconda3/envs/p415env/share/psi4/basis/aug-cc-pvtz.gbs 
    atoms 4   entry F          line   377 file /home/kchung25/anaconda3/envs/p415env/share/psi4/basis/aug-cc-pvtz.gbs 


         ---------------------------------------------------------
                                   SCF
               by Justin Turney, Rob Parrish, Andy Simmonett
                          and Daniel G. A. Smith
                              RHF Reference
                        6 Threads,  57220 MiB Core
         ---------------------------------------------------------

  ==> Geometry <==

    Molecular point group: c1
    Full point group: C1

    Geometry (in Angstrom), charge = -1, multiplicity = 1:

       Center              X                  Y                   Z               Mass       
    ------------   -----------------  -----------------  -----------------  -----------------
         O            0.000000000000     0.000000000000     0.000000000000    15.994914619570
         H            0.167189000000     0.897287000000    -0.289581000000     1.007825032230
         H            0.449825000000    -0.561815000000    -0.779120000000     1.007825032230
         F            2.426389000000     0.000000000000     0.000000000000    18.998403162730

  Running in c1 symmetry.

  Rotational constants: A =      9.24074  B =      0.14956  C =      0.14882 [cm^-1]
  Rotational constants: A = 277030.39959  B =   4483.69609  C =   4461.41443 [MHz]
  Nuclear repulsion =   28.565787986167596

  Charge       = -1
  Multiplicity = 1
  Electrons    = 20
  Nalpha       = 10
  Nbeta        = 10

  ==> Algorithm <==

  SCF Algorithm Type is DF.
  DIIS enabled.
  MOM disabled.
  Fractional occupation disabled.
  Guess Type is SAD.
  Energy threshold   = 1.00e-08
  Density threshold  = 1.00e-08
  Integral threshold = 1.00e-12

  ==> Primary Basis <==

  Basis Set: AUG-CC-PVTZ
    Blend: AUG-CC-PVTZ
    Number of shells: 46
    Number of basis functions: 138
    Number of Cartesian functions: 160
    Spherical Harmonics?: true
    Max angular momentum: 3

   => Loading Basis Set <=

    Name: (AUG-CC-PVTZ AUX)
    Role: JKFIT
    Keyword: DF_BASIS_SCF
    atoms 1   entry O          line   286 file /home/kchung25/anaconda3/envs/p415env/share/psi4/basis/aug-cc-pvtz-jkfit.gbs 
    atoms 2-3 entry H          line    70 file /home/kchung25/anaconda3/envs/p415env/share/psi4/basis/aug-cc-pvtz-jkfit.gbs 
    atoms 4   entry F          line   348 file /home/kchung25/anaconda3/envs/p415env/share/psi4/basis/aug-cc-pvtz-jkfit.gbs 

  ==> Integral Setup <==

  ==> DiskDFJK: Density-Fitted J/K Matrices <==

    J tasked:                  Yes
    K tasked:                  Yes
    wK tasked:                  No
    OpenMP threads:              6
    Integrals threads:           6
    Memory [MiB]:            42915
    Algorithm:                Core
    Integral Cache:           SAVE
    Schwarz Cutoff:          1E-12
    Fitting Condition:       1E-10

   => Auxiliary Basis Set <=

  Basis Set: (AUG-CC-PVTZ AUX)
    Blend: AUG-CC-PVTZ-JKFIT
    Number of shells: 88
    Number of basis functions: 300
    Number of Cartesian functions: 372
    Spherical Harmonics?: true
    Max angular momentum: 4

  Minimum eigenvalue in the overlap matrix is 3.3810757668E-04.
  Reciprocal condition number of the overlap matrix is 4.5408455950E-05.
    Using symmetric orthogonalization.

  ==> Pre-Iterations <==

  SCF Guess: Superposition of Atomic Densities via on-the-fly atomic UHF (no occupation information).

   -------------------------
    Irrep   Nso     Nmo    
   -------------------------
     A        138     138 
   -------------------------
    Total     138     138
   -------------------------

  ==> Iterations <==

                           Total Energy        Delta E     RMS |[F,P]|

   @DF-RHF iter SAD:  -174.29393630368685   -1.74294e+02   0.00000e+00 
   @DF-RHF iter   1:  -175.29806119003476   -1.00412e+00   5.17277e-03 ADIIS/DIIS
   @DF-RHF iter   2:  -175.39101334855354   -9.29522e-02   4.38134e-03 ADIIS/DIIS
   @DF-RHF iter   3:  -175.49494135238007   -1.03928e-01   2.69243e-04 ADIIS/DIIS
   @DF-RHF iter   4:  -175.49561482602189   -6.73474e-04   1.56163e-04 ADIIS/DIIS
   @DF-RHF iter   5:  -175.49580720380015   -1.92378e-04   3.17904e-05 DIIS
   @DF-RHF iter   6:  -175.49582411347521   -1.69097e-05   7.90233e-06 DIIS
   @DF-RHF iter   7:  -175.49582556392235   -1.45045e-06   1.83638e-06 DIIS
   @DF-RHF iter   8:  -175.49582566945799   -1.05536e-07   4.65432e-07 DIIS
   @DF-RHF iter   9:  -175.49582567549930   -6.04132e-09   9.82673e-08 DIIS
   @DF-RHF iter  10:  -175.49582567579253   -2.93227e-10   2.50848e-08 DIIS
   @DF-RHF iter  11:  -175.49582567581260   -2.00657e-11   5.56746e-09 DIIS
  Energy and wave function converged.


  ==> Post-Iterations <==

    Orbital Energies [Eh]
    ---------------------

    Doubly Occupied:                                                      

       1A    -25.840192     2A    -20.359716     3A     -1.120910  
       4A     -1.086045     5A     -0.474746     6A     -0.371817  
       7A     -0.300691     8A     -0.191960     9A     -0.191491  
      10A     -0.183593  

    Virtual:                                                              

      11A      0.159950    12A      0.167303    13A      0.274353  
      14A      0.308218    15A      0.322131    16A      0.334170  
      17A      0.383725    18A      0.406219    19A      0.420069  
      20A      0.447505    21A      0.452152    22A      0.497669  
      23A      0.525091    24A      0.533812    25A      0.564803  
      26A      0.611705    27A      0.637714    28A      0.672303  
      29A      0.783573    30A      0.857493    31A      0.914478  
      32A      0.930819    33A      0.961795    34A      1.007643  
      35A      1.066231    36A      1.084939    37A      1.105763  
      38A      1.109941    39A      1.139802    40A      1.163428  
      41A      1.190841    42A      1.211998    43A      1.230292  
      44A      1.268932    45A      1.281826    46A      1.318907  
      47A      1.351358    48A      1.383537    49A      1.396465  
      50A      1.435218    51A      1.450532    52A      1.469342  
      53A      1.506335    54A      1.630150    55A      1.672463  
      56A      1.744095    57A      1.770853    58A      1.821269  
      59A      1.952170    60A      1.999108    61A      2.077922  
      62A      2.138776    63A      2.273733    64A      2.442055  
      65A      2.505286    66A      2.537383    67A      2.567568  
      68A      2.628763    69A      2.675305    70A      2.775950  
      71A      2.826159    72A      2.923494    73A      2.932300  
      74A      2.970595    75A      3.010913    76A      3.068354  
      77A      3.287224    78A      3.288941    79A      3.318135  
      80A      3.324243    81A      3.330185    82A      3.336395  
      83A      3.393876    84A      3.423566    85A      3.428048  
      86A      3.519136    87A      3.555950    88A      3.734051  
      89A      3.859908    90A      3.997726    91A      4.263558  
      92A      4.347823    93A      4.373026    94A      4.426734  
      95A      4.561921    96A      4.650754    97A      4.687952  
      98A      4.773710    99A      4.819382   100A      4.844817  
     101A      5.030696   102A      5.212813   103A      5.273001  
     104A      5.375347   105A      5.540131   106A      5.658489  
     107A      5.708637   108A      5.761848   109A      5.793492  
     110A      6.112775   111A      6.451576   112A      6.761342  
     113A      6.942524   114A      7.126447   115A      7.256435  
     116A      7.421016   117A      7.471617   118A      7.528251  
     119A      7.584246   120A      7.617464   121A      7.716645  
     122A      8.019634   123A      8.088394   124A      8.747320  
     125A      9.269700   126A      9.270170   127A      9.307692  
     128A      9.311637   129A      9.366856   130A      9.437468  
     131A      9.476409   132A      9.771795   133A      9.776962  
     134A      9.850540   135A      9.891169   136A      9.941426  
     137A     11.893993   138A     14.888319  

    Final Occupation by Irrep:
              A 
    DOCC [    10 ]
    NA   [    10 ]
    NB   [    10 ]

  @DF-RHF Final Energy:  -175.49582567581260

   => Energetics <=

    Nuclear Repulsion Energy =             28.5657879861675958
    One-Electron Energy =                -307.8809068134922882
    Two-Electron Energy =                 103.8192931515121131
    Total Energy =                       -175.4958256758125685

Computation Completed


Properties will be evaluated at   0.000000,   0.000000,   0.000000 [a0]

Properties computed using the SCF density matrix


 Multipole Moments:

 ------------------------------------------------------------------------------------
     Multipole            Electronic (a.u.)      Nuclear  (a.u.)        Total (a.u.)
 ------------------------------------------------------------------------------------

 L = 1.  Multiply by 2.5417464519 to convert [e a0] to [Debye]
 Dipole X            :        -46.3118268           42.4328836           -3.8789432
 Dipole Y            :         -0.4287800            0.6339502            0.2051702
 Dipole Z            :          1.4239072           -2.0195522           -0.5956450
 Magnitude           :                                                    3.9297694

 ------------------------------------------------------------------------------------

*** tstop() called on moses-razer at Wed Jan  3 15:52:27 2024
Module time:
	user time   =       3.41 seconds =       0.06 minutes
	system time =       0.09 seconds =       0.00 minutes
	total time  =          0 seconds =       0.00 minutes
Total time:
	user time   =       3.41 seconds =       0.06 minutes
	system time =       0.09 seconds =       0.00 minutes
	total time  =          0 seconds =       0.00 minutes

  //>>>>>>>>>>>>>>>>>>>>>>>>>>>>>>>>>>>//
  //            Monomer A HF           //
  //<<<<<<<<<<<<<<<<<<<<<<<<<<<<<<<<<<<//

   => Libint2 <=

    Primary   basis highest AM E, G, H:  5, 4, 3
    Auxiliary basis highest AM E, G, H:  6, 5, 4
    Onebody   basis highest AM E, G, H:  6, 5, 4
    Solid Harmonics ordering:            gaussian

*** tstart() called on moses-razer
*** at Wed Jan  3 15:52:27 2024

   => Loading Basis Set <=

    Name: AUG-CC-PVTZ
    Role: ORBITAL
    Keyword: BASIS
    atoms 1   entry O          line   331 file /home/kchung25/anaconda3/envs/p415env/share/psi4/basis/aug-cc-pvtz.gbs 
    atoms 2-3 entry H          line    40 file /home/kchung25/anaconda3/envs/p415env/share/psi4/basis/aug-cc-pvtz.gbs 
    atoms 4   entry F          line   377 file /home/kchung25/anaconda3/envs/p415env/share/psi4/basis/aug-cc-pvtz.gbs 


         ---------------------------------------------------------
                                   SCF
               by Justin Turney, Rob Parrish, Andy Simmonett
                          and Daniel G. A. Smith
                              RHF Reference
                        6 Threads,  57220 MiB Core
         ---------------------------------------------------------

  ==> Geometry <==

    Molecular point group: c1
    Full point group: C1

    Geometry (in Angstrom), charge = 0, multiplicity = 1:

       Center              X                  Y                   Z               Mass       
    ------------   -----------------  -----------------  -----------------  -----------------
         O            0.000000000000     0.000000000000     0.000000000000    15.994914619570
         H            0.167189000000     0.897287000000    -0.289581000000     1.007825032230
         H            0.449825000000    -0.561815000000    -0.779120000000     1.007825032230
      Gh(F)           2.426389000000     0.000000000000     0.000000000000    18.998403162730

  Running in c1 symmetry.

  Rotational constants: A =      9.24074  B =      0.14956  C =      0.14882 [cm^-1]
  Rotational constants: A = 277030.39959  B =   4483.69609  C =   4461.41443 [MHz]
  Nuclear repulsion =    8.750492208289058

  Charge       = 0
  Multiplicity = 1
  Electrons    = 10
  Nalpha       = 5
  Nbeta        = 5

  ==> Algorithm <==

  SCF Algorithm Type is DF.
  DIIS enabled.
  MOM disabled.
  Fractional occupation disabled.
  Guess Type is SAD.
  Energy threshold   = 1.00e-08
  Density threshold  = 1.00e-08
  Integral threshold = 1.00e-12

  ==> Primary Basis <==

  Basis Set: AUG-CC-PVTZ
    Blend: AUG-CC-PVTZ
    Number of shells: 46
    Number of basis functions: 138
    Number of Cartesian functions: 160
    Spherical Harmonics?: true
    Max angular momentum: 3

   => Loading Basis Set <=

    Name: (AUG-CC-PVTZ AUX)
    Role: JKFIT
    Keyword: DF_BASIS_SCF
    atoms 1   entry O          line   286 file /home/kchung25/anaconda3/envs/p415env/share/psi4/basis/aug-cc-pvtz-jkfit.gbs 
    atoms 2-3 entry H          line    70 file /home/kchung25/anaconda3/envs/p415env/share/psi4/basis/aug-cc-pvtz-jkfit.gbs 
    atoms 4   entry F          line   348 file /home/kchung25/anaconda3/envs/p415env/share/psi4/basis/aug-cc-pvtz-jkfit.gbs 

  ==> Integral Setup <==

  ==> DiskDFJK: Density-Fitted J/K Matrices <==

    J tasked:                  Yes
    K tasked:                  Yes
    wK tasked:                  No
    OpenMP threads:              6
    Integrals threads:           6
    Memory [MiB]:            42915
    Algorithm:                Core
    Integral Cache:           LOAD
    Schwarz Cutoff:          1E-12
    Fitting Condition:       1E-10

   => Auxiliary Basis Set <=

  Basis Set: (AUG-CC-PVTZ AUX)
    Blend: AUG-CC-PVTZ-JKFIT
    Number of shells: 88
    Number of basis functions: 300
    Number of Cartesian functions: 372
    Spherical Harmonics?: true
    Max angular momentum: 4

  Minimum eigenvalue in the overlap matrix is 3.3810757668E-04.
  Reciprocal condition number of the overlap matrix is 4.5408455950E-05.
    Using symmetric orthogonalization.

  ==> Pre-Iterations <==

  SCF Guess: Superposition of Atomic Densities via on-the-fly atomic UHF (no occupation information).

   -------------------------
    Irrep   Nso     Nmo    
   -------------------------
     A        138     138 
   -------------------------
    Total     138     138
   -------------------------

  ==> Iterations <==

                           Total Energy        Delta E     RMS |[F,P]|

   @DF-RHF iter SAD:   -75.41814270891223   -7.54181e+01   0.00000e+00 
   @DF-RHF iter   1:   -75.95995408250583   -5.41811e-01   3.39444e-03 ADIIS/DIIS
   @DF-RHF iter   2:   -76.01151379591830   -5.15597e-02   2.46297e-03 ADIIS/DIIS
   @DF-RHF iter   3:   -76.04807773650404   -3.65639e-02   1.69630e-04 ADIIS/DIIS
   @DF-RHF iter   4:   -76.04856847107516   -4.90735e-04   4.57449e-05 DIIS
   @DF-RHF iter   5:   -76.04860934336617   -4.08723e-05   1.12473e-05 DIIS
   @DF-RHF iter   6:   -76.04861312333827   -3.77997e-06   2.44642e-06 DIIS
   @DF-RHF iter   7:   -76.04861331058726   -1.87249e-07   4.06648e-07 DIIS
   @DF-RHF iter   8:   -76.04861331494341   -4.35615e-09   7.62944e-08 DIIS
   @DF-RHF iter   9:   -76.04861331507711   -1.33696e-10   2.16751e-08 DIIS
   @DF-RHF iter  10:   -76.04861331508803   -1.09281e-11   4.12438e-09 DIIS
  Energy and wave function converged.


  ==> Post-Iterations <==

    Orbital Energies [Eh]
    ---------------------

    Doubly Occupied:                                                      

       1A    -20.576830     2A     -1.332636     3A     -0.686409  
       4A     -0.579389     5A     -0.507557  

    Virtual:                                                              

       6A      0.027847     7A      0.047402     8A      0.114473  
       9A      0.133145    10A      0.159692    11A      0.180559  
      12A      0.192480    13A      0.194369    14A      0.198432  
      15A      0.227740    16A      0.248543    17A      0.278214  
      18A      0.319990    19A      0.346268    20A      0.369378  
      21A      0.414835    22A      0.423255    23A      0.461139  
      24A      0.599995    25A      0.636385    26A      0.693418  
      27A      0.704341    28A      0.717287    29A      0.775912  
      30A      0.797959    31A      0.807811    32A      0.825069  
      33A      0.855036    34A      0.875804    35A      0.889416  
      36A      0.928580    37A      0.944749    38A      0.963250  
      39A      0.980491    40A      1.004053    41A      1.027940  
      42A      1.036427    43A      1.062952    44A      1.069999  
      45A      1.110287    46A      1.180998    47A      1.193105  
      48A      1.231709    49A      1.307476    50A      1.322057  
      51A      1.385305    52A      1.510628    53A      1.549204  
      54A      1.568449    55A      1.628302    56A      1.796540  
      57A      1.861860    58A      1.922898    59A      2.134456  
      60A      2.289072    61A      2.333625    62A      2.335119  
      63A      2.418142    64A      2.462361    65A      2.524522  
      66A      2.597148    67A      2.712225    68A      2.728724  
      69A      2.746103    70A      2.804896    71A      2.857120  
      72A      3.033199    73A      3.051293    74A      3.091855  
      75A      3.093256    76A      3.125970    77A      3.152562  
      78A      3.163676    79A      3.180057    80A      3.241815  
      81A      3.291400    82A      3.490664    83A      3.566393  
      84A      3.593813    85A      3.613382    86A      3.696964  
      87A      3.773740    88A      3.824570    89A      3.886242  
      90A      4.057956    91A      4.158296    92A      4.175050  
      93A      4.224835    94A      4.361620    95A      4.450202  
      96A      4.495305    97A      4.599474    98A      4.637331  
      99A      4.651842   100A      4.841987   101A      4.999825  
     102A      5.071368   103A      5.170938   104A      5.345554  
     105A      5.478037   106A      5.579067   107A      6.239609  
     108A      6.547366   109A      6.730568   110A      6.911610  
     111A      7.041623   112A      7.211165   113A      7.257129  
     114A      7.315429   115A      7.371684   116A      7.405017  
     117A      7.504576   118A      7.808665   119A      7.879829  
     120A      8.541567   121A      9.658377   122A     10.159427  
     123A     10.159840   124A     10.199881   125A     10.202647  
     126A     10.267012   127A     10.334964   128A     10.420403  
     129A     12.962718   130A     12.967435   131A     13.026667  
     132A     13.059451   133A     13.085938   134A     14.250154  
     135A     14.289901   136A     14.594937   137A     14.754565  
     138A     67.837579  

    Final Occupation by Irrep:
              A 
    DOCC [     5 ]
    NA   [     5 ]
    NB   [     5 ]

  @DF-RHF Final Energy:   -76.04861331508803

   => Energetics <=

    Nuclear Repulsion Energy =              8.7504922082890584
    One-Electron Energy =                -122.2325683761584401
    Two-Electron Energy =                  37.4334628527813464
    Total Energy =                        -76.0486133150880335

Computation Completed


Properties will be evaluated at   0.000000,   0.000000,   0.000000 [a0]

Properties computed using the SCF density matrix


 Multipole Moments:

 ------------------------------------------------------------------------------------
     Multipole            Electronic (a.u.)      Nuclear  (a.u.)        Total (a.u.)
 ------------------------------------------------------------------------------------

 L = 1.  Multiply by 2.5417464519 to convert [e a0] to [Debye]
 Dipole X            :         -0.7747928            1.1659875            0.3911947
 Dipole Y            :         -0.4011714            0.6339502            0.2327788
 Dipole Z            :          1.3419238           -2.0195522           -0.6776284
 Magnitude           :                                                    0.8163329

 ------------------------------------------------------------------------------------

*** tstop() called on moses-razer at Wed Jan  3 15:52:28 2024
Module time:
	user time   =       2.45 seconds =       0.04 minutes
	system time =       0.03 seconds =       0.00 minutes
	total time  =          1 seconds =       0.02 minutes
Total time:
	user time   =       5.89 seconds =       0.10 minutes
	system time =       0.12 seconds =       0.00 minutes
	total time  =          1 seconds =       0.02 minutes

  //>>>>>>>>>>>>>>>>>>>>>>>>>>>>>>>>>>>//
  //            Monomer B HF           //
  //<<<<<<<<<<<<<<<<<<<<<<<<<<<<<<<<<<<//

   => Libint2 <=

    Primary   basis highest AM E, G, H:  5, 4, 3
    Auxiliary basis highest AM E, G, H:  6, 5, 4
    Onebody   basis highest AM E, G, H:  6, 5, 4
    Solid Harmonics ordering:            gaussian

*** tstart() called on moses-razer
*** at Wed Jan  3 15:52:28 2024

   => Loading Basis Set <=

    Name: AUG-CC-PVTZ
    Role: ORBITAL
    Keyword: BASIS
    atoms 1   entry O          line   331 file /home/kchung25/anaconda3/envs/p415env/share/psi4/basis/aug-cc-pvtz.gbs 
    atoms 2-3 entry H          line    40 file /home/kchung25/anaconda3/envs/p415env/share/psi4/basis/aug-cc-pvtz.gbs 
    atoms 4   entry F          line   377 file /home/kchung25/anaconda3/envs/p415env/share/psi4/basis/aug-cc-pvtz.gbs 


         ---------------------------------------------------------
                                   SCF
               by Justin Turney, Rob Parrish, Andy Simmonett
                          and Daniel G. A. Smith
                              RHF Reference
                        6 Threads,  57220 MiB Core
         ---------------------------------------------------------

  ==> Geometry <==

    Molecular point group: c1
    Full point group: C1

    Geometry (in Angstrom), charge = -1, multiplicity = 1:

       Center              X                  Y                   Z               Mass       
    ------------   -----------------  -----------------  -----------------  -----------------
      Gh(O)           0.000000000000     0.000000000000     0.000000000000    15.994914619570
      Gh(H)           0.167189000000     0.897287000000    -0.289581000000     1.007825032230
      Gh(H)           0.449825000000    -0.561815000000    -0.779120000000     1.007825032230
         F            2.426389000000     0.000000000000     0.000000000000    18.998403162730

  Running in c1 symmetry.

  Rotational constants: A =      9.24074  B =      0.14956  C =      0.14882 [cm^-1]
  Rotational constants: A = 277030.39959  B =   4483.69609  C =   4461.41443 [MHz]
  Nuclear repulsion =    0.000000000000000

  Charge       = -1
  Multiplicity = 1
  Electrons    = 10
  Nalpha       = 5
  Nbeta        = 5

  ==> Algorithm <==

  SCF Algorithm Type is DF.
  DIIS enabled.
  MOM disabled.
  Fractional occupation disabled.
  Guess Type is SAD.
  Energy threshold   = 1.00e-08
  Density threshold  = 1.00e-08
  Integral threshold = 1.00e-12

  ==> Primary Basis <==

  Basis Set: AUG-CC-PVTZ
    Blend: AUG-CC-PVTZ
    Number of shells: 46
    Number of basis functions: 138
    Number of Cartesian functions: 160
    Spherical Harmonics?: true
    Max angular momentum: 3

   => Loading Basis Set <=

    Name: (AUG-CC-PVTZ AUX)
    Role: JKFIT
    Keyword: DF_BASIS_SCF
    atoms 1   entry O          line   286 file /home/kchung25/anaconda3/envs/p415env/share/psi4/basis/aug-cc-pvtz-jkfit.gbs 
    atoms 2-3 entry H          line    70 file /home/kchung25/anaconda3/envs/p415env/share/psi4/basis/aug-cc-pvtz-jkfit.gbs 
    atoms 4   entry F          line   348 file /home/kchung25/anaconda3/envs/p415env/share/psi4/basis/aug-cc-pvtz-jkfit.gbs 

  ==> Integral Setup <==

  ==> DiskDFJK: Density-Fitted J/K Matrices <==

    J tasked:                  Yes
    K tasked:                  Yes
    wK tasked:                  No
    OpenMP threads:              6
    Integrals threads:           6
    Memory [MiB]:            42915
    Algorithm:                Core
    Integral Cache:           LOAD
    Schwarz Cutoff:          1E-12
    Fitting Condition:       1E-10

   => Auxiliary Basis Set <=

  Basis Set: (AUG-CC-PVTZ AUX)
    Blend: AUG-CC-PVTZ-JKFIT
    Number of shells: 88
    Number of basis functions: 300
    Number of Cartesian functions: 372
    Spherical Harmonics?: true
    Max angular momentum: 4

  Minimum eigenvalue in the overlap matrix is 3.3810757668E-04.
  Reciprocal condition number of the overlap matrix is 4.5408455950E-05.
    Using symmetric orthogonalization.

  ==> Pre-Iterations <==

  SCF Guess: Superposition of Atomic Densities via on-the-fly atomic UHF (no occupation information).

   -------------------------
    Irrep   Nso     Nmo    
   -------------------------
     A        138     138 
   -------------------------
    Total     138     138
   -------------------------

  ==> Iterations <==

                           Total Energy        Delta E     RMS |[F,P]|

   @DF-RHF iter SAD:   -98.82535134688681   -9.88254e+01   0.00000e+00 
   @DF-RHF iter   1:   -99.33788966909835   -5.12538e-01   3.95757e-03 ADIIS/DIIS
   @DF-RHF iter   2:   -99.37409110438102   -3.62014e-02   3.84407e-03 ADIIS/DIIS
   @DF-RHF iter   3:   -99.45079796358407   -7.67069e-02   1.21079e-04 ADIIS/DIIS
   @DF-RHF iter   4:   -99.45086129314340   -6.33296e-05   4.55837e-05 DIIS
   @DF-RHF iter   5:   -99.45087149077567   -1.01976e-05   3.49953e-06 DIIS
   @DF-RHF iter   6:   -99.45087162637741   -1.35602e-07   2.76420e-07 DIIS
   @DF-RHF iter   7:   -99.45087162761743   -1.24002e-09   4.89490e-08 DIIS
   @DF-RHF iter   8:   -99.45087162770891   -9.14753e-11   1.28083e-08 DIIS
   @DF-RHF iter   9:   -99.45087162771446   -5.55644e-12   1.37097e-09 DIIS
  Energy and wave function converged.


  ==> Post-Iterations <==

    Orbital Energies [Eh]
    ---------------------

    Doubly Occupied:                                                      

       1A    -25.833749     2A     -1.076037     3A     -0.181019  
       4A     -0.180968     5A     -0.180950  

    Virtual:                                                              

       6A      0.157135     7A      0.169527     8A      0.255018  
       9A      0.274890    10A      0.305096    11A      0.325141  
      12A      0.409455    13A      0.416319    14A      0.441024  
      15A      0.458345    16A      0.465327    17A      0.499416  
      18A      0.510014    19A      0.537530    20A      0.549985  
      21A      0.566419    22A      0.625734    23A      0.670232  
      24A      0.815539    25A      0.880313    26A      0.935679  
      27A      0.952649    28A      0.978034    29A      1.003046  
      30A      1.017674    31A      1.080925    32A      1.094494  
      33A      1.109367    34A      1.137188    35A      1.170334  
      36A      1.202060    37A      1.223868    38A      1.250903  
      39A      1.302123    40A      1.309703    41A      1.344010  
      42A      1.368959    43A      1.397608    44A      1.441018  
      45A      1.455021    46A      1.459342    47A      1.472722  
      48A      1.614309    49A      1.640350    50A      1.681387  
      51A      1.750380    52A      1.877294    53A      1.934841  
      54A      1.959848    55A      1.995787    56A      2.046341  
      57A      2.065094    58A      2.241053    59A      2.361677  
      60A      2.576810    61A      2.705211    62A      2.732750  
      63A      2.739598    64A      2.762148    65A      2.789599  
      66A      2.808886    67A      3.026735    68A      3.063190  
      69A      3.246107    70A      3.280291    71A      3.301069  
      72A      3.303349    73A      3.330917    74A      3.340664  
      75A      3.346007    76A      3.375098    77A      3.408312  
      78A      3.427228    79A      3.468086    80A      3.483489  
      81A      3.494988    82A      3.507217    83A      3.596520  
      84A      3.606992    85A      3.807323    86A      3.869743  
      87A      3.947475    88A      4.584320    89A      4.673806  
      90A      4.694544    91A      4.791880    92A      4.824869  
      93A      4.908498    94A      5.120457    95A      5.209631  
      96A      5.327113    97A      5.424748    98A      5.606010  
      99A      5.621790   100A      5.725004   101A      5.771532  
     102A      5.865202   103A      6.059006   104A      6.138679  
     105A      6.347983   106A      6.522544   107A      6.561545  
     108A      7.140517   109A      7.885002   110A      8.047156  
     111A      8.178157   112A      8.244929   113A      8.455510  
     114A      8.717925   115A      8.861482   116A      9.281612  
     117A      9.282061   118A      9.319282   119A      9.323413  
     120A      9.382572   121A      9.432893   122A      9.479902  
     123A      9.781279   124A      9.787416   125A      9.822499  
     126A      9.860431   127A      9.904511   128A      9.953539  
     129A     10.114764   130A     10.205786   131A     10.428458  
     132A     11.000392   133A     11.572079   134A     12.049072  
     135A     12.205939   136A     13.548027   137A     14.042068  
     138A     62.752324  

    Final Occupation by Irrep:
              A 
    DOCC [     5 ]
    NA   [     5 ]
    NB   [     5 ]

  @DF-RHF Final Energy:   -99.45087162771446

   => Energetics <=

    Nuclear Repulsion Energy =              0.0000000000000000
    One-Electron Energy =                -143.9962974224371806
    Two-Electron Energy =                  44.5454257947227319
    Total Energy =                        -99.4508716277144487

Computation Completed


Properties will be evaluated at   0.000000,   0.000000,   0.000000 [a0]

Properties computed using the SCF density matrix


 Multipole Moments:

 ------------------------------------------------------------------------------------
     Multipole            Electronic (a.u.)      Nuclear  (a.u.)        Total (a.u.)
 ------------------------------------------------------------------------------------

 L = 1.  Multiply by 2.5417464519 to convert [e a0] to [Debye]
 Dipole X            :        -45.8528043           41.2668962           -4.5859081
 Dipole Y            :         -0.0000790            0.0000000           -0.0000790
 Dipole Z            :          0.0001221            0.0000000            0.0001221
 Magnitude           :                                                    4.5859081

 ------------------------------------------------------------------------------------

*** tstop() called on moses-razer at Wed Jan  3 15:52:28 2024
Module time:
	user time   =       2.29 seconds =       0.04 minutes
	system time =       0.03 seconds =       0.00 minutes
	total time  =          0 seconds =       0.00 minutes
Total time:
	user time   =       8.21 seconds =       0.14 minutes
	system time =       0.15 seconds =       0.00 minutes
	total time  =          1 seconds =       0.02 minutes
  Constructing Basis Sets for SAPT...

   => Loading Basis Set <=

    Name: (AUG-CC-PVTZ AUX)
    Role: RIFIT
    Keyword: DF_BASIS_SAPT
    atoms 1   entry O          line   264 file /home/kchung25/anaconda3/envs/p415env/share/psi4/basis/aug-cc-pvtz-ri.gbs 
    atoms 2-3 entry H          line    30 file /home/kchung25/anaconda3/envs/p415env/share/psi4/basis/aug-cc-pvtz-ri.gbs 
    atoms 4   entry F          line   322 file /home/kchung25/anaconda3/envs/p415env/share/psi4/basis/aug-cc-pvtz-ri.gbs 

   => Loading Basis Set <=

    Name: (AUG-CC-PVTZ AUX)
    Role: JKFIT
    Keyword: DF_BASIS_ELST
    atoms 1   entry O          line   286 file /home/kchung25/anaconda3/envs/p415env/share/psi4/basis/aug-cc-pvtz-jkfit.gbs 
    atoms 2-3 entry H          line    70 file /home/kchung25/anaconda3/envs/p415env/share/psi4/basis/aug-cc-pvtz-jkfit.gbs 
    atoms 4   entry F          line   348 file /home/kchung25/anaconda3/envs/p415env/share/psi4/basis/aug-cc-pvtz-jkfit.gbs 


  //>>>>>>>>>>>>>>>>>>>>>>>>>>>>>>>>>>>//
  //               SAPT2+              //
  //<<<<<<<<<<<<<<<<<<<<<<<<<<<<<<<<<<<//


*** tstart() called on moses-razer
*** at Wed Jan  3 15:52:28 2024

        SAPT2+  
    Ed Hohenstein
     6 June 2009

      Orbital Information
  --------------------------
    NSO        =       138
    NMO        =       138
    NRI        =       304
    NOCC A     =         5
    NOCC B     =         5
    FOCC A     =         0
    FOCC B     =         0
    NVIR A     =       133
    NVIR B     =       133

    Estimated memory usage: 53.6 MB

    Natural Orbital Cutoff:   1.000E-06
    Disp(T3) Truncation:            Yes
    CCD (vv|vv) Truncation:         Yes
    MBPT T2 Truncation:             Yes

    Monomer A: 53 virtual orbitals dropped
    Monomer B: 78 virtual orbitals dropped

    Elst10,r            =    -0.014157484325 [Eh]
    Exch10 (S^2)        =     0.027168795980 [Eh]
    Exch10              =     0.027421452989 [Eh]
    Ind20,r (A<-B)      =    -0.009994961472 [Eh]
    Ind20,r (B<-A)      =    -0.011009294096 [Eh]
    Ind20,r             =    -0.021004255567 [Eh]
    Exch-Ind20,r (A<-B) =     0.002871912994 [Eh]
    Exch-Ind20,r (B<-A) =     0.010400109597 [Eh]
    Exch-Ind20,r        =     0.013272022591 [Eh]
    Disp20              =    -0.008468500506 [Eh]
    Disp20 (NO)         =    -0.007058596224 [Eh]
    Exch-Disp20         =     0.002827432031 [Eh]
    Elst12,r            =    -0.004223105295 [Eh]
    Exch11              =    -0.000349652871 [Eh]
    Exch12              =     0.008623892675 [Eh]
    Ind22               =    -0.006801868094 [Eh]
    Disp21              =     0.000304993167 [Eh]
    Disp22 (SDQ)        =    -0.001116357840 [Eh]

    (i =   1 of   5)          0 seconds
    (i =   2 of   5)          0 seconds
    (i =   3 of   5)          1 seconds
    (i =   4 of   5)          1 seconds
    (i =   5 of   5)          1 seconds

    Disp220 (T)         =    -0.000614254379 [Eh]

    (i =   1 of   5)          0 seconds
    (i =   2 of   5)          0 seconds
    (i =   3 of   5)          0 seconds
    (i =   4 of   5)          0 seconds
    (i =   5 of   5)          0 seconds

    Disp202 (T)         =    -0.000894889012 [Eh]

    Disp22 (T)          =    -0.001509143391 [Eh]

    Est. Disp220 (T)    =    -0.000736947313 [Eh]
    Est. Disp202 (T)    =    -0.001073636713 [Eh]

    Est. Disp22 (T)     =    -0.001810584026 [Eh]

    SAPT Results 
  --------------------------------------------------------------------------------------------------------
    Electrostatics                -18.38058962 [mEh]     -11.53399412 [kcal/mol]     -48.25823140 [kJ/mol]
      Elst10,r                    -14.15748433 [mEh]      -8.88395554 [kcal/mol]     -37.17046997 [kJ/mol]
      Elst12,r                     -4.22310529 [mEh]      -2.65003858 [kcal/mol]     -11.08776142 [kJ/mol]

    Exchange                       35.69569279 [mEh]      22.39938540 [kcal/mol]      93.71902852 [kJ/mol]
      Exch10                       27.42145299 [mEh]      17.20722154 [kcal/mol]      71.99501490 [kJ/mol]
      Exch10(S^2)                  27.16879598 [mEh]      17.04867687 [kcal/mol]      71.33166402 [kJ/mol]
      Exch11(S^2)                  -0.34965287 [mEh]      -0.21941049 [kcal/mol]      -0.91801349 [kJ/mol]
      Exch12(S^2)                   8.62389267 [mEh]       5.41157435 [kcal/mol]      22.64202710 [kJ/mol]

    Induction                     -12.10865277 [mEh]      -7.59829433 [kcal/mol]     -31.79126347 [kJ/mol]
      Ind20,r                     -21.00425557 [mEh]     -13.18036936 [kcal/mol]     -55.14666539 [kJ/mol]
      Ind22                        -6.80186809 [mEh]      -4.26823667 [kcal/mol]     -17.85830222 [kJ/mol]
      Exch-Ind20,r                 13.27202259 [mEh]       8.32831991 [kcal/mol]      34.84569051 [kJ/mol]
      Exch-Ind22                    4.29791700 [mEh]       2.69698363 [kcal/mol]      11.28417952 [kJ/mol]
      delta HF,r (2)               -1.87246870 [mEh]      -1.17499185 [kcal/mol]      -4.91616589 [kJ/mol]

    Dispersion                     -8.26301717 [mEh]      -5.18512156 [kcal/mol]     -21.69454860 [kJ/mol]
      Disp20                       -8.46850051 [mEh]      -5.31406430 [kcal/mol]     -22.23404501 [kJ/mol]
      Disp21                        0.30499317 [mEh]       0.19138610 [kcal/mol]       0.80075945 [kJ/mol]
      Disp22 (SDQ)                 -1.11635784 [mEh]      -0.70052512 [kcal/mol]      -2.93099710 [kJ/mol]
      Disp22 (T)                   -1.50914339 [mEh]      -0.94700178 [kcal/mol]      -3.96225543 [kJ/mol]
      Est. Disp22 (T)              -1.81058403 [mEh]      -1.13615863 [kcal/mol]      -4.75368771 [kJ/mol]
      Exch-Disp20                   2.82743203 [mEh]       1.77424039 [kcal/mol]       7.42342177 [kJ/mol]

  Total HF                          3.65926699 [mEh]       2.29622470 [kcal/mol]       9.60740416 [kJ/mol]
  Total SAPT0                      -1.98180148 [mEh]      -1.24359921 [kcal/mol]      -5.20321908 [kJ/mol]
  Total SAPT2                      -0.43461807 [mEh]      -0.27272696 [kcal/mol]      -1.14108959 [kJ/mol]
  Total SAPT2+                     -3.05656677 [mEh]      -1.91802461 [kcal/mol]      -8.02501495 [kJ/mol]

  Special recipe for scaled SAPT0 (see Manual):
    Electrostatics sSAPT0         -14.15748433 [mEh]      -8.88395554 [kcal/mol]     -37.17046997 [kJ/mol]
    Exchange sSAPT0                27.42145299 [mEh]      17.20722154 [kcal/mol]      71.99501490 [kJ/mol]
    Induction sSAPT0               -9.23097698 [mEh]      -5.79252550 [kcal/mol]     -24.23592671 [kJ/mol]
    Dispersion sSAPT0              -5.56145128 [mEh]      -3.48986337 [kcal/mol]     -14.60158833 [kJ/mol]
  Total sSAPT0                     -1.52845959 [mEh]      -0.95912288 [kcal/mol]      -4.01297011 [kJ/mol]
  --------------------------------------------------------------------------------------------------------

*** tstop() called on moses-razer at Wed Jan  3 15:52:31 2024
Module time:
	user time   =      16.98 seconds =       0.28 minutes
	system time =       1.02 seconds =       0.02 minutes
	total time  =          3 seconds =       0.05 minutes
Total time:
	user time   =      25.43 seconds =       0.42 minutes
	system time =       1.18 seconds =       0.02 minutes
	total time  =          4 seconds =       0.07 minutes

    Psi4 stopped on: Wednesday, 03 January 2024 03:52PM
    Psi4 wall time for execution: 0:00:04.58

*** Psi4 exiting successfully. Buy a developer a beer!
