
    -----------------------------------------------------------------------
          Psi4: An Open-Source Ab Initio Electronic Structure Package
                               Psi4 1.9 release

                         Git: Rev {} zzzzzzz 


    D. G. A. Smith, L. A. Burns, A. C. Simmonett, R. M. Parrish,
    M. C. Schieber, R. Galvelis, P. Kraus, H. Kruse, R. Di Remigio,
    A. Alenaizan, A. M. James, S. Lehtola, J. P. Misiewicz, M. Scheurer,
    R. A. Shaw, J. B. Schriber, Y. Xie, Z. L. Glick, D. A. Sirianni,
    J. S. O'Brien, J. M. Waldrop, A. Kumar, E. G. Hohenstein,
    B. P. Pritchard, B. R. Brooks, H. F. Schaefer III, A. Yu. Sokolov,
    K. Patkowski, A. E. DePrince III, U. Bozkaya, R. A. King,
    F. A. Evangelista, J. M. Turney, T. D. Crawford, C. D. Sherrill,
    J. Chem. Phys. 152(18) 184108 (2020). https://doi.org/10.1063/5.0006002

                            Additional Code Authors
    E. T. Seidl, C. L. Janssen, E. F. Valeev, M. L. Leininger,
    J. F. Gonthier, R. M. Richard, H. R. McAlexander, M. Saitow, X. Wang,
    P. Verma, M. H. Lechner, A. Jiang, S. Behnle, A. G. Heide,
    M. F. Herbst, and D. L. Poole

             Previous Authors, Complete List of Code Contributors,
                       and Citations for Specific Modules
    https://github.com/psi4/psi4/blob/master/codemeta.json
    https://github.com/psi4/psi4/graphs/contributors
    http://psicode.org/psi4manual/master/introduction.html#citing-psifour

    -----------------------------------------------------------------------


    Psi4 started on: Wednesday, 03 January 2024 03:52PM

    Process ID: 411903
    Host:       moses-razer
    PSIDATADIR: /home/kchung25/anaconda3/envs/psi4_19/share/psi4
    Memory:     500.0 MiB
    Threads:    6
    
  ==> Input File <==

--------------------------------------------------------------------------
MEMORY 60 GB

molecule dimer {
0 1
O      0.000000     0.000000     0.000000
H     -0.199018     0.870919     0.344710
H      0.516706     0.238886    -0.894961
--
-1 1
F      2.426389     0.000000     0.000000

units ang
no_reorient
no_com
symmetry c1
}

set {
basis        aug-cc-pVTZ
scf_type     df
}

energy("sapt2+")
--------------------------------------------------------------------------

  Memory set to  55.879 GiB by Python driver.

Scratch directory: /scratch/
   => Loading Basis Set <=

    Name: AUG-CC-PVTZ
    Role: ORBITAL
    Keyword: BASIS
    atoms 1   entry O          line   331 file /home/kchung25/anaconda3/envs/p415env/share/psi4/basis/aug-cc-pvtz.gbs 
    atoms 2-3 entry H          line    40 file /home/kchung25/anaconda3/envs/p415env/share/psi4/basis/aug-cc-pvtz.gbs 
    atoms 4   entry F          line   377 file /home/kchung25/anaconda3/envs/p415env/share/psi4/basis/aug-cc-pvtz.gbs 

   => Loading Basis Set <=

    Name: AUG-CC-PVTZ
    Role: ORBITAL
    Keyword: BASIS
    atoms 1   entry O          line   331 file /home/kchung25/anaconda3/envs/p415env/share/psi4/basis/aug-cc-pvtz.gbs 
    atoms 2-3 entry H          line    40 file /home/kchung25/anaconda3/envs/p415env/share/psi4/basis/aug-cc-pvtz.gbs 
    atoms 4   entry F          line   377 file /home/kchung25/anaconda3/envs/p415env/share/psi4/basis/aug-cc-pvtz.gbs 


  //>>>>>>>>>>>>>>>>>>>>>>>>>>>>>>>>>>>//
  //              Dimer HF             //
  //<<<<<<<<<<<<<<<<<<<<<<<<<<<<<<<<<<<//

   => Libint2 <=

    Primary   basis highest AM E, G, H:  5, 4, 3
    Auxiliary basis highest AM E, G, H:  6, 5, 4
    Onebody   basis highest AM E, G, H:  6, 5, 4
    Solid Harmonics ordering:            gaussian

*** tstart() called on moses-razer
*** at Wed Jan  3 15:52:11 2024

   => Loading Basis Set <=

    Name: AUG-CC-PVTZ
    Role: ORBITAL
    Keyword: BASIS
    atoms 1   entry O          line   331 file /home/kchung25/anaconda3/envs/p415env/share/psi4/basis/aug-cc-pvtz.gbs 
    atoms 2-3 entry H          line    40 file /home/kchung25/anaconda3/envs/p415env/share/psi4/basis/aug-cc-pvtz.gbs 
    atoms 4   entry F          line   377 file /home/kchung25/anaconda3/envs/p415env/share/psi4/basis/aug-cc-pvtz.gbs 


         ---------------------------------------------------------
                                   SCF
               by Justin Turney, Rob Parrish, Andy Simmonett
                          and Daniel G. A. Smith
                              RHF Reference
                        6 Threads,  57220 MiB Core
         ---------------------------------------------------------

  ==> Geometry <==

    Molecular point group: c1
    Full point group: C1

    Geometry (in Angstrom), charge = -1, multiplicity = 1:

       Center              X                  Y                   Z               Mass       
    ------------   -----------------  -----------------  -----------------  -----------------
         O            0.000000000000     0.000000000000     0.000000000000    15.994914619570
         H           -0.199018000000     0.870919000000     0.344710000000     1.007825032230
         H            0.516706000000     0.238886000000    -0.894961000000     1.007825032230
         F            2.426389000000     0.000000000000     0.000000000000    18.998403162730

  Running in c1 symmetry.

  Rotational constants: A =      9.65319  B =      0.14927  C =      0.14900 [cm^-1]
  Rotational constants: A = 289395.29416  B =   4474.97770  C =   4467.00033 [MHz]
  Nuclear repulsion =   28.405597966233898

  Charge       = -1
  Multiplicity = 1
  Electrons    = 20
  Nalpha       = 10
  Nbeta        = 10

  ==> Algorithm <==

  SCF Algorithm Type is DF.
  DIIS enabled.
  MOM disabled.
  Fractional occupation disabled.
  Guess Type is SAD.
  Energy threshold   = 1.00e-08
  Density threshold  = 1.00e-08
  Integral threshold = 1.00e-12

  ==> Primary Basis <==

  Basis Set: AUG-CC-PVTZ
    Blend: AUG-CC-PVTZ
    Number of shells: 46
    Number of basis functions: 138
    Number of Cartesian functions: 160
    Spherical Harmonics?: true
    Max angular momentum: 3

   => Loading Basis Set <=

    Name: (AUG-CC-PVTZ AUX)
    Role: JKFIT
    Keyword: DF_BASIS_SCF
    atoms 1   entry O          line   286 file /home/kchung25/anaconda3/envs/p415env/share/psi4/basis/aug-cc-pvtz-jkfit.gbs 
    atoms 2-3 entry H          line    70 file /home/kchung25/anaconda3/envs/p415env/share/psi4/basis/aug-cc-pvtz-jkfit.gbs 
    atoms 4   entry F          line   348 file /home/kchung25/anaconda3/envs/p415env/share/psi4/basis/aug-cc-pvtz-jkfit.gbs 

  ==> Integral Setup <==

  ==> DiskDFJK: Density-Fitted J/K Matrices <==

    J tasked:                  Yes
    K tasked:                  Yes
    wK tasked:                  No
    OpenMP threads:              6
    Integrals threads:           6
    Memory [MiB]:            42915
    Algorithm:                Core
    Integral Cache:           SAVE
    Schwarz Cutoff:          1E-12
    Fitting Condition:       1E-10

   => Auxiliary Basis Set <=

  Basis Set: (AUG-CC-PVTZ AUX)
    Blend: AUG-CC-PVTZ-JKFIT
    Number of shells: 88
    Number of basis functions: 300
    Number of Cartesian functions: 372
    Spherical Harmonics?: true
    Max angular momentum: 4

  Minimum eigenvalue in the overlap matrix is 3.4541420992E-04.
  Reciprocal condition number of the overlap matrix is 4.6881787960E-05.
    Using symmetric orthogonalization.

  ==> Pre-Iterations <==

  SCF Guess: Superposition of Atomic Densities via on-the-fly atomic UHF (no occupation information).

   -------------------------
    Irrep   Nso     Nmo    
   -------------------------
     A        138     138 
   -------------------------
    Total     138     138
   -------------------------

  ==> Iterations <==

                           Total Energy        Delta E     RMS |[F,P]|

   @DF-RHF iter SAD:  -174.29180812812692   -1.74292e+02   0.00000e+00 
   @DF-RHF iter   1:  -175.28999196696114   -9.98184e-01   5.20703e-03 DIIS/ADIIS
   @DF-RHF iter   2:  -175.38273589876644   -9.27439e-02   4.45045e-03 DIIS/ADIIS
   @DF-RHF iter   3:  -175.49093356591001   -1.08198e-01   2.70546e-04 DIIS/ADIIS
   @DF-RHF iter   4:  -175.49161457139277   -6.81005e-04   1.57286e-04 DIIS/ADIIS
   @DF-RHF iter   5:  -175.49180986470009   -1.95293e-04   3.27960e-05 DIIS
   @DF-RHF iter   6:  -175.49182801862938   -1.81539e-05   8.15752e-06 DIIS
   @DF-RHF iter   7:  -175.49182961872157   -1.60009e-06   1.91180e-06 DIIS
   @DF-RHF iter   8:  -175.49182973436194   -1.15640e-07   4.79714e-07 DIIS
   @DF-RHF iter   9:  -175.49182974077789   -6.41595e-09   9.97264e-08 DIIS
   @DF-RHF iter  10:  -175.49182974107831   -3.00417e-10   2.43557e-08 DIIS
   @DF-RHF iter  11:  -175.49182974109686   -1.85594e-11   5.54735e-09 DIIS
  Energy and wave function converged.


  ==> Post-Iterations <==

    Orbital Energies [Eh]
    ---------------------

    Doubly Occupied:                                                      

       1A    -25.836925     2A    -20.363149     3A     -1.123805  
       4A     -1.083389     5A     -0.477022     6A     -0.372769  
       7A     -0.302295     8A     -0.188379     9A     -0.187869  
      10A     -0.180712  

    Virtual:                                                              

      11A      0.151759    12A      0.173155    13A      0.272836  
      14A      0.302092    15A      0.318506    16A      0.344872  
      17A      0.383872    18A      0.405987    19A      0.420116  
      20A      0.442047    21A      0.458165    22A      0.495844  
      23A      0.521209    24A      0.525953    25A      0.561937  
      26A      0.604375    27A      0.637774    28A      0.673278  
      29A      0.782450    30A      0.852512    31A      0.915655  
      32A      0.932779    33A      0.955501    34A      1.004389  
      35A      1.057935    36A      1.082759    37A      1.095828  
      38A      1.109015    39A      1.127840    40A      1.159111  
      41A      1.187038    42A      1.210955    43A      1.235477  
      44A      1.246103    45A      1.266086    46A      1.312770  
      47A      1.349542    48A      1.376921    49A      1.412411  
      50A      1.448082    51A      1.460129    52A      1.464048  
      53A      1.501613    54A      1.603915    55A      1.658711  
      56A      1.722982    57A      1.743021    58A      1.851197  
      59A      1.956864    60A      1.996250    61A      2.081993  
      62A      2.156636    63A      2.339986    64A      2.371287  
      65A      2.482753    66A      2.538967    67A      2.599537  
      68A      2.632484    69A      2.684520    70A      2.757261  
      71A      2.794614    72A      2.913045    73A      2.924911  
      74A      2.961662    75A      3.019105    76A      3.056699  
      77A      3.289811    78A      3.293477    79A      3.323682  
      80A      3.326195    81A      3.329459    82A      3.347244  
      83A      3.381044    84A      3.420666    85A      3.432862  
      86A      3.503274    87A      3.532063    88A      3.744408  
      89A      3.919587    90A      3.999256    91A      4.255805  
      92A      4.361458    93A      4.416115    94A      4.443451  
      95A      4.520210    96A      4.582898    97A      4.678991  
      98A      4.722291    99A      4.810545   100A      4.883365  
     101A      5.025385   102A      5.230935   103A      5.240522  
     104A      5.375086   105A      5.499631   106A      5.676382  
     107A      5.736644   108A      5.748835   109A      5.798179  
     110A      6.110756   111A      6.421887   112A      6.795374  
     113A      6.941141   114A      7.087173   115A      7.248244  
     116A      7.423256   117A      7.466707   118A      7.519825  
     119A      7.578138   120A      7.613862   121A      7.693444  
     122A      8.024536   123A      8.106850   124A      8.755588  
     125A      9.270375   126A      9.272381   127A      9.311079  
     128A      9.313508   129A      9.378206   130A      9.451585  
     131A      9.480909   132A      9.774679   133A      9.780893  
     134A      9.848759   135A      9.881675   136A      9.945303  
     137A     11.880149   138A     14.892704  

    Final Occupation by Irrep:
              A 
    DOCC [    10 ]
    NA   [    10 ]
    NB   [    10 ]

  @DF-RHF Final Energy:  -175.49182974109686

   => Energetics <=

    Nuclear Repulsion Energy =             28.4055979662338984
    One-Electron Energy =                -307.5622271219331196
    Two-Electron Energy =                 103.6647994146023422
    Total Energy =                       -175.4918297410968648

Computation Completed


Properties will be evaluated at   0.000000,   0.000000,   0.000000 [a0]

Properties computed using the SCF density matrix


 Multipole Moments:

 ------------------------------------------------------------------------------------
     Multipole            Electronic (a.u.)      Nuclear  (a.u.)        Total (a.u.)
 ------------------------------------------------------------------------------------

 L = 1.  Multiply by 2.5417464519 to convert [e a0] to [Debye]
 Dipole X            :        -45.9330288           41.8672395           -4.0657894
 Dipole Y            :         -1.4538430            2.0972275            0.6433845
 Dipole Z            :          0.7503941           -1.0398237           -0.2894296
 Magnitude           :                                                    4.1265429

 ------------------------------------------------------------------------------------

*** tstop() called on moses-razer at Wed Jan  3 15:52:12 2024
Module time:
	user time   =       3.22 seconds =       0.05 minutes
	system time =       0.13 seconds =       0.00 minutes
	total time  =          1 seconds =       0.02 minutes
Total time:
	user time   =       3.22 seconds =       0.05 minutes
	system time =       0.13 seconds =       0.00 minutes
	total time  =          1 seconds =       0.02 minutes

  //>>>>>>>>>>>>>>>>>>>>>>>>>>>>>>>>>>>//
  //            Monomer A HF           //
  //<<<<<<<<<<<<<<<<<<<<<<<<<<<<<<<<<<<//

   => Libint2 <=

    Primary   basis highest AM E, G, H:  5, 4, 3
    Auxiliary basis highest AM E, G, H:  6, 5, 4
    Onebody   basis highest AM E, G, H:  6, 5, 4
    Solid Harmonics ordering:            gaussian

*** tstart() called on moses-razer
*** at Wed Jan  3 15:52:12 2024

   => Loading Basis Set <=

    Name: AUG-CC-PVTZ
    Role: ORBITAL
    Keyword: BASIS
    atoms 1   entry O          line   331 file /home/kchung25/anaconda3/envs/p415env/share/psi4/basis/aug-cc-pvtz.gbs 
    atoms 2-3 entry H          line    40 file /home/kchung25/anaconda3/envs/p415env/share/psi4/basis/aug-cc-pvtz.gbs 
    atoms 4   entry F          line   377 file /home/kchung25/anaconda3/envs/p415env/share/psi4/basis/aug-cc-pvtz.gbs 


         ---------------------------------------------------------
                                   SCF
               by Justin Turney, Rob Parrish, Andy Simmonett
                          and Daniel G. A. Smith
                              RHF Reference
                        6 Threads,  57220 MiB Core
         ---------------------------------------------------------

  ==> Geometry <==

    Molecular point group: c1
    Full point group: C1

    Geometry (in Angstrom), charge = 0, multiplicity = 1:

       Center              X                  Y                   Z               Mass       
    ------------   -----------------  -----------------  -----------------  -----------------
         O            0.000000000000     0.000000000000     0.000000000000    15.994914619570
         H           -0.199018000000     0.870919000000     0.344710000000     1.007825032230
         H            0.516706000000     0.238886000000    -0.894961000000     1.007825032230
      Gh(F)           2.426389000000     0.000000000000     0.000000000000    18.998403162730

  Running in c1 symmetry.

  Rotational constants: A =      9.65319  B =      0.14927  C =      0.14900 [cm^-1]
  Rotational constants: A = 289395.29416  B =   4474.97770  C =   4467.00033 [MHz]
  Nuclear repulsion =    8.750492350016847

  Charge       = 0
  Multiplicity = 1
  Electrons    = 10
  Nalpha       = 5
  Nbeta        = 5

  ==> Algorithm <==

  SCF Algorithm Type is DF.
  DIIS enabled.
  MOM disabled.
  Fractional occupation disabled.
  Guess Type is SAD.
  Energy threshold   = 1.00e-08
  Density threshold  = 1.00e-08
  Integral threshold = 1.00e-12

  ==> Primary Basis <==

  Basis Set: AUG-CC-PVTZ
    Blend: AUG-CC-PVTZ
    Number of shells: 46
    Number of basis functions: 138
    Number of Cartesian functions: 160
    Spherical Harmonics?: true
    Max angular momentum: 3

   => Loading Basis Set <=

    Name: (AUG-CC-PVTZ AUX)
    Role: JKFIT
    Keyword: DF_BASIS_SCF
    atoms 1   entry O          line   286 file /home/kchung25/anaconda3/envs/p415env/share/psi4/basis/aug-cc-pvtz-jkfit.gbs 
    atoms 2-3 entry H          line    70 file /home/kchung25/anaconda3/envs/p415env/share/psi4/basis/aug-cc-pvtz-jkfit.gbs 
    atoms 4   entry F          line   348 file /home/kchung25/anaconda3/envs/p415env/share/psi4/basis/aug-cc-pvtz-jkfit.gbs 

  ==> Integral Setup <==

  ==> DiskDFJK: Density-Fitted J/K Matrices <==

    J tasked:                  Yes
    K tasked:                  Yes
    wK tasked:                  No
    OpenMP threads:              6
    Integrals threads:           6
    Memory [MiB]:            42915
    Algorithm:                Core
    Integral Cache:           LOAD
    Schwarz Cutoff:          1E-12
    Fitting Condition:       1E-10

   => Auxiliary Basis Set <=

  Basis Set: (AUG-CC-PVTZ AUX)
    Blend: AUG-CC-PVTZ-JKFIT
    Number of shells: 88
    Number of basis functions: 300
    Number of Cartesian functions: 372
    Spherical Harmonics?: true
    Max angular momentum: 4

  Minimum eigenvalue in the overlap matrix is 3.4541420992E-04.
  Reciprocal condition number of the overlap matrix is 4.6881787960E-05.
    Using symmetric orthogonalization.

  ==> Pre-Iterations <==

  SCF Guess: Superposition of Atomic Densities via on-the-fly atomic UHF (no occupation information).

   -------------------------
    Irrep   Nso     Nmo    
   -------------------------
     A        138     138 
   -------------------------
    Total     138     138
   -------------------------

  ==> Iterations <==

                           Total Energy        Delta E     RMS |[F,P]|

   @DF-RHF iter SAD:   -75.41814269557592   -7.54181e+01   0.00000e+00 
   @DF-RHF iter   1:   -75.95996096820120   -5.41818e-01   3.39445e-03 DIIS/ADIIS
   @DF-RHF iter   2:   -76.01152100041969   -5.15600e-02   2.46296e-03 DIIS/ADIIS
   @DF-RHF iter   3:   -76.04808420481784   -3.65632e-02   1.69629e-04 DIIS/ADIIS
   @DF-RHF iter   4:   -76.04857494643063   -4.90742e-04   4.57455e-05 DIIS
   @DF-RHF iter   5:   -76.04861582351438   -4.08771e-05   1.12467e-05 DIIS
   @DF-RHF iter   6:   -76.04861960332664   -3.77981e-06   2.44666e-06 DIIS
   @DF-RHF iter   7:   -76.04861979062599   -1.87299e-07   4.06725e-07 DIIS
   @DF-RHF iter   8:   -76.04861979498457   -4.35858e-09   7.62973e-08 DIIS
   @DF-RHF iter   9:   -76.04861979511841   -1.33838e-10   2.16765e-08 DIIS
   @DF-RHF iter  10:   -76.04861979512928   -1.08713e-11   4.12385e-09 DIIS
  Energy and wave function converged.


  ==> Post-Iterations <==

    Orbital Energies [Eh]
    ---------------------

    Doubly Occupied:                                                      

       1A    -20.576809     2A     -1.332624     3A     -0.686400  
       4A     -0.579380     5A     -0.507554  

    Virtual:                                                              

       6A      0.027804     7A      0.047416     8A      0.117888  
       9A      0.131623    10A      0.160664    11A      0.181931  
      12A      0.190825    13A      0.197441    14A      0.199966  
      15A      0.229438    16A      0.250811    17A      0.280489  
      18A      0.316451    19A      0.342465    20A      0.365313  
      21A      0.414026    22A      0.426050    23A      0.460453  
      24A      0.595289    25A      0.652036    26A      0.680598  
      27A      0.709700    28A      0.726198    29A      0.777110  
      30A      0.789982    31A      0.803017    32A      0.822885  
      33A      0.873948    34A      0.884135    35A      0.900191  
      36A      0.917764    37A      0.927271    38A      0.951296  
      39A      0.978766    40A      0.998427    41A      1.027828  
      42A      1.042768    43A      1.051848    44A      1.058387  
      45A      1.107850    46A      1.179494    47A      1.210017  
      48A      1.264065    49A      1.279961    50A      1.302844  
      51A      1.356497    52A      1.496283    53A      1.539338  
      54A      1.595359    55A      1.648433    56A      1.799294  
      57A      1.864844    58A      1.935776    59A      2.133136  
      60A      2.274335    61A      2.335760    62A      2.364268  
      63A      2.420302    64A      2.464866    65A      2.492386  
      66A      2.555549    67A      2.705834    68A      2.721930  
      69A      2.742438    70A      2.816519    71A      2.850309  
      72A      3.037902    73A      3.051260    74A      3.090948  
      75A      3.097255    76A      3.119446    77A      3.162288  
      78A      3.165848    79A      3.187729    80A      3.250193  
      81A      3.287647    82A      3.502298    83A      3.580273  
      84A      3.593281    85A      3.641147    86A      3.652281  
      87A      3.783028    88A      3.847845    89A      3.901064  
      90A      4.052877    91A      4.183288    92A      4.223015  
      93A      4.248997    94A      4.323507    95A      4.386834  
      96A      4.471875    97A      4.547448    98A      4.634634  
      99A      4.705805   100A      4.836810   101A      5.025399  
     102A      5.030820   103A      5.169511   104A      5.310255  
     105A      5.510386   106A      5.600349   107A      6.212067  
     108A      6.577105   109A      6.729570   110A      6.876637  
     111A      7.034539   112A      7.215865   113A      7.253184  
     114A      7.311278   115A      7.368909   116A      7.402954  
     117A      7.486474   118A      7.815635   119A      7.901411  
     120A      8.551908   121A      9.658902   122A     10.161051  
     123A     10.162992   124A     10.203253   125A     10.207359  
     126A     10.273853   127A     10.361387   128A     10.408749  
     129A     12.966603   130A     12.972710   131A     13.028396  
     132A     13.050193   133A     13.087758   134A     14.253330  
     135A     14.284462   136A     14.621278   137A     14.736690  
     138A     67.837434  

    Final Occupation by Irrep:
              A 
    DOCC [     5 ]
    NA   [     5 ]
    NB   [     5 ]

  @DF-RHF Final Energy:   -76.04861979512928

   => Energetics <=

    Nuclear Repulsion Energy =              8.7504923500168470
    One-Electron Energy =                -122.2326906378674494
    Two-Electron Energy =                  37.4335784927213240
    Total Energy =                        -76.0486197951292837

Computation Completed


Properties will be evaluated at   0.000000,   0.000000,   0.000000 [a0]

Properties computed using the SCF density matrix


 Multipole Moments:

 ------------------------------------------------------------------------------------
     Multipole            Electronic (a.u.)      Nuclear  (a.u.)        Total (a.u.)
 ------------------------------------------------------------------------------------

 L = 1.  Multiply by 2.5417464519 to convert [e a0] to [Debye]
 Dipole X            :         -0.4060463            0.6003433            0.1942970
 Dipole Y            :         -1.3794607            2.0972275            0.7177668
 Dipole Z            :          0.7032385           -1.0398237           -0.3365852
 Magnitude           :                                                    0.8162292

 ------------------------------------------------------------------------------------

*** tstop() called on moses-razer at Wed Jan  3 15:52:12 2024
Module time:
	user time   =       2.46 seconds =       0.04 minutes
	system time =       0.02 seconds =       0.00 minutes
	total time  =          0 seconds =       0.00 minutes
Total time:
	user time   =       5.71 seconds =       0.10 minutes
	system time =       0.15 seconds =       0.00 minutes
	total time  =          1 seconds =       0.02 minutes

  //>>>>>>>>>>>>>>>>>>>>>>>>>>>>>>>>>>>//
  //            Monomer B HF           //
  //<<<<<<<<<<<<<<<<<<<<<<<<<<<<<<<<<<<//

   => Libint2 <=

    Primary   basis highest AM E, G, H:  5, 4, 3
    Auxiliary basis highest AM E, G, H:  6, 5, 4
    Onebody   basis highest AM E, G, H:  6, 5, 4
    Solid Harmonics ordering:            gaussian

*** tstart() called on moses-razer
*** at Wed Jan  3 15:52:12 2024

   => Loading Basis Set <=

    Name: AUG-CC-PVTZ
    Role: ORBITAL
    Keyword: BASIS
    atoms 1   entry O          line   331 file /home/kchung25/anaconda3/envs/p415env/share/psi4/basis/aug-cc-pvtz.gbs 
    atoms 2-3 entry H          line    40 file /home/kchung25/anaconda3/envs/p415env/share/psi4/basis/aug-cc-pvtz.gbs 
    atoms 4   entry F          line   377 file /home/kchung25/anaconda3/envs/p415env/share/psi4/basis/aug-cc-pvtz.gbs 


         ---------------------------------------------------------
                                   SCF
               by Justin Turney, Rob Parrish, Andy Simmonett
                          and Daniel G. A. Smith
                              RHF Reference
                        6 Threads,  57220 MiB Core
         ---------------------------------------------------------

  ==> Geometry <==

    Molecular point group: c1
    Full point group: C1

    Geometry (in Angstrom), charge = -1, multiplicity = 1:

       Center              X                  Y                   Z               Mass       
    ------------   -----------------  -----------------  -----------------  -----------------
      Gh(O)           0.000000000000     0.000000000000     0.000000000000    15.994914619570
      Gh(H)          -0.199018000000     0.870919000000     0.344710000000     1.007825032230
      Gh(H)           0.516706000000     0.238886000000    -0.894961000000     1.007825032230
         F            2.426389000000     0.000000000000     0.000000000000    18.998403162730

  Running in c1 symmetry.

  Rotational constants: A =      9.65319  B =      0.14927  C =      0.14900 [cm^-1]
  Rotational constants: A = 289395.29416  B =   4474.97770  C =   4467.00033 [MHz]
  Nuclear repulsion =    0.000000000000000

  Charge       = -1
  Multiplicity = 1
  Electrons    = 10
  Nalpha       = 5
  Nbeta        = 5

  ==> Algorithm <==

  SCF Algorithm Type is DF.
  DIIS enabled.
  MOM disabled.
  Fractional occupation disabled.
  Guess Type is SAD.
  Energy threshold   = 1.00e-08
  Density threshold  = 1.00e-08
  Integral threshold = 1.00e-12

  ==> Primary Basis <==

  Basis Set: AUG-CC-PVTZ
    Blend: AUG-CC-PVTZ
    Number of shells: 46
    Number of basis functions: 138
    Number of Cartesian functions: 160
    Spherical Harmonics?: true
    Max angular momentum: 3

   => Loading Basis Set <=

    Name: (AUG-CC-PVTZ AUX)
    Role: JKFIT
    Keyword: DF_BASIS_SCF
    atoms 1   entry O          line   286 file /home/kchung25/anaconda3/envs/p415env/share/psi4/basis/aug-cc-pvtz-jkfit.gbs 
    atoms 2-3 entry H          line    70 file /home/kchung25/anaconda3/envs/p415env/share/psi4/basis/aug-cc-pvtz-jkfit.gbs 
    atoms 4   entry F          line   348 file /home/kchung25/anaconda3/envs/p415env/share/psi4/basis/aug-cc-pvtz-jkfit.gbs 

  ==> Integral Setup <==

  ==> DiskDFJK: Density-Fitted J/K Matrices <==

    J tasked:                  Yes
    K tasked:                  Yes
    wK tasked:                  No
    OpenMP threads:              6
    Integrals threads:           6
    Memory [MiB]:            42915
    Algorithm:                Core
    Integral Cache:           LOAD
    Schwarz Cutoff:          1E-12
    Fitting Condition:       1E-10

   => Auxiliary Basis Set <=

  Basis Set: (AUG-CC-PVTZ AUX)
    Blend: AUG-CC-PVTZ-JKFIT
    Number of shells: 88
    Number of basis functions: 300
    Number of Cartesian functions: 372
    Spherical Harmonics?: true
    Max angular momentum: 4

  Minimum eigenvalue in the overlap matrix is 3.4541420992E-04.
  Reciprocal condition number of the overlap matrix is 4.6881787960E-05.
    Using symmetric orthogonalization.

  ==> Pre-Iterations <==

  SCF Guess: Superposition of Atomic Densities via on-the-fly atomic UHF (no occupation information).

   -------------------------
    Irrep   Nso     Nmo    
   -------------------------
     A        138     138 
   -------------------------
    Total     138     138
   -------------------------

  ==> Iterations <==

                           Total Energy        Delta E     RMS |[F,P]|

   @DF-RHF iter SAD:   -98.82535134625783   -9.88254e+01   0.00000e+00 
   @DF-RHF iter   1:   -99.33789551810764   -5.12544e-01   3.95753e-03 DIIS/ADIIS
   @DF-RHF iter   2:   -99.37415653161283   -3.62610e-02   3.84298e-03 DIIS/ADIIS
   @DF-RHF iter   3:   -99.45079862097511   -7.66421e-02   1.21243e-04 DIIS/ADIIS
   @DF-RHF iter   4:   -99.45086193195884   -6.33110e-05   4.55801e-05 DIIS
   @DF-RHF iter   5:   -99.45087212682229   -1.01949e-05   3.51704e-06 DIIS
   @DF-RHF iter   6:   -99.45087226333081   -1.36509e-07   2.73187e-07 DIIS
   @DF-RHF iter   7:   -99.45087226450524   -1.17443e-09   4.56601e-08 DIIS
   @DF-RHF iter   8:   -99.45087226458497   -7.97371e-11   1.20955e-08 DIIS
   @DF-RHF iter   9:   -99.45087226459009   -5.11591e-12   1.33029e-09 DIIS
  Energy and wave function converged.


  ==> Post-Iterations <==

    Orbital Energies [Eh]
    ---------------------

    Doubly Occupied:                                                      

       1A    -25.833741     2A     -1.076030     3A     -0.181015  
       4A     -0.180962     5A     -0.180945  

    Virtual:                                                              

       6A      0.150265     7A      0.175295     8A      0.255635  
       9A      0.274108    10A      0.301502    11A      0.333841  
      12A      0.411212    13A      0.415341    14A      0.433456  
      15A      0.451222    16A      0.467806    17A      0.497390  
      18A      0.513614    19A      0.536006    20A      0.544205  
      21A      0.551070    22A      0.631215    23A      0.658362  
      24A      0.833605    25A      0.865086    26A      0.932775  
      27A      0.953833    28A      0.978572    29A      1.004037  
      30A      1.020987    31A      1.076979    32A      1.090087  
      33A      1.110656    34A      1.134577    35A      1.163242  
      36A      1.170171    37A      1.215738    38A      1.246642  
      39A      1.280583    40A      1.291079    41A      1.341529  
      42A      1.353136    43A      1.390935    44A      1.447422  
      45A      1.455377    46A      1.465100    47A      1.496030  
      48A      1.574572    49A      1.624294    50A      1.700669  
      51A      1.734067    52A      1.808594    53A      1.892262  
      54A      1.985155    55A      2.027184    56A      2.048141  
      57A      2.063886    58A      2.241949    59A      2.409980  
      60A      2.593704    61A      2.659643    62A      2.721122  
      63A      2.739477    64A      2.759515    65A      2.784315  
      66A      2.846704    67A      3.027166    68A      3.076850  
      69A      3.230014    70A      3.278826    71A      3.300329  
      72A      3.305057    73A      3.329000    74A      3.337196  
      75A      3.343344    76A      3.372386    77A      3.392576  
      78A      3.438850    79A      3.451082    80A      3.476197  
      81A      3.490239    82A      3.521326    83A      3.559942  
      84A      3.602465    85A      3.780367    86A      3.880358  
      87A      3.972448    88A      4.577451    89A      4.653165  
      90A      4.729042    91A      4.785815    92A      4.832208  
      93A      4.847096    94A      5.073953    95A      5.180012  
      96A      5.369739    97A      5.436285    98A      5.583181  
      99A      5.623184   100A      5.719231   101A      5.761330  
     102A      5.849439   103A      6.032830   104A      6.143252  
     105A      6.354588   106A      6.485971   107A      6.542070  
     108A      7.134628   109A      7.880958   110A      8.017181  
     111A      8.167976   112A      8.269926   113A      8.459629  
     114A      8.714279   115A      8.861673   116A      9.278735  
     117A      9.280943   118A      9.316278   119A      9.322792  
     120A      9.382751   121A      9.446229   122A      9.479827  
     123A      9.777944   124A      9.787604   125A      9.827379  
     126A      9.853110   127A      9.897340   128A      9.968628  
     129A     10.087758   130A     10.233615   131A     10.423348  
     132A     11.009474   133A     11.591859   134A     12.051511  
     135A     12.206634   136A     13.505338   137A     14.066436  
     138A     62.778428  

    Final Occupation by Irrep:
              A 
    DOCC [     5 ]
    NA   [     5 ]
    NB   [     5 ]

  @DF-RHF Final Energy:   -99.45087226459009

   => Energetics <=

    Nuclear Repulsion Energy =              0.0000000000000000
    One-Electron Energy =                -143.9963585874515672
    Two-Electron Energy =                  44.5454863228614784
    Total Energy =                        -99.4508722645900889

Computation Completed


Properties will be evaluated at   0.000000,   0.000000,   0.000000 [a0]

Properties computed using the SCF density matrix


 Multipole Moments:

 ------------------------------------------------------------------------------------
     Multipole            Electronic (a.u.)      Nuclear  (a.u.)        Total (a.u.)
 ------------------------------------------------------------------------------------

 L = 1.  Multiply by 2.5417464519 to convert [e a0] to [Debye]
 Dipole X            :        -45.8525219           41.2668962           -4.5856257
 Dipole Y            :         -0.0003566            0.0000000           -0.0003566
 Dipole Z            :         -0.0001235            0.0000000           -0.0001235
 Magnitude           :                                                    4.5856257

 ------------------------------------------------------------------------------------

*** tstop() called on moses-razer at Wed Jan  3 15:52:13 2024
Module time:
	user time   =       2.28 seconds =       0.04 minutes
	system time =       0.03 seconds =       0.00 minutes
	total time  =          1 seconds =       0.02 minutes
Total time:
	user time   =       8.01 seconds =       0.13 minutes
	system time =       0.19 seconds =       0.00 minutes
	total time  =          2 seconds =       0.03 minutes
  Constructing Basis Sets for SAPT...

   => Loading Basis Set <=

    Name: (AUG-CC-PVTZ AUX)
    Role: RIFIT
    Keyword: DF_BASIS_SAPT
    atoms 1   entry O          line   264 file /home/kchung25/anaconda3/envs/p415env/share/psi4/basis/aug-cc-pvtz-ri.gbs 
    atoms 2-3 entry H          line    30 file /home/kchung25/anaconda3/envs/p415env/share/psi4/basis/aug-cc-pvtz-ri.gbs 
    atoms 4   entry F          line   322 file /home/kchung25/anaconda3/envs/p415env/share/psi4/basis/aug-cc-pvtz-ri.gbs 

   => Loading Basis Set <=

    Name: (AUG-CC-PVTZ AUX)
    Role: JKFIT
    Keyword: DF_BASIS_ELST
    atoms 1   entry O          line   286 file /home/kchung25/anaconda3/envs/p415env/share/psi4/basis/aug-cc-pvtz-jkfit.gbs 
    atoms 2-3 entry H          line    70 file /home/kchung25/anaconda3/envs/p415env/share/psi4/basis/aug-cc-pvtz-jkfit.gbs 
    atoms 4   entry F          line   348 file /home/kchung25/anaconda3/envs/p415env/share/psi4/basis/aug-cc-pvtz-jkfit.gbs 


  //>>>>>>>>>>>>>>>>>>>>>>>>>>>>>>>>>>>//
  //               SAPT2+              //
  //<<<<<<<<<<<<<<<<<<<<<<<<<<<<<<<<<<<//


*** tstart() called on moses-razer
*** at Wed Jan  3 15:52:13 2024

        SAPT2+  
    Ed Hohenstein
     6 June 2009

      Orbital Information
  --------------------------
    NSO        =       138
    NMO        =       138
    NRI        =       304
    NOCC A     =         5
    NOCC B     =         5
    FOCC A     =         0
    FOCC B     =         0
    NVIR A     =       133
    NVIR B     =       133

    Estimated memory usage: 53.6 MB

    Natural Orbital Cutoff:   1.000E-06
    Disp(T3) Truncation:            Yes
    CCD (vv|vv) Truncation:         Yes
    MBPT T2 Truncation:             Yes

    Monomer A: 53 virtual orbitals dropped
    Monomer B: 80 virtual orbitals dropped

    Elst10,r            =    -0.009069930307 [Eh]
    Exch10 (S^2)        =     0.026691767861 [Eh]
    Exch10              =     0.026952462983 [Eh]
    Ind20,r (A<-B)      =    -0.009955824964 [Eh]
    Ind20,r (B<-A)      =    -0.010845111748 [Eh]
    Ind20,r             =    -0.020800936712 [Eh]
    Exch-Ind20,r (A<-B) =     0.002690509824 [Eh]
    Exch-Ind20,r (B<-A) =     0.010013230556 [Eh]
    Exch-Ind20,r        =     0.012703740380 [Eh]
    Disp20              =    -0.008275166514 [Eh]
    Disp20 (NO)         =    -0.006841392317 [Eh]
    Exch-Disp20         =     0.002729889904 [Eh]
    Elst12,r            =    -0.004546157672 [Eh]
    Exch11              =    -0.000431035914 [Eh]
    Exch12              =     0.008252153872 [Eh]
    Ind22               =    -0.006471714210 [Eh]
    Disp21              =     0.000319058162 [Eh]
    Disp22 (SDQ)        =    -0.001049827373 [Eh]

    (i =   1 of   5)          0 seconds
    (i =   2 of   5)          0 seconds
    (i =   3 of   5)          0 seconds
    (i =   4 of   5)          1 seconds
    (i =   5 of   5)          1 seconds

    Disp220 (T)         =    -0.000579518902 [Eh]

    (i =   1 of   5)          0 seconds
    (i =   2 of   5)          0 seconds
    (i =   3 of   5)          0 seconds
    (i =   4 of   5)          0 seconds
    (i =   5 of   5)          0 seconds

    Disp202 (T)         =    -0.000856951072 [Eh]

    Disp22 (T)          =    -0.001436469974 [Eh]

    Est. Disp220 (T)    =    -0.000700970678 [Eh]
    Est. Disp202 (T)    =    -0.001036545266 [Eh]

    Est. Disp22 (T)     =    -0.001737515944 [Eh]

    SAPT Results 
  --------------------------------------------------------------------------------------------------------
    Electrostatics                -13.61608798 [mEh]      -8.54422420 [kcal/mol]     -35.74903406 [kJ/mol]
      Elst10,r                     -9.06993031 [mEh]      -5.69146719 [kcal/mol]     -23.81309874 [kJ/mol]
      Elst12,r                     -4.54615767 [mEh]      -2.85275701 [kcal/mol]     -11.93593532 [kJ/mol]

    Exchange                       34.77358094 [mEh]      21.82075148 [kcal/mol]      91.29802419 [kJ/mol]
      Exch10                       26.95246298 [mEh]      16.91292586 [kcal/mol]      70.76368181 [kJ/mol]
      Exch10(S^2)                  26.69176786 [mEh]      16.74933720 [kcal/mol]      70.07922687 [kJ/mol]
      Exch11(S^2)                  -0.43103591 [mEh]      -0.27047912 [kcal/mol]      -1.13168464 [kJ/mol]
      Exch12(S^2)                   8.25215387 [mEh]       5.17830473 [kcal/mol]      21.66602701 [kJ/mol]

    Induction                     -12.73946313 [mEh]      -7.99413380 [kcal/mol]     -33.44745583 [kJ/mol]
      Ind20,r                     -20.80093671 [mEh]     -13.05278485 [kcal/mol]     -54.61285181 [kJ/mol]
      Ind22                        -6.47171421 [mEh]      -4.06106198 [kcal/mol]     -16.99148332 [kJ/mol]
      Exch-Ind20,r                 12.70374038 [mEh]       7.97171744 [kcal/mol]      33.35366577 [kJ/mol]
      Exch-Ind22                    3.95246514 [mEh]       2.48020932 [kcal/mol]      10.37719578 [kJ/mol]
      delta HF,r (2)               -2.12301772 [mEh]      -1.33221373 [kcal/mol]      -5.57398226 [kJ/mol]

    Dispersion                     -8.01356176 [mEh]      -5.02858593 [kcal/mol]     -21.03960351 [kJ/mol]
      Disp20                       -8.27516651 [mEh]      -5.19274538 [kcal/mol]     -21.72644669 [kJ/mol]
      Disp21                        0.31905816 [mEh]       0.20021202 [kcal/mol]       0.83768709 [kJ/mol]
      Disp22 (SDQ)                 -1.04982737 [mEh]      -0.65877662 [kcal/mol]      -2.75632139 [kJ/mol]
      Disp22 (T)                   -1.43646997 [mEh]      -0.90139852 [kcal/mol]      -3.77145140 [kJ/mol]
      Est. Disp22 (T)              -1.73751594 [mEh]      -1.09030772 [kcal/mol]      -4.56184748 [kJ/mol]
      Exch-Disp20                   2.72988990 [mEh]       1.71303178 [kcal/mol]       7.16732496 [kJ/mol]

  Total HF                          7.66231862 [mEh]       4.80817753 [kcal/mol]      20.11741477 [kJ/mol]
  Total SAPT0                       2.11704201 [mEh]       1.32846392 [kcal/mol]       5.55829304 [kJ/mol]
  Total SAPT2                       2.87275323 [mEh]       1.80267986 [kcal/mol]       7.54241255 [kJ/mol]
  Total SAPT2+                      0.40446807 [mEh]       0.25380755 [kcal/mol]       1.06193077 [kJ/mol]

  Special recipe for scaled SAPT0 (see Manual):
    Electrostatics sSAPT0          -9.06993031 [mEh]      -5.69146719 [kcal/mol]     -23.81309874 [kJ/mol]
    Exchange sSAPT0                26.95246298 [mEh]      16.91292586 [kcal/mol]      70.76368181 [kJ/mol]
    Induction sSAPT0               -9.84433924 [mEh]      -6.17741614 [kcal/mol]     -25.84630912 [kJ/mol]
    Dispersion sSAPT0              -5.46450537 [mEh]      -3.42902889 [kcal/mol]     -14.34705687 [kJ/mol]
  Total sSAPT0                      2.57368807 [mEh]       1.61501364 [kcal/mol]       6.75721708 [kJ/mol]
  --------------------------------------------------------------------------------------------------------

*** tstop() called on moses-razer at Wed Jan  3 15:52:16 2024
Module time:
	user time   =      17.03 seconds =       0.28 minutes
	system time =       0.99 seconds =       0.02 minutes
	total time  =          3 seconds =       0.05 minutes
Total time:
	user time   =      25.29 seconds =       0.42 minutes
	system time =       1.19 seconds =       0.02 minutes
	total time  =          5 seconds =       0.08 minutes

    Psi4 stopped on: Wednesday, 03 January 2024 03:52PM
    Psi4 wall time for execution: 0:00:04.56

*** Psi4 exiting successfully. Buy a developer a beer!
