
    -----------------------------------------------------------------------
          Psi4: An Open-Source Ab Initio Electronic Structure Package
                               Psi4 1.9 release

                         Git: Rev {} zzzzzzz 


    D. G. A. Smith, L. A. Burns, A. C. Simmonett, R. M. Parrish,
    M. C. Schieber, R. Galvelis, P. Kraus, H. Kruse, R. Di Remigio,
    A. Alenaizan, A. M. James, S. Lehtola, J. P. Misiewicz, M. Scheurer,
    R. A. Shaw, J. B. Schriber, Y. Xie, Z. L. Glick, D. A. Sirianni,
    J. S. O'Brien, J. M. Waldrop, A. Kumar, E. G. Hohenstein,
    B. P. Pritchard, B. R. Brooks, H. F. Schaefer III, A. Yu. Sokolov,
    K. Patkowski, A. E. DePrince III, U. Bozkaya, R. A. King,
    F. A. Evangelista, J. M. Turney, T. D. Crawford, C. D. Sherrill,
    J. Chem. Phys. 152(18) 184108 (2020). https://doi.org/10.1063/5.0006002

                            Additional Code Authors
    E. T. Seidl, C. L. Janssen, E. F. Valeev, M. L. Leininger,
    J. F. Gonthier, R. M. Richard, H. R. McAlexander, M. Saitow, X. Wang,
    P. Verma, M. H. Lechner, A. Jiang, S. Behnle, A. G. Heide,
    M. F. Herbst, and D. L. Poole

             Previous Authors, Complete List of Code Contributors,
                       and Citations for Specific Modules
    https://github.com/psi4/psi4/blob/master/codemeta.json
    https://github.com/psi4/psi4/graphs/contributors
    http://psicode.org/psi4manual/master/introduction.html#citing-psifour

    -----------------------------------------------------------------------


    Psi4 started on: Wednesday, 03 January 2024 04:15PM

    Process ID: 413366
    Host:       moses-razer
    PSIDATADIR: /home/kchung25/anaconda3/envs/psi4_19/share/psi4
    Memory:     500.0 MiB
    Threads:    6
    
  ==> Input File <==

--------------------------------------------------------------------------
MEMORY 60 GB

molecule dimer {
0 1
O      0.000000     0.000000     0.000000
H      0.310227     0.730363    -0.537329
H      0.307164    -0.769465    -0.532024
--
-1 1
Br     3.212066     0.000000     0.000000

units ang
no_reorient
no_com
symmetry c1
}

set {
basis        aug-cc-pVTZ
scf_type     df
}

energy("sapt2+")
--------------------------------------------------------------------------

  Memory set to  55.879 GiB by Python driver.

Scratch directory: /scratch/
   => Loading Basis Set <=

    Name: AUG-CC-PVTZ
    Role: ORBITAL
    Keyword: BASIS
    atoms 1   entry O          line   331 file /home/kchung25/anaconda3/envs/p415env/share/psi4/basis/aug-cc-pvtz.gbs 
    atoms 2-3 entry H          line    40 file /home/kchung25/anaconda3/envs/p415env/share/psi4/basis/aug-cc-pvtz.gbs 
    atoms 4   entry BR         line  4564 file /home/kchung25/anaconda3/envs/p415env/share/psi4/basis/aug-cc-pvtz.gbs 

   => Loading Basis Set <=

    Name: AUG-CC-PVTZ
    Role: ORBITAL
    Keyword: BASIS
    atoms 1   entry O          line   331 file /home/kchung25/anaconda3/envs/p415env/share/psi4/basis/aug-cc-pvtz.gbs 
    atoms 2-3 entry H          line    40 file /home/kchung25/anaconda3/envs/p415env/share/psi4/basis/aug-cc-pvtz.gbs 
    atoms 4   entry BR         line  4564 file /home/kchung25/anaconda3/envs/p415env/share/psi4/basis/aug-cc-pvtz.gbs 


  //>>>>>>>>>>>>>>>>>>>>>>>>>>>>>>>>>>>//
  //              Dimer HF             //
  //<<<<<<<<<<<<<<<<<<<<<<<<<<<<<<<<<<<//

   => Libint2 <=

    Primary   basis highest AM E, G, H:  5, 4, 3
    Auxiliary basis highest AM E, G, H:  6, 5, 4
    Onebody   basis highest AM E, G, H:  6, 5, 4
    Solid Harmonics ordering:            gaussian

*** tstart() called on moses-razer
*** at Wed Jan  3 16:15:19 2024

   => Loading Basis Set <=

    Name: AUG-CC-PVTZ
    Role: ORBITAL
    Keyword: BASIS
    atoms 1   entry O          line   331 file /home/kchung25/anaconda3/envs/p415env/share/psi4/basis/aug-cc-pvtz.gbs 
    atoms 2-3 entry H          line    40 file /home/kchung25/anaconda3/envs/p415env/share/psi4/basis/aug-cc-pvtz.gbs 
    atoms 4   entry BR         line  4564 file /home/kchung25/anaconda3/envs/p415env/share/psi4/basis/aug-cc-pvtz.gbs 


         ---------------------------------------------------------
                                   SCF
               by Justin Turney, Rob Parrish, Andy Simmonett
                          and Daniel G. A. Smith
                              RHF Reference
                        6 Threads,  57220 MiB Core
         ---------------------------------------------------------

  ==> Geometry <==

    Molecular point group: c1
    Full point group: C1

    Geometry (in Angstrom), charge = -1, multiplicity = 1:

       Center              X                  Y                   Z               Mass       
    ------------   -----------------  -----------------  -----------------  -----------------
         O            0.000000000000     0.000000000000     0.000000000000    15.994914619570
         H            0.310227000000     0.730363000000    -0.537329000000     1.007825032230
         H            0.307164000000    -0.769465000000    -0.532024000000     1.007825032230
         BR           3.212066000000     0.000000000000     0.000000000000    78.918337600000

  Running in c1 symmetry.

  Rotational constants: A =      9.85582  B =      0.02068  C =      0.02067 [cm^-1]
  Rotational constants: A = 295470.08224  B =    620.09897  C =    619.67375 [MHz]
  Nuclear repulsion =   67.359951120695072

  Charge       = -1
  Multiplicity = 1
  Electrons    = 46
  Nalpha       = 23
  Nbeta        = 23

  ==> Algorithm <==

  SCF Algorithm Type is DF.
  DIIS enabled.
  MOM disabled.
  Fractional occupation disabled.
  Guess Type is SAD.
  Energy threshold   = 1.00e-08
  Density threshold  = 1.00e-08
  Integral threshold = 1.00e-12

  ==> Primary Basis <==

  Basis Set: AUG-CC-PVTZ
    Blend: AUG-CC-PVTZ
    Number of shells: 51
    Number of basis functions: 151
    Number of Cartesian functions: 174
    Spherical Harmonics?: true
    Max angular momentum: 3

   => Loading Basis Set <=

    Name: (AUG-CC-PVTZ AUX)
    Role: JKFIT
    Keyword: DF_BASIS_SCF
    atoms 1   entry O          line   286 file /home/kchung25/anaconda3/envs/p415env/share/psi4/basis/aug-cc-pvtz-jkfit.gbs 
    atoms 2-3 entry H          line    70 file /home/kchung25/anaconda3/envs/p415env/share/psi4/basis/aug-cc-pvtz-jkfit.gbs 
    atoms 4   entry BR         line  1492 file /home/kchung25/anaconda3/envs/p415env/share/psi4/basis/aug-cc-pvtz-jkfit.gbs 

  ==> Integral Setup <==

  ==> DiskDFJK: Density-Fitted J/K Matrices <==

    J tasked:                  Yes
    K tasked:                  Yes
    wK tasked:                  No
    OpenMP threads:              6
    Integrals threads:           6
    Memory [MiB]:            42915
    Algorithm:                Core
    Integral Cache:           SAVE
    Schwarz Cutoff:          1E-12
    Fitting Condition:       1E-10

   => Auxiliary Basis Set <=

  Basis Set: (AUG-CC-PVTZ AUX)
    Blend: AUG-CC-PVTZ-JKFIT
    Number of shells: 116
    Number of basis functions: 444
    Number of Cartesian functions: 570
    Spherical Harmonics?: true
    Max angular momentum: 4

  Minimum eigenvalue in the overlap matrix is 3.5381034779E-04.
  Reciprocal condition number of the overlap matrix is 4.6915411476E-05.
    Using symmetric orthogonalization.

  ==> Pre-Iterations <==

  SCF Guess: Superposition of Atomic Densities via on-the-fly atomic UHF (no occupation information).

   -------------------------
    Irrep   Nso     Nmo    
   -------------------------
     A        151     151 
   -------------------------
    Total     151     151
   -------------------------

  ==> Iterations <==

                           Total Energy        Delta E     RMS |[F,P]|

   @DF-RHF iter SAD: -2645.91422152996256   -2.64591e+03   0.00000e+00 
   @DF-RHF iter   1: -2648.23744963900208   -2.32323e+00   7.58092e-03 ADIIS/DIIS
   @DF-RHF iter   2: -2648.49452320504815   -2.57074e-01   4.34321e-03 ADIIS/DIIS
   @DF-RHF iter   3: -2648.59129435994919   -9.67712e-02   2.43453e-04 ADIIS/DIIS
   @DF-RHF iter   4: -2648.59190868305677   -6.14323e-04   1.23941e-04 ADIIS/DIIS
   @DF-RHF iter   5: -2648.59204484557358   -1.36163e-04   2.04482e-05 DIIS
   @DF-RHF iter   6: -2648.59205702242843   -1.21769e-05   4.31437e-06 DIIS
   @DF-RHF iter   7: -2648.59205767537742   -6.52949e-07   1.16763e-06 DIIS
   @DF-RHF iter   8: -2648.59205771895313   -4.35757e-08   3.11649e-07 DIIS
   @DF-RHF iter   9: -2648.59205772234964   -3.39651e-09   7.11844e-08 DIIS
   @DF-RHF iter  10: -2648.59205772249925   -1.49612e-10   1.83426e-08 DIIS
   @DF-RHF iter  11: -2648.59205772251198   -1.27329e-11   4.02108e-09 DIIS
  Energy and wave function converged.


  ==> Post-Iterations <==

    Orbital Energies [Eh]
    ---------------------

    Doubly Occupied:                                                      

       1A   -489.724453     2A    -64.864673     3A    -58.219160  
       4A    -58.219158     5A    -58.219084     6A    -20.405769  
       7A     -9.537161     8A     -7.144650     9A     -7.144622  
      10A     -7.144303    11A     -2.886473    12A     -2.886472  
      13A     -2.886031    14A     -2.886007    15A     -2.885868  
      16A     -1.185483    17A     -0.692524    18A     -0.541160  
      19A     -0.429233    20A     -0.349072    21A     -0.146040  
      22A     -0.145716    23A     -0.142210  

    Virtual:                                                              

      24A      0.143859    25A      0.153406    26A      0.238070  
      27A      0.244875    28A      0.258298    29A      0.270144  
      30A      0.290671    31A      0.302152    32A      0.308662  
      33A      0.360215    34A      0.363504    35A      0.387845  
      36A      0.431844    37A      0.453510    38A      0.490990  
      39A      0.498687    40A      0.514025    41A      0.538675  
      42A      0.556394    43A      0.572096    44A      0.576659  
      45A      0.593531    46A      0.619466    47A      0.742142  
      48A      0.752683    49A      0.761867    50A      0.779908  
      51A      0.825968    52A      0.871685    53A      0.888284  
      54A      0.888626    55A      0.975621    56A      0.993298  
      57A      1.022567    58A      1.025120    59A      1.033106  
      60A      1.033717    61A      1.052485    62A      1.059420  
      63A      1.066306    64A      1.090978    65A      1.108324  
      66A      1.128479    67A      1.151748    68A      1.182743  
      69A      1.187479    70A      1.196800    71A      1.205713  
      72A      1.207242    73A      1.242557    74A      1.261438  
      75A      1.305528    76A      1.329040    77A      1.352794  
      78A      1.385578    79A      1.444626    80A      1.492929  
      81A      1.581009    82A      1.596627    83A      1.689427  
      84A      1.700013    85A      1.826696    86A      2.000046  
      87A      2.020998    88A      2.134753    89A      2.292208  
      90A      2.408590    91A      2.416879    92A      2.419633  
      93A      2.469305    94A      2.471462    95A      2.498714  
      96A      2.563754    97A      2.564659    98A      2.570936  
      99A      2.577414   100A      2.583326   101A      2.591305  
     102A      2.596307   103A      2.612117   104A      2.622984  
     105A      2.645865   106A      2.661739   107A      2.668138  
     108A      2.721045   109A      2.737247   110A      2.815193  
     111A      2.842537   112A      2.859202   113A      2.942567  
     114A      2.961619   115A      2.980603   116A      3.062974  
     117A      3.840260   118A      3.915049   119A      4.101768  
     120A      4.247212   121A      4.304895   122A      4.325703  
     123A      4.421746   124A      4.500139   125A      4.544398  
     126A      4.600203   127A      4.667150   128A      4.689171  
     129A      4.900968   130A      5.007632   131A      5.282962  
     132A      5.344302   133A      5.374412   134A      5.484165  
     135A      5.696178   136A      5.780770   137A      6.415367  
     138A      6.682161   139A      6.909084   140A      7.098236  
     141A      7.294891   142A      7.392817   143A      7.443084  
     144A      7.487919   145A      7.522401   146A      7.579365  
     147A      7.672457   148A      8.010884   149A      8.085904  
     150A      8.938427   151A     15.748319  

    Final Occupation by Irrep:
              A 
    DOCC [    23 ]
    NA   [    23 ]
    NB   [    23 ]

  @DF-RHF Final Energy: -2648.59205772251198

   => Energetics <=

    Nuclear Repulsion Energy =             67.3599511206950723
    One-Electron Energy =               -3834.5333774325945342
    Two-Electron Energy =                1118.5813685893879210
    Total Energy =                      -2648.5920577225115267

Computation Completed


Properties will be evaluated at   0.000000,   0.000000,   0.000000 [a0]

Properties computed using the SCF density matrix


 Multipole Moments:

 ------------------------------------------------------------------------------------
     Multipole            Electronic (a.u.)      Nuclear  (a.u.)        Total (a.u.)
 ------------------------------------------------------------------------------------

 L = 1.  Multiply by 2.5417464519 to convert [e a0] to [Debye]
 Dipole X            :       -219.1254085          213.6140762           -5.5113323
 Dipole Y            :          0.0552903           -0.0738921           -0.0186018
 Dipole Z            :          1.4634427           -2.0207843           -0.5573416
 Magnitude           :                                                    5.5394728

 ------------------------------------------------------------------------------------

*** tstop() called on moses-razer at Wed Jan  3 16:15:21 2024
Module time:
	user time   =       7.92 seconds =       0.13 minutes
	system time =       0.96 seconds =       0.02 minutes
	total time  =          2 seconds =       0.03 minutes
Total time:
	user time   =       7.92 seconds =       0.13 minutes
	system time =       0.96 seconds =       0.02 minutes
	total time  =          2 seconds =       0.03 minutes

  //>>>>>>>>>>>>>>>>>>>>>>>>>>>>>>>>>>>//
  //            Monomer A HF           //
  //<<<<<<<<<<<<<<<<<<<<<<<<<<<<<<<<<<<//

   => Libint2 <=

    Primary   basis highest AM E, G, H:  5, 4, 3
    Auxiliary basis highest AM E, G, H:  6, 5, 4
    Onebody   basis highest AM E, G, H:  6, 5, 4
    Solid Harmonics ordering:            gaussian

*** tstart() called on moses-razer
*** at Wed Jan  3 16:15:21 2024

   => Loading Basis Set <=

    Name: AUG-CC-PVTZ
    Role: ORBITAL
    Keyword: BASIS
    atoms 1   entry O          line   331 file /home/kchung25/anaconda3/envs/p415env/share/psi4/basis/aug-cc-pvtz.gbs 
    atoms 2-3 entry H          line    40 file /home/kchung25/anaconda3/envs/p415env/share/psi4/basis/aug-cc-pvtz.gbs 
    atoms 4   entry BR         line  4564 file /home/kchung25/anaconda3/envs/p415env/share/psi4/basis/aug-cc-pvtz.gbs 


         ---------------------------------------------------------
                                   SCF
               by Justin Turney, Rob Parrish, Andy Simmonett
                          and Daniel G. A. Smith
                              RHF Reference
                        6 Threads,  57220 MiB Core
         ---------------------------------------------------------

  ==> Geometry <==

    Molecular point group: c1
    Full point group: C1

    Geometry (in Angstrom), charge = 0, multiplicity = 1:

       Center              X                  Y                   Z               Mass       
    ------------   -----------------  -----------------  -----------------  -----------------
         O            0.000000000000     0.000000000000     0.000000000000    15.994914619570
         H            0.310227000000     0.730363000000    -0.537329000000     1.007825032230
         H            0.307164000000    -0.769465000000    -0.532024000000     1.007825032230
      Gh(BR)          3.212066000000     0.000000000000     0.000000000000    78.918337600000

  Running in c1 symmetry.

  Rotational constants: A =      9.85582  B =      0.02068  C =      0.02067 [cm^-1]
  Rotational constants: A = 295470.08224  B =    620.09897  C =    619.67375 [MHz]
  Nuclear repulsion =    9.069870976523962

  Charge       = 0
  Multiplicity = 1
  Electrons    = 10
  Nalpha       = 5
  Nbeta        = 5

  ==> Algorithm <==

  SCF Algorithm Type is DF.
  DIIS enabled.
  MOM disabled.
  Fractional occupation disabled.
  Guess Type is SAD.
  Energy threshold   = 1.00e-08
  Density threshold  = 1.00e-08
  Integral threshold = 1.00e-12

  ==> Primary Basis <==

  Basis Set: AUG-CC-PVTZ
    Blend: AUG-CC-PVTZ
    Number of shells: 51
    Number of basis functions: 151
    Number of Cartesian functions: 174
    Spherical Harmonics?: true
    Max angular momentum: 3

   => Loading Basis Set <=

    Name: (AUG-CC-PVTZ AUX)
    Role: JKFIT
    Keyword: DF_BASIS_SCF
    atoms 1   entry O          line   286 file /home/kchung25/anaconda3/envs/p415env/share/psi4/basis/aug-cc-pvtz-jkfit.gbs 
    atoms 2-3 entry H          line    70 file /home/kchung25/anaconda3/envs/p415env/share/psi4/basis/aug-cc-pvtz-jkfit.gbs 
    atoms 4   entry BR         line  1492 file /home/kchung25/anaconda3/envs/p415env/share/psi4/basis/aug-cc-pvtz-jkfit.gbs 

  ==> Integral Setup <==

  ==> DiskDFJK: Density-Fitted J/K Matrices <==

    J tasked:                  Yes
    K tasked:                  Yes
    wK tasked:                  No
    OpenMP threads:              6
    Integrals threads:           6
    Memory [MiB]:            42915
    Algorithm:                Core
    Integral Cache:           LOAD
    Schwarz Cutoff:          1E-12
    Fitting Condition:       1E-10

   => Auxiliary Basis Set <=

  Basis Set: (AUG-CC-PVTZ AUX)
    Blend: AUG-CC-PVTZ-JKFIT
    Number of shells: 116
    Number of basis functions: 444
    Number of Cartesian functions: 570
    Spherical Harmonics?: true
    Max angular momentum: 4

  Minimum eigenvalue in the overlap matrix is 3.5381034779E-04.
  Reciprocal condition number of the overlap matrix is 4.6915411476E-05.
    Using symmetric orthogonalization.

  ==> Pre-Iterations <==

  SCF Guess: Superposition of Atomic Densities via on-the-fly atomic UHF (no occupation information).

   -------------------------
    Irrep   Nso     Nmo    
   -------------------------
     A        151     151 
   -------------------------
    Total     151     151
   -------------------------

  ==> Iterations <==

                           Total Energy        Delta E     RMS |[F,P]|

   @DF-RHF iter SAD:   -75.46503822630937   -7.54650e+01   0.00000e+00 
   @DF-RHF iter   1:   -75.97318879267237   -5.08151e-01   3.09796e-03 ADIIS/DIIS
   @DF-RHF iter   2:   -76.02542078106652   -5.22320e-02   2.14852e-03 ADIIS/DIIS
   @DF-RHF iter   3:   -76.05810567201931   -3.26849e-02   1.46763e-04 ADIIS/DIIS
   @DF-RHF iter   4:   -76.05851240373283   -4.06732e-04   3.58795e-05 DIIS
   @DF-RHF iter   5:   -76.05853965647113   -2.72527e-05   8.37728e-06 DIIS
   @DF-RHF iter   6:   -76.05854196871458   -2.31224e-06   1.81767e-06 DIIS
   @DF-RHF iter   7:   -76.05854208630980   -1.17595e-07   3.10109e-07 DIIS
   @DF-RHF iter   8:   -76.05854208925169   -2.94189e-09   5.21171e-08 DIIS
   @DF-RHF iter   9:   -76.05854208931726   -6.55689e-11   1.28217e-08 DIIS
   @DF-RHF iter  10:   -76.05854208932138   -4.12115e-12   2.07519e-09 DIIS
  Energy and wave function converged.


  ==> Post-Iterations <==

    Orbital Energies [Eh]
    ---------------------

    Doubly Occupied:                                                      

       1A    -20.571160     2A     -1.348980     3A     -0.703463  
       4A     -0.588903     5A     -0.510239  

    Virtual:                                                              

       6A      0.026220     7A      0.047652     8A      0.065293  
       9A      0.077701    10A      0.092454    11A      0.104094  
      12A      0.144299    13A      0.181105    14A      0.183458  
      15A      0.205822    16A      0.220671    17A      0.243778  
      18A      0.285557    19A      0.290373    20A      0.300934  
      21A      0.315794    22A      0.325508    23A      0.330903  
      24A      0.343689    25A      0.347475    26A      0.378380  
      27A      0.414569    28A      0.425003    29A      0.440792  
      30A      0.448857    31A      0.470066    32A      0.492217  
      33A      0.611998    34A      0.669489    35A      0.720796  
      36A      0.738306    37A      0.772433    38A      0.834566  
      39A      0.875584    40A      0.885912    41A      0.895883  
      42A      0.925147    43A      0.949873    44A      0.957600  
      45A      0.971354    46A      0.995234    47A      0.999483  
      48A      1.019059    49A      1.035095    50A      1.041973  
      51A      1.050830    52A      1.053867    53A      1.082378  
      54A      1.090018    55A      1.093395    56A      1.111671  
      57A      1.116144    58A      1.129833    59A      1.139876  
      60A      1.162672    61A      1.170758    62A      1.230540  
      63A      1.233405    64A      1.278188    65A      1.299593  
      66A      1.355726    67A      1.450414    68A      1.492064  
      69A      1.532714    70A      1.549143    71A      1.697546  
      72A      1.841349    73A      1.866829    74A      1.978486  
      75A      2.144136    76A      2.300510    77A      2.335642  
      78A      2.350964    79A      2.453179    80A      2.483030  
      81A      2.519990    82A      2.581104    83A      2.688199  
      84A      2.755051    85A      2.779598    86A      2.790899  
      87A      2.863966    88A      2.870623    89A      2.899010  
      90A      2.940640    91A      2.990459    92A      3.124719  
      93A      3.125679    94A      3.155582    95A      3.156232  
      96A      3.219540    97A      3.267745    98A      3.293061  
      99A      3.293268   100A      3.318722   101A      3.333262  
     102A      3.376299   103A      3.433039   104A      3.680803  
     105A      3.824603   106A      4.085558   107A      4.142974  
     108A      4.153525   109A      4.259706   110A      4.331832  
     111A      4.382267   112A      4.431316   113A      4.497577  
     114A      4.527005   115A      4.738980   116A      4.845162  
     117A      5.119965   118A      5.181679   119A      5.213845  
     120A      5.320248   121A      5.532153   122A      5.619536  
     123A      6.253097   124A      6.520156   125A      6.745003  
     126A      6.935100   127A      7.132891   128A      7.231548  
     129A      7.279730   130A      7.325503   131A      7.359184  
     132A      7.413816   133A      7.509410   134A      7.848754  
     135A      7.924251   136A      8.774877   137A      9.407664  
     138A     13.452797   139A     13.463123   140A     13.561624  
     141A     15.586654   142A     26.136095   143A     26.136483  
     144A     26.159051   145A     26.175580   146A     26.263721  
     147A     45.362647   148A    138.402588   149A    138.419219  
     150A    138.569851   151A    708.332454  

    Final Occupation by Irrep:
              A 
    DOCC [     5 ]
    NA   [     5 ]
    NB   [     5 ]

  @DF-RHF Final Energy:   -76.05854208932138

   => Energetics <=

    Nuclear Repulsion Energy =              9.0698709765239620
    One-Electron Energy =                -122.8113352373041778
    Two-Electron Energy =                  37.6829221714588414
    Total Energy =                        -76.0585420893213779

Computation Completed


Properties will be evaluated at   0.000000,   0.000000,   0.000000 [a0]

Properties computed using the SCF density matrix


 Multipole Moments:

 ------------------------------------------------------------------------------------
     Multipole            Electronic (a.u.)      Nuclear  (a.u.)        Total (a.u.)
 ------------------------------------------------------------------------------------

 L = 1.  Multiply by 2.5417464519 to convert [e a0] to [Debye]
 Dipole X            :         -0.7633694            1.1666999            0.4033305
 Dipole Y            :          0.0533773           -0.0738921           -0.0205148
 Dipole Z            :          1.3222404           -2.0207843           -0.6985439
 Magnitude           :                                                    0.8068829

 ------------------------------------------------------------------------------------

*** tstop() called on moses-razer at Wed Jan  3 16:15:23 2024
Module time:
	user time   =       4.05 seconds =       0.07 minutes
	system time =       0.39 seconds =       0.01 minutes
	total time  =          2 seconds =       0.03 minutes
Total time:
	user time   =      11.99 seconds =       0.20 minutes
	system time =       1.35 seconds =       0.02 minutes
	total time  =          4 seconds =       0.07 minutes

  //>>>>>>>>>>>>>>>>>>>>>>>>>>>>>>>>>>>//
  //            Monomer B HF           //
  //<<<<<<<<<<<<<<<<<<<<<<<<<<<<<<<<<<<//

   => Libint2 <=

    Primary   basis highest AM E, G, H:  5, 4, 3
    Auxiliary basis highest AM E, G, H:  6, 5, 4
    Onebody   basis highest AM E, G, H:  6, 5, 4
    Solid Harmonics ordering:            gaussian

*** tstart() called on moses-razer
*** at Wed Jan  3 16:15:23 2024

   => Loading Basis Set <=

    Name: AUG-CC-PVTZ
    Role: ORBITAL
    Keyword: BASIS
    atoms 1   entry O          line   331 file /home/kchung25/anaconda3/envs/p415env/share/psi4/basis/aug-cc-pvtz.gbs 
    atoms 2-3 entry H          line    40 file /home/kchung25/anaconda3/envs/p415env/share/psi4/basis/aug-cc-pvtz.gbs 
    atoms 4   entry BR         line  4564 file /home/kchung25/anaconda3/envs/p415env/share/psi4/basis/aug-cc-pvtz.gbs 


         ---------------------------------------------------------
                                   SCF
               by Justin Turney, Rob Parrish, Andy Simmonett
                          and Daniel G. A. Smith
                              RHF Reference
                        6 Threads,  57220 MiB Core
         ---------------------------------------------------------

  ==> Geometry <==

    Molecular point group: c1
    Full point group: C1

    Geometry (in Angstrom), charge = -1, multiplicity = 1:

       Center              X                  Y                   Z               Mass       
    ------------   -----------------  -----------------  -----------------  -----------------
      Gh(O)           0.000000000000     0.000000000000     0.000000000000    15.994914619570
      Gh(H)           0.310227000000     0.730363000000    -0.537329000000     1.007825032230
      Gh(H)           0.307164000000    -0.769465000000    -0.532024000000     1.007825032230
         BR           3.212066000000     0.000000000000     0.000000000000    78.918337600000

  Running in c1 symmetry.

  Rotational constants: A =      9.85582  B =      0.02068  C =      0.02067 [cm^-1]
  Rotational constants: A = 295470.08224  B =    620.09897  C =    619.67375 [MHz]
  Nuclear repulsion =    0.000000000000000

  Charge       = -1
  Multiplicity = 1
  Electrons    = 36
  Nalpha       = 18
  Nbeta        = 18

  ==> Algorithm <==

  SCF Algorithm Type is DF.
  DIIS enabled.
  MOM disabled.
  Fractional occupation disabled.
  Guess Type is SAD.
  Energy threshold   = 1.00e-08
  Density threshold  = 1.00e-08
  Integral threshold = 1.00e-12

  ==> Primary Basis <==

  Basis Set: AUG-CC-PVTZ
    Blend: AUG-CC-PVTZ
    Number of shells: 51
    Number of basis functions: 151
    Number of Cartesian functions: 174
    Spherical Harmonics?: true
    Max angular momentum: 3

   => Loading Basis Set <=

    Name: (AUG-CC-PVTZ AUX)
    Role: JKFIT
    Keyword: DF_BASIS_SCF
    atoms 1   entry O          line   286 file /home/kchung25/anaconda3/envs/p415env/share/psi4/basis/aug-cc-pvtz-jkfit.gbs 
    atoms 2-3 entry H          line    70 file /home/kchung25/anaconda3/envs/p415env/share/psi4/basis/aug-cc-pvtz-jkfit.gbs 
    atoms 4   entry BR         line  1492 file /home/kchung25/anaconda3/envs/p415env/share/psi4/basis/aug-cc-pvtz-jkfit.gbs 

  ==> Integral Setup <==

  ==> DiskDFJK: Density-Fitted J/K Matrices <==

    J tasked:                  Yes
    K tasked:                  Yes
    wK tasked:                  No
    OpenMP threads:              6
    Integrals threads:           6
    Memory [MiB]:            42915
    Algorithm:                Core
    Integral Cache:           LOAD
    Schwarz Cutoff:          1E-12
    Fitting Condition:       1E-10

   => Auxiliary Basis Set <=

  Basis Set: (AUG-CC-PVTZ AUX)
    Blend: AUG-CC-PVTZ-JKFIT
    Number of shells: 116
    Number of basis functions: 444
    Number of Cartesian functions: 570
    Spherical Harmonics?: true
    Max angular momentum: 4

  Minimum eigenvalue in the overlap matrix is 3.5381034779E-04.
  Reciprocal condition number of the overlap matrix is 4.6915411476E-05.
    Using symmetric orthogonalization.

  ==> Pre-Iterations <==

  SCF Guess: Superposition of Atomic Densities via on-the-fly atomic UHF (no occupation information).

   -------------------------
    Irrep   Nso     Nmo    
   -------------------------
     A        151     151 
   -------------------------
    Total     151     151
   -------------------------

  ==> Iterations <==

                           Total Energy        Delta E     RMS |[F,P]|

   @DF-RHF iter SAD: -2570.41423528168752   -2.57041e+03   0.00000e+00 
   @DF-RHF iter   1: -2572.25552763493033   -1.84129e+00   6.95888e-03 ADIIS/DIIS
   @DF-RHF iter   2: -2572.46456791209448   -2.09040e-01   3.86253e-03 ADIIS/DIIS
   @DF-RHF iter   3: -2572.53364020534627   -6.90723e-02   6.33112e-05 DIIS
   @DF-RHF iter   4: -2572.53367434833763   -3.41430e-05   7.36965e-06 DIIS
   @DF-RHF iter   5: -2572.53367547693097   -1.12859e-06   1.88794e-06 DIIS
   @DF-RHF iter   6: -2572.53367555308250   -7.61515e-08   3.51914e-07 DIIS
   @DF-RHF iter   7: -2572.53367556243938   -9.35688e-09   3.21685e-08 DIIS
   @DF-RHF iter   8: -2572.53367556252670   -8.73115e-11   1.00980e-08 DIIS
   @DF-RHF iter   9: -2572.53367556253443   -7.73070e-12   2.23683e-09 DIIS
  Energy and wave function converged.


  ==> Post-Iterations <==

    Orbital Energies [Eh]
    ---------------------

    Doubly Occupied:                                                      

       1A   -489.720545     2A    -64.860582     3A    -58.215059  
       4A    -58.215059     5A    -58.215057     6A     -9.532892  
       7A     -7.140237     8A     -7.140236     9A     -7.140226  
      10A     -2.881906    11A     -2.881906    12A     -2.881905  
      13A     -2.881903    14A     -2.881892    15A     -0.685997  
      16A     -0.139337    17A     -0.139335    18A     -0.139335  

    Virtual:                                                              

      19A      0.140818    20A      0.155811    21A      0.227058  
      22A      0.245442    23A      0.260200    24A      0.261323  
      25A      0.266228    26A      0.289333    27A      0.293126  
      28A      0.359180    29A      0.391863    30A      0.410980  
      31A      0.448880    32A      0.449304    33A      0.495742  
      34A      0.498005    35A      0.508383    36A      0.514797  
      37A      0.528593    38A      0.543713    39A      0.559645  
      40A      0.591311    41A      0.613568    42A      0.745012  
      43A      0.765465    44A      0.772920    45A      0.816227  
      46A      0.878032    47A      0.906581    48A      0.910892  
      49A      0.927520    50A      0.942035    51A      0.953909  
      52A      0.988025    53A      1.031916    54A      1.039587  
      55A      1.041932    56A      1.048363    57A      1.060592  
      58A      1.063462    59A      1.083511    60A      1.111140  
      61A      1.112499    62A      1.141180    63A      1.165440  
      64A      1.195891    65A      1.206375    66A      1.214894  
      67A      1.217454    68A      1.273031    69A      1.285445  
      70A      1.334059    71A      1.353537    72A      1.388797  
      73A      1.397012    74A      1.442159    75A      1.595087  
      76A      1.608097    77A      1.641120    78A      1.671296  
      79A      1.858177    80A      1.900862    81A      1.957897  
      82A      1.991300    83A      2.012202    84A      2.241593  
      85A      2.414361    86A      2.427441    87A      2.457549  
      88A      2.499763    89A      2.567358    90A      2.568351  
      91A      2.573064    92A      2.578848    93A      2.585933  
      94A      2.589296    95A      2.594605    96A      2.611569  
      97A      2.613534    98A      2.623375    99A      2.685810  
     100A      2.708944   101A      2.724774   102A      2.733726  
     103A      2.757154   104A      2.782127   105A      2.787426  
     106A      2.887251   107A      2.999107   108A      3.008643  
     109A      3.300365   110A      3.340571   111A      3.385766  
     112A      3.467878   113A      3.507580   114A      3.706154  
     115A      3.826013   116A      4.112503   117A      4.558924  
     118A      4.633050   119A      4.652845   120A      4.763888  
     121A      4.830649   122A      4.883743   123A      5.046195  
     124A      5.049424   125A      5.201921   126A      5.382224  
     127A      5.709715   128A      5.734187   129A      5.819052  
     130A      6.025463   131A      6.260517   132A      6.526466  
     133A      6.700277   134A      7.182607   135A      7.853985  
     136A      8.019471   137A      8.195185   138A      8.262673  
     139A      8.441807   140A      8.803920   141A      8.957637  
     142A      9.852716   143A     10.034882   144A     10.145307  
     145A     10.392373   146A     11.337211   147A     11.784379  
     148A     12.159532   149A     13.656781   150A     13.935444  
     151A     64.356553  

    Final Occupation by Irrep:
              A 
    DOCC [    18 ]
    NA   [    18 ]
    NB   [    18 ]

  @DF-RHF Final Energy: -2572.53367556253443

   => Energetics <=

    Nuclear Repulsion Energy =              0.0000000000000000
    One-Electron Energy =               -3593.6805289120979978
    Two-Electron Energy =                1021.1468533495635711
    Total Energy =                      -2572.5336755625344267

Computation Completed


Properties will be evaluated at   0.000000,   0.000000,   0.000000 [a0]

Properties computed using the SCF density matrix


 Multipole Moments:

 ------------------------------------------------------------------------------------
     Multipole            Electronic (a.u.)      Nuclear  (a.u.)        Total (a.u.)
 ------------------------------------------------------------------------------------

 L = 1.  Multiply by 2.5417464519 to convert [e a0] to [Debye]
 Dipole X            :       -218.5172462          212.4473763           -6.0698699
 Dipole Y            :          0.0000010            0.0000000            0.0000010
 Dipole Z            :          0.0000268            0.0000000            0.0000268
 Magnitude           :                                                    6.0698699

 ------------------------------------------------------------------------------------

*** tstop() called on moses-razer at Wed Jan  3 16:15:25 2024
Module time:
	user time   =       6.16 seconds =       0.10 minutes
	system time =       0.88 seconds =       0.01 minutes
	total time  =          2 seconds =       0.03 minutes
Total time:
	user time   =      18.17 seconds =       0.30 minutes
	system time =       2.23 seconds =       0.04 minutes
	total time  =          6 seconds =       0.10 minutes
  Constructing Basis Sets for SAPT...

   => Loading Basis Set <=

    Name: (AUG-CC-PVTZ AUX)
    Role: RIFIT
    Keyword: DF_BASIS_SAPT
    atoms 1   entry O          line   264 file /home/kchung25/anaconda3/envs/p415env/share/psi4/basis/aug-cc-pvtz-ri.gbs 
    atoms 2-3 entry H          line    30 file /home/kchung25/anaconda3/envs/p415env/share/psi4/basis/aug-cc-pvtz-ri.gbs 
    atoms 4   entry BR         line  1248 file /home/kchung25/anaconda3/envs/p415env/share/psi4/basis/aug-cc-pvtz-ri.gbs 

   => Loading Basis Set <=

    Name: (AUG-CC-PVTZ AUX)
    Role: JKFIT
    Keyword: DF_BASIS_ELST
    atoms 1   entry O          line   286 file /home/kchung25/anaconda3/envs/p415env/share/psi4/basis/aug-cc-pvtz-jkfit.gbs 
    atoms 2-3 entry H          line    70 file /home/kchung25/anaconda3/envs/p415env/share/psi4/basis/aug-cc-pvtz-jkfit.gbs 
    atoms 4   entry BR         line  1492 file /home/kchung25/anaconda3/envs/p415env/share/psi4/basis/aug-cc-pvtz-jkfit.gbs 


  //>>>>>>>>>>>>>>>>>>>>>>>>>>>>>>>>>>>//
  //               SAPT2+              //
  //<<<<<<<<<<<<<<<<<<<<<<<<<<<<<<<<<<<//


*** tstart() called on moses-razer
*** at Wed Jan  3 16:15:25 2024

        SAPT2+  
    Ed Hohenstein
     6 June 2009

      Orbital Information
  --------------------------
    NSO        =       151
    NMO        =       151
    NRI        =       389
    NOCC A     =         5
    NOCC B     =        18
    FOCC A     =         0
    FOCC B     =         0
    NVIR A     =       146
    NVIR B     =       133

    Estimated memory usage: 232.1 MB

    Natural Orbital Cutoff:   1.000E-06
    Disp(T3) Truncation:            Yes
    CCD (vv|vv) Truncation:         Yes
    MBPT T2 Truncation:             Yes

    Monomer A: 68 virtual orbitals dropped
    Monomer B: 79 virtual orbitals dropped

    Elst10,r            =    -0.010349824149 [Eh]
    Exch10 (S^2)        =     0.013723555958 [Eh]
    Exch10              =     0.013834916116 [Eh]
    Ind20,r (A<-B)      =    -0.004300161200 [Eh]
    Ind20,r (B<-A)      =    -0.008767433415 [Eh]
    Ind20,r             =    -0.013067594615 [Eh]
    Exch-Ind20,r (A<-B) =     0.002146779961 [Eh]
    Exch-Ind20,r (B<-A) =     0.008333326954 [Eh]
    Exch-Ind20,r        =     0.010480106915 [Eh]
    Disp20              =    -0.006296850209 [Eh]
    Disp20 (NO)         =    -0.005291459830 [Eh]
    Exch-Disp20         =     0.001741912358 [Eh]
    Elst12,r            =    -0.000716640657 [Eh]
    Exch11              =     0.000355415722 [Eh]
    Exch12              =     0.001515632894 [Eh]
    Ind22               =    -0.002280207822 [Eh]
    Disp21              =     0.000442079986 [Eh]
    Disp22 (SDQ)        =    -0.000077367921 [Eh]

    (i =   1 of  18)          0 seconds
    (i =   2 of  18)          0 seconds
    (i =   3 of  18)          0 seconds
    (i =   4 of  18)          0 seconds
    (i =   5 of  18)          0 seconds
    (i =   6 of  18)          0 seconds
    (i =   7 of  18)          0 seconds
    (i =   8 of  18)          1 seconds
    (i =   9 of  18)          1 seconds
    (i =  10 of  18)          1 seconds
    (i =  11 of  18)          1 seconds
    (i =  12 of  18)          1 seconds
    (i =  13 of  18)          1 seconds
    (i =  14 of  18)          1 seconds
    (i =  15 of  18)          1 seconds
    (i =  16 of  18)          2 seconds
    (i =  17 of  18)          2 seconds
    (i =  18 of  18)          2 seconds

    Disp220 (T)         =    -0.000545852845 [Eh]

    (i =   1 of   5)          1 seconds
    (i =   2 of   5)          1 seconds
    (i =   3 of   5)          2 seconds
    (i =   4 of   5)          3 seconds
    (i =   5 of   5)          3 seconds

    Disp202 (T)         =    -0.000397994085 [Eh]

    Disp22 (T)          =    -0.000943846930 [Eh]

    Est. Disp220 (T)    =    -0.000649566228 [Eh]
    Est. Disp202 (T)    =    -0.000473613940 [Eh]

    Est. Disp22 (T)     =    -0.001123180168 [Eh]

    SAPT Results 
  --------------------------------------------------------------------------------------------------------
    Electrostatics                -11.06646481 [mEh]      -6.94431151 [kcal/mol]     -29.05499935 [kJ/mol]
      Elst10,r                    -10.34982415 [mEh]      -6.49461271 [kcal/mol]     -27.17345956 [kJ/mol]
      Elst12,r                     -0.71664066 [mEh]      -0.44969880 [kcal/mol]      -1.88153979 [kJ/mol]

    Exchange                       15.70596473 [mEh]       9.85564166 [kcal/mol]      41.23600472 [kJ/mol]
      Exch10                       13.83491612 [mEh]       8.68154093 [kcal/mol]      36.32356726 [kJ/mol]
      Exch10(S^2)                  13.72355596 [mEh]       8.61166138 [kcal/mol]      36.03119120 [kJ/mol]
      Exch11(S^2)                   0.35541572 [mEh]       0.22302673 [kcal/mol]       0.93314385 [kJ/mol]
      Exch12(S^2)                   1.51563289 [mEh]       0.95107400 [kcal/mol]       3.97929362 [kJ/mol]

    Induction                      -3.77666191 [mEh]      -2.36989113 [kcal/mol]      -9.91562449 [kJ/mol]
      Ind20,r                     -13.06759461 [mEh]      -8.20003942 [kcal/mol]     -34.30896493 [kJ/mol]
      Ind22                        -2.28020782 [mEh]      -1.43085201 [kcal/mol]      -5.98668481 [kJ/mol]
      Exch-Ind20,r                 10.48010692 [mEh]       6.57636638 [kcal/mol]      27.51551692 [kJ/mol]
      Exch-Ind22                    1.82870853 [mEh]       1.14753193 [kcal/mol]       4.80127359 [kJ/mol]
      delta HF,r (2)               -0.73767492 [mEh]      -0.46289800 [kcal/mol]      -1.93676525 [kJ/mol]

    Dispersion                     -5.31340595 [mEh]      -3.33421257 [kcal/mol]     -13.95034541 [kJ/mol]
      Disp20                       -6.29685021 [mEh]      -3.95133316 [kcal/mol]     -16.53237795 [kJ/mol]
      Disp21                        0.44207999 [mEh]       0.27740938 [kcal/mol]       1.16068084 [kJ/mol]
      Disp22 (SDQ)                 -0.07736792 [mEh]      -0.04854910 [kcal/mol]      -0.20312945 [kJ/mol]
      Disp22 (T)                   -0.94384693 [mEh]      -0.59227289 [kcal/mol]      -2.47806977 [kJ/mol]
      Est. Disp22 (T)              -1.12318017 [mEh]      -0.70480620 [kcal/mol]      -2.94890912 [kJ/mol]
      Exch-Disp20                   1.74191236 [mEh]       1.09306651 [kcal/mol]       4.57339027 [kJ/mol]

  Total HF                          0.15992934 [mEh]       0.10035718 [kcal/mol]       0.41989443 [kJ/mol]
  Total SAPT0                      -4.39500851 [mEh]      -2.75790948 [kcal/mol]     -11.53909325 [kJ/mol]
  Total SAPT2                      -3.69209984 [mEh]      -2.31682763 [kcal/mol]      -9.69360679 [kJ/mol]
  Total SAPT2+                     -4.45056794 [mEh]      -2.79277355 [kcal/mol]     -11.68496452 [kJ/mol]

  Special recipe for scaled SAPT0 (see Manual):
    Electrostatics sSAPT0         -10.34982415 [mEh]      -6.49461271 [kcal/mol]     -27.17345956 [kJ/mol]
    Exchange sSAPT0                13.83491612 [mEh]       8.68154093 [kcal/mol]      36.32356726 [kJ/mol]
    Induction sSAPT0               -3.06796350 [mEh]      -1.92517616 [kcal/mol]      -8.05493707 [kJ/mol]
    Dispersion sSAPT0              -4.51218845 [mEh]      -2.83144100 [kcal/mol]     -11.84674914 [kJ/mol]
  Total sSAPT0                     -4.09505998 [mEh]      -2.56968894 [kcal/mol]     -10.75157851 [kJ/mol]
  --------------------------------------------------------------------------------------------------------

*** tstop() called on moses-razer at Wed Jan  3 16:15:40 2024
Module time:
	user time   =      72.87 seconds =       1.21 minutes
	system time =       2.73 seconds =       0.05 minutes
	total time  =         15 seconds =       0.25 minutes
Total time:
	user time   =      91.29 seconds =       1.52 minutes
	system time =       4.96 seconds =       0.08 minutes
	total time  =         21 seconds =       0.35 minutes

    Psi4 stopped on: Wednesday, 03 January 2024 04:15PM
    Psi4 wall time for execution: 0:00:21.73

*** Psi4 exiting successfully. Buy a developer a beer!
