
    -----------------------------------------------------------------------
          Psi4: An Open-Source Ab Initio Electronic Structure Package
                               Psi4 1.9 release

                         Git: Rev {} zzzzzzz 


    D. G. A. Smith, L. A. Burns, A. C. Simmonett, R. M. Parrish,
    M. C. Schieber, R. Galvelis, P. Kraus, H. Kruse, R. Di Remigio,
    A. Alenaizan, A. M. James, S. Lehtola, J. P. Misiewicz, M. Scheurer,
    R. A. Shaw, J. B. Schriber, Y. Xie, Z. L. Glick, D. A. Sirianni,
    J. S. O'Brien, J. M. Waldrop, A. Kumar, E. G. Hohenstein,
    B. P. Pritchard, B. R. Brooks, H. F. Schaefer III, A. Yu. Sokolov,
    K. Patkowski, A. E. DePrince III, U. Bozkaya, R. A. King,
    F. A. Evangelista, J. M. Turney, T. D. Crawford, C. D. Sherrill,
    J. Chem. Phys. 152(18) 184108 (2020). https://doi.org/10.1063/5.0006002

                            Additional Code Authors
    E. T. Seidl, C. L. Janssen, E. F. Valeev, M. L. Leininger,
    J. F. Gonthier, R. M. Richard, H. R. McAlexander, M. Saitow, X. Wang,
    P. Verma, M. H. Lechner, A. Jiang, S. Behnle, A. G. Heide,
    M. F. Herbst, and D. L. Poole

             Previous Authors, Complete List of Code Contributors,
                       and Citations for Specific Modules
    https://github.com/psi4/psi4/blob/master/codemeta.json
    https://github.com/psi4/psi4/graphs/contributors
    http://psicode.org/psi4manual/master/introduction.html#citing-psifour

    -----------------------------------------------------------------------


    Psi4 started on: Wednesday, 03 January 2024 04:14PM

    Process ID: 413347
    Host:       moses-razer
    PSIDATADIR: /home/kchung25/anaconda3/envs/psi4_19/share/psi4
    Memory:     500.0 MiB
    Threads:    6
    
  ==> Input File <==

--------------------------------------------------------------------------
MEMORY 60 GB

molecule dimer {
0 1
O      0.000000     0.000000     0.000000
H      0.205141     0.866062    -0.355314
H      0.396274    -0.584246    -0.686367
--
-1 1
Br     3.212066     0.000000     0.000000

units ang
no_reorient
no_com
symmetry c1
}

set {
basis        aug-cc-pVTZ
scf_type     df
}

energy("sapt2+")
--------------------------------------------------------------------------

  Memory set to  55.879 GiB by Python driver.

Scratch directory: /scratch/
   => Loading Basis Set <=

    Name: AUG-CC-PVTZ
    Role: ORBITAL
    Keyword: BASIS
    atoms 1   entry O          line   331 file /home/kchung25/anaconda3/envs/p415env/share/psi4/basis/aug-cc-pvtz.gbs 
    atoms 2-3 entry H          line    40 file /home/kchung25/anaconda3/envs/p415env/share/psi4/basis/aug-cc-pvtz.gbs 
    atoms 4   entry BR         line  4564 file /home/kchung25/anaconda3/envs/p415env/share/psi4/basis/aug-cc-pvtz.gbs 

   => Loading Basis Set <=

    Name: AUG-CC-PVTZ
    Role: ORBITAL
    Keyword: BASIS
    atoms 1   entry O          line   331 file /home/kchung25/anaconda3/envs/p415env/share/psi4/basis/aug-cc-pvtz.gbs 
    atoms 2-3 entry H          line    40 file /home/kchung25/anaconda3/envs/p415env/share/psi4/basis/aug-cc-pvtz.gbs 
    atoms 4   entry BR         line  4564 file /home/kchung25/anaconda3/envs/p415env/share/psi4/basis/aug-cc-pvtz.gbs 


  //>>>>>>>>>>>>>>>>>>>>>>>>>>>>>>>>>>>//
  //              Dimer HF             //
  //<<<<<<<<<<<<<<<<<<<<<<<<<<<<<<<<<<<//

   => Libint2 <=

    Primary   basis highest AM E, G, H:  5, 4, 3
    Auxiliary basis highest AM E, G, H:  6, 5, 4
    Onebody   basis highest AM E, G, H:  6, 5, 4
    Solid Harmonics ordering:            gaussian

*** tstart() called on moses-razer
*** at Wed Jan  3 16:14:56 2024

   => Loading Basis Set <=

    Name: AUG-CC-PVTZ
    Role: ORBITAL
    Keyword: BASIS
    atoms 1   entry O          line   331 file /home/kchung25/anaconda3/envs/p415env/share/psi4/basis/aug-cc-pvtz.gbs 
    atoms 2-3 entry H          line    40 file /home/kchung25/anaconda3/envs/p415env/share/psi4/basis/aug-cc-pvtz.gbs 
    atoms 4   entry BR         line  4564 file /home/kchung25/anaconda3/envs/p415env/share/psi4/basis/aug-cc-pvtz.gbs 


         ---------------------------------------------------------
                                   SCF
               by Justin Turney, Rob Parrish, Andy Simmonett
                          and Daniel G. A. Smith
                              RHF Reference
                        6 Threads,  57220 MiB Core
         ---------------------------------------------------------

  ==> Geometry <==

    Molecular point group: c1
    Full point group: C1

    Geometry (in Angstrom), charge = -1, multiplicity = 1:

       Center              X                  Y                   Z               Mass       
    ------------   -----------------  -----------------  -----------------  -----------------
         O            0.000000000000     0.000000000000     0.000000000000    15.994914619570
         H            0.205141000000     0.866062000000    -0.355314000000     1.007825032230
         H            0.396274000000    -0.584246000000    -0.686367000000     1.007825032230
         BR           3.212066000000     0.000000000000     0.000000000000    78.918337600000

  Running in c1 symmetry.

  Rotational constants: A =      9.90567  B =      0.02068  C =      0.02067 [cm^-1]
  Rotational constants: A = 296964.37483  B =    620.08547  C =    619.68070 [MHz]
  Nuclear repulsion =   67.344531703890922

  Charge       = -1
  Multiplicity = 1
  Electrons    = 46
  Nalpha       = 23
  Nbeta        = 23

  ==> Algorithm <==

  SCF Algorithm Type is DF.
  DIIS enabled.
  MOM disabled.
  Fractional occupation disabled.
  Guess Type is SAD.
  Energy threshold   = 1.00e-08
  Density threshold  = 1.00e-08
  Integral threshold = 1.00e-12

  ==> Primary Basis <==

  Basis Set: AUG-CC-PVTZ
    Blend: AUG-CC-PVTZ
    Number of shells: 51
    Number of basis functions: 151
    Number of Cartesian functions: 174
    Spherical Harmonics?: true
    Max angular momentum: 3

   => Loading Basis Set <=

    Name: (AUG-CC-PVTZ AUX)
    Role: JKFIT
    Keyword: DF_BASIS_SCF
    atoms 1   entry O          line   286 file /home/kchung25/anaconda3/envs/p415env/share/psi4/basis/aug-cc-pvtz-jkfit.gbs 
    atoms 2-3 entry H          line    70 file /home/kchung25/anaconda3/envs/p415env/share/psi4/basis/aug-cc-pvtz-jkfit.gbs 
    atoms 4   entry BR         line  1492 file /home/kchung25/anaconda3/envs/p415env/share/psi4/basis/aug-cc-pvtz-jkfit.gbs 

  ==> Integral Setup <==

  ==> DiskDFJK: Density-Fitted J/K Matrices <==

    J tasked:                  Yes
    K tasked:                  Yes
    wK tasked:                  No
    OpenMP threads:              6
    Integrals threads:           6
    Memory [MiB]:            42915
    Algorithm:                Core
    Integral Cache:           SAVE
    Schwarz Cutoff:          1E-12
    Fitting Condition:       1E-10

   => Auxiliary Basis Set <=

  Basis Set: (AUG-CC-PVTZ AUX)
    Blend: AUG-CC-PVTZ-JKFIT
    Number of shells: 116
    Number of basis functions: 444
    Number of Cartesian functions: 570
    Spherical Harmonics?: true
    Max angular momentum: 4

  Minimum eigenvalue in the overlap matrix is 3.5489732456E-04.
  Reciprocal condition number of the overlap matrix is 4.7084634442E-05.
    Using symmetric orthogonalization.

  ==> Pre-Iterations <==

  SCF Guess: Superposition of Atomic Densities via on-the-fly atomic UHF (no occupation information).

   -------------------------
    Irrep   Nso     Nmo    
   -------------------------
     A        151     151 
   -------------------------
    Total     151     151
   -------------------------

  ==> Iterations <==

                           Total Energy        Delta E     RMS |[F,P]|

   @DF-RHF iter SAD: -2645.91447079254795   -2.64591e+03   0.00000e+00 
   @DF-RHF iter   1: -2648.23734061603818   -2.32287e+00   7.58125e-03 ADIIS/DIIS
   @DF-RHF iter   2: -2648.49436989581636   -2.57029e-01   4.34369e-03 ADIIS/DIIS
   @DF-RHF iter   3: -2648.59118382759470   -9.68139e-02   2.43734e-04 ADIIS/DIIS
   @DF-RHF iter   4: -2648.59179844279834   -6.14615e-04   1.23992e-04 ADIIS/DIIS
   @DF-RHF iter   5: -2648.59193469761931   -1.36255e-04   2.04177e-05 DIIS
   @DF-RHF iter   6: -2648.59194685145030   -1.21538e-05   4.30869e-06 DIIS
   @DF-RHF iter   7: -2648.59194750427832   -6.52828e-07   1.16787e-06 DIIS
   @DF-RHF iter   8: -2648.59194754810869   -4.38304e-08   3.12080e-07 DIIS
   @DF-RHF iter   9: -2648.59194755153931   -3.43061e-09   7.11866e-08 DIIS
   @DF-RHF iter  10: -2648.59194755169119   -1.51886e-10   1.82879e-08 DIIS
   @DF-RHF iter  11: -2648.59194755170302   -1.18234e-11   4.01960e-09 DIIS
  Energy and wave function converged.


  ==> Post-Iterations <==

    Orbital Energies [Eh]
    ---------------------

    Doubly Occupied:                                                      

       1A   -489.724391     2A    -64.864610     3A    -58.219099  
       4A    -58.219094     5A    -58.219021     6A    -20.405731  
       7A     -9.537097     8A     -7.144594     9A     -7.144552  
      10A     -7.144238    11A     -2.886411    12A     -2.886410  
      13A     -2.885978    14A     -2.885932    15A     -2.885802  
      16A     -1.185526    17A     -0.692480    18A     -0.541131  
      19A     -0.429172    20A     -0.349035    21A     -0.146066  
      22A     -0.145574    23A     -0.142122  

    Virtual:                                                              

      24A      0.143091    25A      0.154036    26A      0.238098  
      27A      0.244869    28A      0.258334    29A      0.269866  
      30A      0.290441    31A      0.301099    32A      0.310201  
      33A      0.360298    34A      0.364032    35A      0.387629  
      36A      0.431682    37A      0.453633    38A      0.489667  
      39A      0.497007    40A      0.517445    41A      0.539207  
      42A      0.556582    43A      0.569243    44A      0.578748  
      45A      0.594416    46A      0.619090    47A      0.741727  
      48A      0.752194    49A      0.760923    50A      0.780718  
      51A      0.825997    52A      0.872717    53A      0.885379  
      54A      0.891535    55A      0.976201    56A      0.991998  
      57A      1.017427    58A      1.032257    59A      1.033419  
      60A      1.033558    61A      1.051376    62A      1.056886  
      63A      1.070965    64A      1.090313    65A      1.105101  
      66A      1.128936    67A      1.153617    68A      1.182963  
      69A      1.187215    70A      1.191917    71A      1.206349  
      72A      1.213084    73A      1.247117    74A      1.254898  
      75A      1.294552    76A      1.335450    77A      1.356123  
      78A      1.393671    79A      1.442454    80A      1.484331  
      81A      1.576829    82A      1.604512    83A      1.689247  
      84A      1.699775    85A      1.823180    86A      1.999135  
      87A      2.026217    88A      2.136016    89A      2.289936  
      90A      2.408641    91A      2.417966    92A      2.421534  
      93A      2.467943    94A      2.473038    95A      2.498732  
      96A      2.563706    97A      2.564564    98A      2.570329  
      99A      2.577685   100A      2.581873   101A      2.586957  
     102A      2.599620   103A      2.609799   104A      2.626764  
     105A      2.646559   106A      2.659941   107A      2.672118  
     108A      2.719324   109A      2.740653   110A      2.814236  
     111A      2.834942   112A      2.866747   113A      2.942791  
     114A      2.962029   115A      2.975027   116A      3.063542  
     117A      3.842560   118A      3.914981   119A      4.097322  
     120A      4.241907   121A      4.312770   122A      4.327272  
     123A      4.422206   124A      4.494170   125A      4.545584  
     126A      4.600469   127A      4.665346   128A      4.690415  
     129A      4.901312   130A      5.008817   131A      5.283591  
     132A      5.343145   133A      5.374127   134A      5.483301  
     135A      5.694639   136A      5.781244   137A      6.412109  
     138A      6.683940   139A      6.906706   140A      7.098900  
     141A      7.295317   142A      7.393851   143A      7.444559  
     144A      7.486532   145A      7.523806   146A      7.578796  
     147A      7.673530   148A      8.011493   149A      8.086098  
     150A      8.938930   151A     15.748355  

    Final Occupation by Irrep:
              A 
    DOCC [    23 ]
    NA   [    23 ]
    NB   [    23 ]

  @DF-RHF Final Energy: -2648.59194755170302

   => Energetics <=

    Nuclear Repulsion Energy =             67.3445317038909224
    One-Electron Energy =               -3834.5048318123467652
    Two-Electron Energy =                1118.5683525567528704
    Total Energy =                      -2648.5919475517030151

Computation Completed


Properties will be evaluated at   0.000000,   0.000000,   0.000000 [a0]

Properties computed using the SCF density matrix


 Multipole Moments:

 ------------------------------------------------------------------------------------
     Multipole            Electronic (a.u.)      Nuclear  (a.u.)        Total (a.u.)
 ------------------------------------------------------------------------------------

 L = 1.  Multiply by 2.5417464519 to convert [e a0] to [Debye]
 Dipole X            :       -219.1045211          213.5838859           -5.5206352
 Dipole Y            :         -0.3653290            0.5325551            0.1672260
 Dipole Z            :          1.4294331           -1.9684918           -0.5390587
 Magnitude           :                                                    5.5494109

 ------------------------------------------------------------------------------------

*** tstop() called on moses-razer at Wed Jan  3 16:14:59 2024
Module time:
	user time   =       7.87 seconds =       0.13 minutes
	system time =       0.99 seconds =       0.02 minutes
	total time  =          3 seconds =       0.05 minutes
Total time:
	user time   =       7.87 seconds =       0.13 minutes
	system time =       0.99 seconds =       0.02 minutes
	total time  =          3 seconds =       0.05 minutes

  //>>>>>>>>>>>>>>>>>>>>>>>>>>>>>>>>>>>//
  //            Monomer A HF           //
  //<<<<<<<<<<<<<<<<<<<<<<<<<<<<<<<<<<<//

   => Libint2 <=

    Primary   basis highest AM E, G, H:  5, 4, 3
    Auxiliary basis highest AM E, G, H:  6, 5, 4
    Onebody   basis highest AM E, G, H:  6, 5, 4
    Solid Harmonics ordering:            gaussian

*** tstart() called on moses-razer
*** at Wed Jan  3 16:14:59 2024

   => Loading Basis Set <=

    Name: AUG-CC-PVTZ
    Role: ORBITAL
    Keyword: BASIS
    atoms 1   entry O          line   331 file /home/kchung25/anaconda3/envs/p415env/share/psi4/basis/aug-cc-pvtz.gbs 
    atoms 2-3 entry H          line    40 file /home/kchung25/anaconda3/envs/p415env/share/psi4/basis/aug-cc-pvtz.gbs 
    atoms 4   entry BR         line  4564 file /home/kchung25/anaconda3/envs/p415env/share/psi4/basis/aug-cc-pvtz.gbs 


         ---------------------------------------------------------
                                   SCF
               by Justin Turney, Rob Parrish, Andy Simmonett
                          and Daniel G. A. Smith
                              RHF Reference
                        6 Threads,  57220 MiB Core
         ---------------------------------------------------------

  ==> Geometry <==

    Molecular point group: c1
    Full point group: C1

    Geometry (in Angstrom), charge = 0, multiplicity = 1:

       Center              X                  Y                   Z               Mass       
    ------------   -----------------  -----------------  -----------------  -----------------
         O            0.000000000000     0.000000000000     0.000000000000    15.994914619570
         H            0.205141000000     0.866062000000    -0.355314000000     1.007825032230
         H            0.396274000000    -0.584246000000    -0.686367000000     1.007825032230
      Gh(BR)          3.212066000000     0.000000000000     0.000000000000    78.918337600000

  Running in c1 symmetry.

  Rotational constants: A =      9.90567  B =      0.02068  C =      0.02067 [cm^-1]
  Rotational constants: A = 296964.37483  B =    620.08547  C =    619.68070 [MHz]
  Nuclear repulsion =    9.069867767624272

  Charge       = 0
  Multiplicity = 1
  Electrons    = 10
  Nalpha       = 5
  Nbeta        = 5

  ==> Algorithm <==

  SCF Algorithm Type is DF.
  DIIS enabled.
  MOM disabled.
  Fractional occupation disabled.
  Guess Type is SAD.
  Energy threshold   = 1.00e-08
  Density threshold  = 1.00e-08
  Integral threshold = 1.00e-12

  ==> Primary Basis <==

  Basis Set: AUG-CC-PVTZ
    Blend: AUG-CC-PVTZ
    Number of shells: 51
    Number of basis functions: 151
    Number of Cartesian functions: 174
    Spherical Harmonics?: true
    Max angular momentum: 3

   => Loading Basis Set <=

    Name: (AUG-CC-PVTZ AUX)
    Role: JKFIT
    Keyword: DF_BASIS_SCF
    atoms 1   entry O          line   286 file /home/kchung25/anaconda3/envs/p415env/share/psi4/basis/aug-cc-pvtz-jkfit.gbs 
    atoms 2-3 entry H          line    70 file /home/kchung25/anaconda3/envs/p415env/share/psi4/basis/aug-cc-pvtz-jkfit.gbs 
    atoms 4   entry BR         line  1492 file /home/kchung25/anaconda3/envs/p415env/share/psi4/basis/aug-cc-pvtz-jkfit.gbs 

  ==> Integral Setup <==

  ==> DiskDFJK: Density-Fitted J/K Matrices <==

    J tasked:                  Yes
    K tasked:                  Yes
    wK tasked:                  No
    OpenMP threads:              6
    Integrals threads:           6
    Memory [MiB]:            42915
    Algorithm:                Core
    Integral Cache:           LOAD
    Schwarz Cutoff:          1E-12
    Fitting Condition:       1E-10

   => Auxiliary Basis Set <=

  Basis Set: (AUG-CC-PVTZ AUX)
    Blend: AUG-CC-PVTZ-JKFIT
    Number of shells: 116
    Number of basis functions: 444
    Number of Cartesian functions: 570
    Spherical Harmonics?: true
    Max angular momentum: 4

  Minimum eigenvalue in the overlap matrix is 3.5489732456E-04.
  Reciprocal condition number of the overlap matrix is 4.7084634442E-05.
    Using symmetric orthogonalization.

  ==> Pre-Iterations <==

  SCF Guess: Superposition of Atomic Densities via on-the-fly atomic UHF (no occupation information).

   -------------------------
    Irrep   Nso     Nmo    
   -------------------------
     A        151     151 
   -------------------------
    Total     151     151
   -------------------------

  ==> Iterations <==

                           Total Energy        Delta E     RMS |[F,P]|

   @DF-RHF iter SAD:   -75.46503787764661   -7.54650e+01   0.00000e+00 
   @DF-RHF iter   1:   -75.97318969588079   -5.08152e-01   3.09796e-03 ADIIS/DIIS
   @DF-RHF iter   2:   -76.02542170676601   -5.22320e-02   2.14852e-03 ADIIS/DIIS
   @DF-RHF iter   3:   -76.05810635655807   -3.26846e-02   1.46763e-04 ADIIS/DIIS
   @DF-RHF iter   4:   -76.05851309403802   -4.06737e-04   3.58803e-05 DIIS
   @DF-RHF iter   5:   -76.05854034850412   -2.72545e-05   8.37739e-06 DIIS
   @DF-RHF iter   6:   -76.05854266085791   -2.31235e-06   1.81774e-06 DIIS
   @DF-RHF iter   7:   -76.05854277846751   -1.17610e-07   3.10118e-07 DIIS
   @DF-RHF iter   8:   -76.05854278140991   -2.94240e-09   5.21216e-08 DIIS
   @DF-RHF iter   9:   -76.05854278147528   -6.53699e-11   1.28232e-08 DIIS
   @DF-RHF iter  10:   -76.05854278147949   -4.20641e-12   2.07539e-09 DIIS
  Energy and wave function converged.


  ==> Post-Iterations <==

    Orbital Energies [Eh]
    ---------------------

    Doubly Occupied:                                                      

       1A    -20.571157     2A     -1.348979     3A     -0.703462  
       4A     -0.588902     5A     -0.510238  

    Virtual:                                                              

       6A      0.026210     7A      0.047607     8A      0.065438  
       9A      0.077770    10A      0.092446    11A      0.104218  
      12A      0.144083    13A      0.181153    14A      0.183297  
      15A      0.206218    16A      0.220936    17A      0.243870  
      18A      0.284865    19A      0.291146    20A      0.301044  
      21A      0.315518    22A      0.326202    23A      0.330895  
      24A      0.343648    25A      0.346143    26A      0.379876  
      27A      0.414690    28A      0.425066    29A      0.438407  
      30A      0.451345    31A      0.470314    32A      0.492754  
      33A      0.611198    34A      0.669536    35A      0.722060  
      36A      0.738130    37A      0.772771    38A      0.833724  
      39A      0.874644    40A      0.889391    41A      0.896090  
      42A      0.925318    43A      0.944314    44A      0.960988  
      45A      0.970088    46A      0.995682    47A      0.999851  
      48A      1.018991    49A      1.034643    50A      1.038945  
      51A      1.051821    52A      1.057555    53A      1.080043  
      54A      1.088297    55A      1.098128    56A      1.110488  
      57A      1.116657    58A      1.132340    59A      1.136277  
      60A      1.162978    61A      1.169279    62A      1.225844  
      63A      1.241873    64A      1.281446    65A      1.298478  
      66A      1.349181    67A      1.450549    68A      1.496860  
      69A      1.533150    70A      1.548549    71A      1.693623  
      72A      1.841135    73A      1.871910    74A      1.980201  
      75A      2.141876    76A      2.300278    77A      2.336008  
      78A      2.353012    79A      2.452645    80A      2.482650  
      81A      2.521715    82A      2.576112    83A      2.689526  
      84A      2.755321    85A      2.779348    86A      2.791491  
      87A      2.864087    88A      2.870977    89A      2.897975  
      90A      2.941616    91A      2.991620    92A      3.124691  
      93A      3.125605    94A      3.153416    95A      3.158986  
      96A      3.219794    97A      3.263495    98A      3.293287  
      99A      3.293426   100A      3.319746   101A      3.333340  
     102A      3.375589   103A      3.438470   104A      3.682094  
     105A      3.815751   106A      4.080444   107A      4.151939  
     108A      4.154851   109A      4.260245   110A      4.326160  
     111A      4.384252   112A      4.431469   113A      4.494310  
     114A      4.528224   115A      4.739183   116A      4.846451  
     117A      5.120281   118A      5.180055   119A      5.213195  
     120A      5.320049   121A      5.530877   122A      5.620086  
     123A      6.249971   124A      6.521895   125A      6.742832  
     126A      6.935753   127A      7.133096   128A      7.232505  
     129A      7.280897   130A      7.324355   131A      7.360512  
     132A      7.413367   133A      7.510513   134A      7.849213  
     135A      7.924505   136A      8.775265   137A      9.411098  
     138A     13.452920   139A     13.462909   140A     13.561584  
     141A     15.586691   142A     26.136211   143A     26.136712  
     144A     26.159687   145A     26.176114   146A     26.264265  
     147A     45.365264   148A    138.402713   149A    138.418730  
     150A    138.569652   151A    708.341303  

    Final Occupation by Irrep:
              A 
    DOCC [     5 ]
    NA   [     5 ]
    NB   [     5 ]

  @DF-RHF Final Energy:   -76.05854278147949

   => Energetics <=

    Nuclear Repulsion Energy =              9.0698677676242720
    One-Electron Energy =                -122.8113450696931039
    Two-Electron Energy =                  37.6829345205893347
    Total Energy =                        -76.0585427814795025

Computation Completed


Properties will be evaluated at   0.000000,   0.000000,   0.000000 [a0]

Properties computed using the SCF density matrix


 Multipole Moments:

 ------------------------------------------------------------------------------------
     Multipole            Electronic (a.u.)      Nuclear  (a.u.)        Total (a.u.)
 ------------------------------------------------------------------------------------

 L = 1.  Multiply by 2.5417464519 to convert [e a0] to [Debye]
 Dipole X            :         -0.7442701            1.1365096            0.3922396
 Dipole Y            :         -0.3436762            0.5325551            0.1888788
 Dipole Z            :          1.2891319           -1.9684918           -0.6793599
 Magnitude           :                                                    0.8068810

 ------------------------------------------------------------------------------------

*** tstop() called on moses-razer at Wed Jan  3 16:15:01 2024
Module time:
	user time   =       4.07 seconds =       0.07 minutes
	system time =       0.35 seconds =       0.01 minutes
	total time  =          2 seconds =       0.03 minutes
Total time:
	user time   =      11.97 seconds =       0.20 minutes
	system time =       1.35 seconds =       0.02 minutes
	total time  =          5 seconds =       0.08 minutes

  //>>>>>>>>>>>>>>>>>>>>>>>>>>>>>>>>>>>//
  //            Monomer B HF           //
  //<<<<<<<<<<<<<<<<<<<<<<<<<<<<<<<<<<<//

   => Libint2 <=

    Primary   basis highest AM E, G, H:  5, 4, 3
    Auxiliary basis highest AM E, G, H:  6, 5, 4
    Onebody   basis highest AM E, G, H:  6, 5, 4
    Solid Harmonics ordering:            gaussian

*** tstart() called on moses-razer
*** at Wed Jan  3 16:15:01 2024

   => Loading Basis Set <=

    Name: AUG-CC-PVTZ
    Role: ORBITAL
    Keyword: BASIS
    atoms 1   entry O          line   331 file /home/kchung25/anaconda3/envs/p415env/share/psi4/basis/aug-cc-pvtz.gbs 
    atoms 2-3 entry H          line    40 file /home/kchung25/anaconda3/envs/p415env/share/psi4/basis/aug-cc-pvtz.gbs 
    atoms 4   entry BR         line  4564 file /home/kchung25/anaconda3/envs/p415env/share/psi4/basis/aug-cc-pvtz.gbs 


         ---------------------------------------------------------
                                   SCF
               by Justin Turney, Rob Parrish, Andy Simmonett
                          and Daniel G. A. Smith
                              RHF Reference
                        6 Threads,  57220 MiB Core
         ---------------------------------------------------------

  ==> Geometry <==

    Molecular point group: c1
    Full point group: C1

    Geometry (in Angstrom), charge = -1, multiplicity = 1:

       Center              X                  Y                   Z               Mass       
    ------------   -----------------  -----------------  -----------------  -----------------
      Gh(O)           0.000000000000     0.000000000000     0.000000000000    15.994914619570
      Gh(H)           0.205141000000     0.866062000000    -0.355314000000     1.007825032230
      Gh(H)           0.396274000000    -0.584246000000    -0.686367000000     1.007825032230
         BR           3.212066000000     0.000000000000     0.000000000000    78.918337600000

  Running in c1 symmetry.

  Rotational constants: A =      9.90567  B =      0.02068  C =      0.02067 [cm^-1]
  Rotational constants: A = 296964.37483  B =    620.08547  C =    619.68070 [MHz]
  Nuclear repulsion =    0.000000000000000

  Charge       = -1
  Multiplicity = 1
  Electrons    = 36
  Nalpha       = 18
  Nbeta        = 18

  ==> Algorithm <==

  SCF Algorithm Type is DF.
  DIIS enabled.
  MOM disabled.
  Fractional occupation disabled.
  Guess Type is SAD.
  Energy threshold   = 1.00e-08
  Density threshold  = 1.00e-08
  Integral threshold = 1.00e-12

  ==> Primary Basis <==

  Basis Set: AUG-CC-PVTZ
    Blend: AUG-CC-PVTZ
    Number of shells: 51
    Number of basis functions: 151
    Number of Cartesian functions: 174
    Spherical Harmonics?: true
    Max angular momentum: 3

   => Loading Basis Set <=

    Name: (AUG-CC-PVTZ AUX)
    Role: JKFIT
    Keyword: DF_BASIS_SCF
    atoms 1   entry O          line   286 file /home/kchung25/anaconda3/envs/p415env/share/psi4/basis/aug-cc-pvtz-jkfit.gbs 
    atoms 2-3 entry H          line    70 file /home/kchung25/anaconda3/envs/p415env/share/psi4/basis/aug-cc-pvtz-jkfit.gbs 
    atoms 4   entry BR         line  1492 file /home/kchung25/anaconda3/envs/p415env/share/psi4/basis/aug-cc-pvtz-jkfit.gbs 

  ==> Integral Setup <==

  ==> DiskDFJK: Density-Fitted J/K Matrices <==

    J tasked:                  Yes
    K tasked:                  Yes
    wK tasked:                  No
    OpenMP threads:              6
    Integrals threads:           6
    Memory [MiB]:            42915
    Algorithm:                Core
    Integral Cache:           LOAD
    Schwarz Cutoff:          1E-12
    Fitting Condition:       1E-10

   => Auxiliary Basis Set <=

  Basis Set: (AUG-CC-PVTZ AUX)
    Blend: AUG-CC-PVTZ-JKFIT
    Number of shells: 116
    Number of basis functions: 444
    Number of Cartesian functions: 570
    Spherical Harmonics?: true
    Max angular momentum: 4

  Minimum eigenvalue in the overlap matrix is 3.5489732456E-04.
  Reciprocal condition number of the overlap matrix is 4.7084634442E-05.
    Using symmetric orthogonalization.

  ==> Pre-Iterations <==

  SCF Guess: Superposition of Atomic Densities via on-the-fly atomic UHF (no occupation information).

   -------------------------
    Irrep   Nso     Nmo    
   -------------------------
     A        151     151 
   -------------------------
    Total     151     151
   -------------------------

  ==> Iterations <==

                           Total Energy        Delta E     RMS |[F,P]|

   @DF-RHF iter SAD: -2570.41423528219093   -2.57041e+03   0.00000e+00 
   @DF-RHF iter   1: -2572.25552551386636   -1.84129e+00   6.95907e-03 ADIIS/DIIS
   @DF-RHF iter   2: -2572.46456677763217   -2.09041e-01   3.86266e-03 ADIIS/DIIS
   @DF-RHF iter   3: -2572.53364031185674   -6.90735e-02   6.33176e-05 DIIS
   @DF-RHF iter   4: -2572.53367444384276   -3.41320e-05   7.36996e-06 DIIS
   @DF-RHF iter   5: -2572.53367557084266   -1.12700e-06   1.88737e-06 DIIS
   @DF-RHF iter   6: -2572.53367564685459   -7.60119e-08   3.51694e-07 DIIS
   @DF-RHF iter   7: -2572.53367565618964   -9.33505e-09   3.21338e-08 DIIS
   @DF-RHF iter   8: -2572.53367565627332   -8.36735e-11   1.00921e-08 DIIS
   @DF-RHF iter   9: -2572.53367565628196   -8.64020e-12   2.24342e-09 DIIS
  Energy and wave function converged.


  ==> Post-Iterations <==

    Orbital Energies [Eh]
    ---------------------

    Doubly Occupied:                                                      

       1A   -489.720546     2A    -64.860583     3A    -58.215060  
       4A    -58.215060     5A    -58.215058     6A     -9.532892  
       7A     -7.140237     8A     -7.140236     9A     -7.140227  
      10A     -2.881906    11A     -2.881906    12A     -2.881905  
      13A     -2.881904    14A     -2.881892    15A     -0.685997  
      16A     -0.139337    17A     -0.139335    18A     -0.139335  

    Virtual:                                                              

      19A      0.140377    20A      0.156210    21A      0.226965  
      22A      0.245394    23A      0.260205    24A      0.261374  
      25A      0.266122    26A      0.287060    27A      0.295623  
      28A      0.359182    29A      0.392262    30A      0.410608  
      31A      0.446818    32A      0.451429    33A      0.493348  
      34A      0.500016    35A      0.506805    36A      0.514952  
      37A      0.529822    38A      0.544479    39A      0.560425  
      40A      0.590437    41A      0.613556    42A      0.744965  
      43A      0.763360    44A      0.773678    45A      0.815848  
      46A      0.878341    47A      0.905931    48A      0.911872  
      49A      0.929036    50A      0.940902    51A      0.954934  
      52A      0.987357    53A      1.031541    54A      1.038732  
      55A      1.041282    56A      1.047975    57A      1.056442  
      58A      1.069523    59A      1.084079    60A      1.113135  
      61A      1.113980    62A      1.140740    63A      1.165874  
      64A      1.195251    65A      1.205373    66A      1.212456  
      67A      1.221166    68A      1.273622    69A      1.278683  
      70A      1.320481    71A      1.362837    72A      1.383332  
      73A      1.414495    74A      1.444614    75A      1.568413  
      76A      1.618395    77A      1.647812    78A      1.670614  
      79A      1.858320    80A      1.901238    81A      1.956820  
      82A      1.987233    83A      2.013306    84A      2.242236  
      85A      2.414541    86A      2.426438    87A      2.460776  
      88A      2.501563    89A      2.566671    90A      2.568244  
      91A      2.572822    92A      2.577993    93A      2.586666  
      94A      2.588605    95A      2.595470    96A      2.610214  
      97A      2.615420    98A      2.626371    99A      2.684378  
     100A      2.706722   101A      2.719923   102A      2.736945  
     103A      2.760027   104A      2.773603   105A      2.792809  
     106A      2.889374   107A      3.001502   108A      3.008563  
     109A      3.300348   110A      3.341010   111A      3.386016  
     112A      3.467496   113A      3.507692   114A      3.703124  
     115A      3.826810   116A      4.115602   117A      4.560569  
     118A      4.630935   119A      4.655317   120A      4.763179  
     121A      4.830044   122A      4.874659   123A      5.030878  
     124A      5.068479   125A      5.194261   126A      5.384196  
     127A      5.709545   128A      5.741147   129A      5.812588  
     130A      6.023974   131A      6.260359   132A      6.523690  
     133A      6.701015   134A      7.181636   135A      7.852180  
     136A      8.019963   137A      8.194600   138A      8.264192  
     139A      8.442826   140A      8.804173   141A      8.956916  
     142A      9.854424   143A     10.034370   144A     10.146983  
     145A     10.392338   146A     11.337812   147A     11.786250  
     148A     12.160582   149A     13.652061   150A     13.936519  
     151A     64.362579  

    Final Occupation by Irrep:
              A 
    DOCC [    18 ]
    NA   [    18 ]
    NB   [    18 ]

  @DF-RHF Final Energy: -2572.53367565628196

   => Energetics <=

    Nuclear Repulsion Energy =              0.0000000000000000
    One-Electron Energy =               -3593.6805170017637465
    Two-Electron Energy =                1021.1468413454820165
    Total Energy =                      -2572.5336756562819573

Computation Completed


Properties will be evaluated at   0.000000,   0.000000,   0.000000 [a0]

Properties computed using the SCF density matrix


 Multipole Moments:

 ------------------------------------------------------------------------------------
     Multipole            Electronic (a.u.)      Nuclear  (a.u.)        Total (a.u.)
 ------------------------------------------------------------------------------------

 L = 1.  Multiply by 2.5417464519 to convert [e a0] to [Debye]
 Dipole X            :       -218.5172540          212.4473763           -6.0698778
 Dipole Y            :         -0.0000301            0.0000000           -0.0000301
 Dipole Z            :          0.0000166            0.0000000            0.0000166
 Magnitude           :                                                    6.0698778

 ------------------------------------------------------------------------------------

*** tstop() called on moses-razer at Wed Jan  3 16:15:03 2024
Module time:
	user time   =       6.15 seconds =       0.10 minutes
	system time =       0.88 seconds =       0.01 minutes
	total time  =          2 seconds =       0.03 minutes
Total time:
	user time   =      18.14 seconds =       0.30 minutes
	system time =       2.23 seconds =       0.04 minutes
	total time  =          7 seconds =       0.12 minutes
  Constructing Basis Sets for SAPT...

   => Loading Basis Set <=

    Name: (AUG-CC-PVTZ AUX)
    Role: RIFIT
    Keyword: DF_BASIS_SAPT
    atoms 1   entry O          line   264 file /home/kchung25/anaconda3/envs/p415env/share/psi4/basis/aug-cc-pvtz-ri.gbs 
    atoms 2-3 entry H          line    30 file /home/kchung25/anaconda3/envs/p415env/share/psi4/basis/aug-cc-pvtz-ri.gbs 
    atoms 4   entry BR         line  1248 file /home/kchung25/anaconda3/envs/p415env/share/psi4/basis/aug-cc-pvtz-ri.gbs 

   => Loading Basis Set <=

    Name: (AUG-CC-PVTZ AUX)
    Role: JKFIT
    Keyword: DF_BASIS_ELST
    atoms 1   entry O          line   286 file /home/kchung25/anaconda3/envs/p415env/share/psi4/basis/aug-cc-pvtz-jkfit.gbs 
    atoms 2-3 entry H          line    70 file /home/kchung25/anaconda3/envs/p415env/share/psi4/basis/aug-cc-pvtz-jkfit.gbs 
    atoms 4   entry BR         line  1492 file /home/kchung25/anaconda3/envs/p415env/share/psi4/basis/aug-cc-pvtz-jkfit.gbs 


  //>>>>>>>>>>>>>>>>>>>>>>>>>>>>>>>>>>>//
  //               SAPT2+              //
  //<<<<<<<<<<<<<<<<<<<<<<<<<<<<<<<<<<<//


*** tstart() called on moses-razer
*** at Wed Jan  3 16:15:03 2024

        SAPT2+  
    Ed Hohenstein
     6 June 2009

      Orbital Information
  --------------------------
    NSO        =       151
    NMO        =       151
    NRI        =       389
    NOCC A     =         5
    NOCC B     =        18
    FOCC A     =         0
    FOCC B     =         0
    NVIR A     =       146
    NVIR B     =       133

    Estimated memory usage: 232.1 MB

    Natural Orbital Cutoff:   1.000E-06
    Disp(T3) Truncation:            Yes
    CCD (vv|vv) Truncation:         Yes
    MBPT T2 Truncation:             Yes

    Monomer A: 68 virtual orbitals dropped
    Monomer B: 78 virtual orbitals dropped

    Elst10,r            =    -0.010236914253 [Eh]
    Exch10 (S^2)        =     0.013790732642 [Eh]
    Exch10              =     0.013903823265 [Eh]
    Ind20,r (A<-B)      =    -0.004316075174 [Eh]
    Ind20,r (B<-A)      =    -0.008785990805 [Eh]
    Ind20,r             =    -0.013102065979 [Eh]
    Exch-Ind20,r (A<-B) =     0.002150356153 [Eh]
    Exch-Ind20,r (B<-A) =     0.008324281044 [Eh]
    Exch-Ind20,r        =     0.010474637197 [Eh]
    Disp20              =    -0.006311383826 [Eh]
    Disp20 (NO)         =    -0.005311845237 [Eh]
    Exch-Disp20         =     0.001743766289 [Eh]
    Elst12,r            =    -0.000732061941 [Eh]
    Exch11              =     0.000357014317 [Eh]
    Exch12              =     0.001512998184 [Eh]
    Ind22               =    -0.002272738736 [Eh]
    Disp21              =     0.000443447451 [Eh]
    Disp22 (SDQ)        =    -0.000074927136 [Eh]

    (i =   1 of  18)          0 seconds
    (i =   2 of  18)          1 seconds
    (i =   3 of  18)          1 seconds
    (i =   4 of  18)          1 seconds
    (i =   5 of  18)          1 seconds
    (i =   6 of  18)          1 seconds
    (i =   7 of  18)          1 seconds
    (i =   8 of  18)          1 seconds
    (i =   9 of  18)          1 seconds
    (i =  10 of  18)          2 seconds
    (i =  11 of  18)          2 seconds
    (i =  12 of  18)          2 seconds
    (i =  13 of  18)          2 seconds
    (i =  14 of  18)          2 seconds
    (i =  15 of  18)          2 seconds
    (i =  16 of  18)          2 seconds
    (i =  17 of  18)          2 seconds
    (i =  18 of  18)          3 seconds

    Disp220 (T)         =    -0.000546989321 [Eh]

    (i =   1 of   5)          0 seconds
    (i =   2 of   5)          1 seconds
    (i =   3 of   5)          2 seconds
    (i =   4 of   5)          2 seconds
    (i =   5 of   5)          3 seconds

    Disp202 (T)         =    -0.000399615708 [Eh]

    Disp22 (T)          =    -0.000946605029 [Eh]

    Est. Disp220 (T)    =    -0.000649917194 [Eh]
    Est. Disp202 (T)    =    -0.000474812049 [Eh]

    Est. Disp22 (T)     =    -0.001124729242 [Eh]

    SAPT Results 
  --------------------------------------------------------------------------------------------------------
    Electrostatics                -10.96897619 [mEh]      -6.88313648 [kcal/mol]     -28.79904303 [kJ/mol]
      Elst10,r                    -10.23691425 [mEh]      -6.42376068 [kcal/mol]     -26.87701467 [kJ/mol]
      Elst12,r                     -0.73206194 [mEh]      -0.45937580 [kcal/mol]      -1.92202836 [kJ/mol]

    Exchange                       15.77383577 [mEh]       9.89823138 [kcal/mol]      41.41420010 [kJ/mol]
      Exch10                       13.90382326 [mEh]       8.72478082 [kcal/mol]      36.50448295 [kJ/mol]
      Exch10(S^2)                  13.79073264 [mEh]       8.65381538 [kcal/mol]      36.20756356 [kJ/mol]
      Exch11(S^2)                   0.35701432 [mEh]       0.22402987 [kcal/mol]       0.93734096 [kJ/mol]
      Exch12(S^2)                   1.51299818 [mEh]       0.94942069 [kcal/mol]       3.97237619 [kJ/mol]

    Induction                      -3.85178765 [mEh]      -2.41703324 [kcal/mol]     -10.11286709 [kJ/mol]
      Ind20,r                     -13.10206598 [mEh]      -8.22167053 [kcal/mol]     -34.39946949 [kJ/mol]
      Ind22                        -2.27273874 [mEh]      -1.42616509 [kcal/mol]      -5.96707473 [kJ/mol]
      Exch-Ind20,r                 10.47463720 [mEh]       6.57293408 [kcal/mol]      27.50115617 [kJ/mol]
      Exch-Ind22                    1.81697404 [mEh]       1.14016842 [kcal/mol]       4.77046467 [kJ/mol]
      delta HF,r (2)               -0.76859417 [mEh]      -0.48230012 [kcal/mol]      -2.01794372 [kJ/mol]

    Dispersion                     -5.32382646 [mEh]      -3.34075154 [kcal/mol]     -13.97770446 [kJ/mol]
      Disp20                       -6.31138383 [mEh]      -3.96045314 [kcal/mol]     -16.57053595 [kJ/mol]
      Disp21                        0.44344745 [mEh]       0.27826748 [kcal/mol]       1.16427112 [kJ/mol]
      Disp22 (SDQ)                 -0.07492714 [mEh]      -0.04701749 [kcal/mol]      -0.19672117 [kJ/mol]
      Disp22 (T)                   -0.94660503 [mEh]      -0.59400362 [kcal/mol]      -2.48531116 [kJ/mol]
      Est. Disp22 (T)              -1.12472924 [mEh]      -0.70577826 [kcal/mol]      -2.95297622 [kJ/mol]
      Exch-Disp20                   1.74376629 [mEh]       1.09422987 [kcal/mol]       4.57825776 [kJ/mol]

  Total HF                          0.27088606 [mEh]       0.16998357 [kcal/mol]       0.71121125 [kJ/mol]
  Total SAPT0                      -4.29673148 [mEh]      -2.69623971 [kcal/mol]     -11.28106694 [kJ/mol]
  Total SAPT2                      -3.61454562 [mEh]      -2.26816162 [kcal/mol]      -9.48998821 [kJ/mol]
  Total SAPT2+                     -4.37075454 [mEh]      -2.74268988 [kcal/mol]     -11.47541448 [kJ/mol]

  Special recipe for scaled SAPT0 (see Manual):
    Electrostatics sSAPT0         -10.23691425 [mEh]      -6.42376068 [kcal/mol]     -26.87701467 [kJ/mol]
    Exchange sSAPT0                13.90382326 [mEh]       8.72478082 [kcal/mol]      36.50448295 [kJ/mol]
    Induction sSAPT0               -3.13621284 [mEh]      -1.96800327 [kcal/mol]      -8.23412567 [kJ/mol]
    Dispersion sSAPT0              -4.52436562 [mEh]      -2.83908229 [kcal/mol]     -11.87872030 [kJ/mol]
  Total sSAPT0                     -3.99366945 [mEh]      -2.50606541 [kcal/mol]     -10.48537769 [kJ/mol]
  --------------------------------------------------------------------------------------------------------

*** tstop() called on moses-razer at Wed Jan  3 16:15:18 2024
Module time:
	user time   =      73.67 seconds =       1.23 minutes
	system time =       2.75 seconds =       0.05 minutes
	total time  =         15 seconds =       0.25 minutes
Total time:
	user time   =      92.06 seconds =       1.53 minutes
	system time =       4.99 seconds =       0.08 minutes
	total time  =         22 seconds =       0.37 minutes

    Psi4 stopped on: Wednesday, 03 January 2024 04:15PM
    Psi4 wall time for execution: 0:00:21.86

*** Psi4 exiting successfully. Buy a developer a beer!
