
    -----------------------------------------------------------------------
          Psi4: An Open-Source Ab Initio Electronic Structure Package
                               Psi4 1.9 release

                         Git: Rev {} zzzzzzz 


    D. G. A. Smith, L. A. Burns, A. C. Simmonett, R. M. Parrish,
    M. C. Schieber, R. Galvelis, P. Kraus, H. Kruse, R. Di Remigio,
    A. Alenaizan, A. M. James, S. Lehtola, J. P. Misiewicz, M. Scheurer,
    R. A. Shaw, J. B. Schriber, Y. Xie, Z. L. Glick, D. A. Sirianni,
    J. S. O'Brien, J. M. Waldrop, A. Kumar, E. G. Hohenstein,
    B. P. Pritchard, B. R. Brooks, H. F. Schaefer III, A. Yu. Sokolov,
    K. Patkowski, A. E. DePrince III, U. Bozkaya, R. A. King,
    F. A. Evangelista, J. M. Turney, T. D. Crawford, C. D. Sherrill,
    J. Chem. Phys. 152(18) 184108 (2020). https://doi.org/10.1063/5.0006002

                            Additional Code Authors
    E. T. Seidl, C. L. Janssen, E. F. Valeev, M. L. Leininger,
    J. F. Gonthier, R. M. Richard, H. R. McAlexander, M. Saitow, X. Wang,
    P. Verma, M. H. Lechner, A. Jiang, S. Behnle, A. G. Heide,
    M. F. Herbst, and D. L. Poole

             Previous Authors, Complete List of Code Contributors,
                       and Citations for Specific Modules
    https://github.com/psi4/psi4/blob/master/codemeta.json
    https://github.com/psi4/psi4/graphs/contributors
    http://psicode.org/psi4manual/master/introduction.html#citing-psifour

    -----------------------------------------------------------------------


    Psi4 started on: Wednesday, 03 January 2024 09:01PM

    Process ID: 438866
    Host:       moses-razer
    PSIDATADIR: /home/kchung25/anaconda3/envs/psi4_19/share/psi4
    Memory:     500.0 MiB
    Threads:    6
    
  ==> Input File <==

--------------------------------------------------------------------------
MEMORY 60 GB

molecule dimer {
0 1
Cl     0.000000     0.000000     0.000000
Li     0.000000     2.029797     0.000000
--
1 1
Li     4.059594     0.000000     0.000000

units ang
no_reorient
no_com
symmetry c1
}

set {
basis        aug-cc-pVTZ
scf_type     df
}

energy("sapt2+")
--------------------------------------------------------------------------

  Memory set to  55.879 GiB by Python driver.

Scratch directory: /scratch/
   => Loading Basis Set <=

    Name: AUG-CC-PVTZ
    Role: ORBITAL
    Keyword: BASIS
    atoms 1   entry CL         line   988 file /home/kchung25/anaconda3/envs/p415env/share/psi4/basis/aug-cc-pvtz.gbs 
    atoms 2-3 entry LI         line    85 file /home/kchung25/anaconda3/envs/p415env/share/psi4/basis/aug-cc-pvtz.gbs 

   => Loading Basis Set <=

    Name: AUG-CC-PVTZ
    Role: ORBITAL
    Keyword: BASIS
    atoms 1   entry CL         line   988 file /home/kchung25/anaconda3/envs/p415env/share/psi4/basis/aug-cc-pvtz.gbs 
    atoms 2-3 entry LI         line    85 file /home/kchung25/anaconda3/envs/p415env/share/psi4/basis/aug-cc-pvtz.gbs 


  //>>>>>>>>>>>>>>>>>>>>>>>>>>>>>>>>>>>//
  //              Dimer HF             //
  //<<<<<<<<<<<<<<<<<<<<<<<<<<<<<<<<<<<//

   => Libint2 <=

    Primary   basis highest AM E, G, H:  5, 4, 3
    Auxiliary basis highest AM E, G, H:  6, 5, 4
    Onebody   basis highest AM E, G, H:  6, 5, 4
    Solid Harmonics ordering:            gaussian

*** tstart() called on moses-razer
*** at Wed Jan  3 21:01:15 2024

   => Loading Basis Set <=

    Name: AUG-CC-PVTZ
    Role: ORBITAL
    Keyword: BASIS
    atoms 1   entry CL         line   988 file /home/kchung25/anaconda3/envs/p415env/share/psi4/basis/aug-cc-pvtz.gbs 
    atoms 2-3 entry LI         line    85 file /home/kchung25/anaconda3/envs/p415env/share/psi4/basis/aug-cc-pvtz.gbs 


         ---------------------------------------------------------
                                   SCF
               by Justin Turney, Rob Parrish, Andy Simmonett
                          and Daniel G. A. Smith
                              RHF Reference
                        6 Threads,  57220 MiB Core
         ---------------------------------------------------------

  ==> Geometry <==

    Molecular point group: c1
    Full point group: Cs

    Geometry (in Angstrom), charge = 1, multiplicity = 1:

       Center              X                  Y                   Z               Mass       
    ------------   -----------------  -----------------  -----------------  -----------------
         CL           0.000000000000     0.000000000000     0.000000000000    34.968852682000
         LI           0.000000000000     2.029797000000     0.000000000000     7.016003436600
         LI           4.059594000000     0.000000000000     0.000000000000     7.016003436600

  Running in c1 symmetry.

  Rotational constants: A =      0.58318  B =      0.14579  C =      0.11664 [cm^-1]
  Rotational constants: A =  17483.25104  B =   4370.81276  C =   3496.65021 [MHz]
  Nuclear repulsion =   20.993209569044751

  Charge       = 1
  Multiplicity = 1
  Electrons    = 22
  Nalpha       = 11
  Nbeta        = 11

  ==> Algorithm <==

  SCF Algorithm Type is DF.
  DIIS enabled.
  MOM disabled.
  Fractional occupation disabled.
  Guess Type is SAD.
  Energy threshold   = 1.00e-08
  Density threshold  = 1.00e-08
  Integral threshold = 1.00e-12

  ==> Primary Basis <==

  Basis Set: AUG-CC-PVTZ
    Blend: AUG-CC-PVTZ
    Number of shells: 44
    Number of basis functions: 142
    Number of Cartesian functions: 169
    Spherical Harmonics?: true
    Max angular momentum: 3

   => Loading Basis Set <=

    Name: (AUG-CC-PVTZ AUX)
    Role: JKFIT
    Keyword: DF_BASIS_SCF
    atoms 1   entry CL         line   816 file /home/kchung25/anaconda3/envs/p415env/share/psi4/basis/aug-cc-pvtz-jkfit.gbs 
    atoms 2-3 entry LI         line    54 file /home/kchung25/anaconda3/envs/p415env/share/psi4/basis/def2-universal-jkfit.gbs 

  ==> Integral Setup <==

  ==> DiskDFJK: Density-Fitted J/K Matrices <==

    J tasked:                  Yes
    K tasked:                  Yes
    wK tasked:                  No
    OpenMP threads:              6
    Integrals threads:           6
    Memory [MiB]:            42915
    Algorithm:                Core
    Integral Cache:           SAVE
    Schwarz Cutoff:          1E-12
    Fitting Condition:       1E-10

   => Auxiliary Basis Set <=

  Basis Set: (AUG-CC-PVTZ AUX)
    Blend: AUG-CC-PVTZ-JKFIT + DEF2-UNIVERSAL-JKFIT
    Number of shells: 76
    Number of basis functions: 248
    Number of Cartesian functions: 300
    Spherical Harmonics?: true
    Max angular momentum: 4

  Minimum eigenvalue in the overlap matrix is 4.5119847625E-04.
  Reciprocal condition number of the overlap matrix is 6.1302145281E-05.
    Using symmetric orthogonalization.

  ==> Pre-Iterations <==

  SCF Guess: Superposition of Atomic Densities via on-the-fly atomic UHF (no occupation information).

   -------------------------
    Irrep   Nso     Nmo    
   -------------------------
     A        142     142 
   -------------------------
    Total     142     142
   -------------------------

  ==> Iterations <==

                           Total Energy        Delta E     RMS |[F,P]|

   @DF-RHF iter SAD:  -473.87300424623555   -4.73873e+02   0.00000e+00 
   @DF-RHF iter   1:  -474.25866798884812   -3.85664e-01   1.95960e-03 DIIS/ADIIS
   @DF-RHF iter   2:  -474.29950482037117   -4.08368e-02   9.00222e-04 DIIS/ADIIS
   @DF-RHF iter   3:  -474.30541461902686   -5.90980e-03   6.26264e-05 DIIS
   @DF-RHF iter   4:  -474.30549100516367   -7.63861e-05   1.69119e-05 DIIS
   @DF-RHF iter   5:  -474.30550159694678   -1.05918e-05   5.13363e-06 DIIS
   @DF-RHF iter   6:  -474.30550265625300   -1.05931e-06   1.59481e-06 DIIS
   @DF-RHF iter   7:  -474.30550281216108   -1.55908e-07   2.90055e-07 DIIS
   @DF-RHF iter   8:  -474.30550281684208   -4.68100e-09   5.02516e-08 DIIS
   @DF-RHF iter   9:  -474.30550281696048   -1.18405e-10   9.99434e-09 DIIS
  Energy and wave function converged.


  ==> Post-Iterations <==

    Orbital Energies [Eh]
    ---------------------

    Doubly Occupied:                                                      

       1A   -104.864919     2A    -10.590294     3A     -8.056402  
       4A     -8.056237     5A     -8.056098     6A     -2.769780  
       7A     -2.601496     8A     -1.105973     9A     -0.539540  
      10A     -0.514649    11A     -0.511965  

    Virtual:                                                              

      12A     -0.179533    13A     -0.125676    14A     -0.114426  
      15A     -0.105256    16A     -0.092002    17A     -0.065694  
      18A     -0.060962    19A     -0.053636    20A     -0.050369  
      21A     -0.049329    22A     -0.044621    23A     -0.040840  
      24A     -0.031732    25A     -0.028318    26A     -0.023892  
      27A     -0.016728    28A     -0.016407    29A     -0.006067  
      30A     -0.005127    31A     -0.001079    32A      0.005884  
      33A      0.007097    34A      0.008219    35A      0.015588  
      36A      0.026363    37A      0.031756    38A      0.034322  
      39A      0.048986    40A      0.051039    41A      0.059025  
      42A      0.059874    43A      0.064914    44A      0.081910  
      45A      0.088672    46A      0.106683    47A      0.121874  
      48A      0.133229    49A      0.134075    50A      0.142044  
      51A      0.143343    52A      0.150642    53A      0.153567  
      54A      0.160986    55A      0.161078    56A      0.173490  
      57A      0.184499    58A      0.199379    59A      0.199763  
      60A      0.210939    61A      0.212355    62A      0.218133  
      63A      0.232475    64A      0.233090    65A      0.236712  
      66A      0.238853    67A      0.244213    68A      0.249218  
      69A      0.258254    70A      0.263102    71A      0.277661  
      72A      0.288753    73A      0.295050    74A      0.306914  
      75A      0.339072    76A      0.341507    77A      0.345947  
      78A      0.389720    79A      0.403063    80A      0.415599  
      81A      0.444536    82A      0.474185    83A      0.502219  
      84A      0.548143    85A      0.553233    86A      0.553522  
      87A      0.570226    88A      0.572026    89A      0.579480  
      90A      0.588209    91A      0.594411    92A      0.595193  
      93A      0.598020    94A      0.612640    95A      0.620510  
      96A      0.636345    97A      0.636490    98A      0.646919  
      99A      0.651438   100A      0.663665   101A      0.677186  
     102A      0.688392   103A      0.709921   104A      0.716217  
     105A      0.725277   106A      0.734521   107A      0.760050  
     108A      0.816280   109A      0.836400   110A      0.869771  
     111A      0.931696   112A      0.984946   113A      1.017480  
     114A      1.072754   115A      1.094770   116A      1.146766  
     117A      1.174857   118A      1.206262   119A      1.234587  
     120A      1.308547   121A      1.317447   122A      1.486764  
     123A      1.509915   124A      1.559679   125A      2.548028  
     126A      2.561556   127A      2.586610   128A      2.588532  
     129A      2.616217   130A      2.669284   131A      2.844244  
     132A      2.880188   133A      2.970831   134A      3.047748  
     135A      3.064923   136A      3.079571   137A      3.123859  
     138A      3.128640   139A      3.198119   140A      3.225183  
     141A      3.620031   142A      5.989673  

    Final Occupation by Irrep:
              A 
    DOCC [    11 ]
    NA   [    11 ]
    NB   [    11 ]

  @DF-RHF Final Energy:  -474.30550281696048

   => Energetics <=

    Nuclear Repulsion Energy =             20.9932095690447511
    One-Electron Energy =                -695.2627173084366632
    Two-Electron Energy =                 199.9640049224313714
    Total Energy =                       -474.3055028169604839

Computation Completed


Properties will be evaluated at   0.000000,   0.000000,   0.000000 [a0]

Properties computed using the SCF density matrix


 Multipole Moments:

 ------------------------------------------------------------------------------------
     Multipole            Electronic (a.u.)      Nuclear  (a.u.)        Total (a.u.)
 ------------------------------------------------------------------------------------

 L = 1.  Multiply by 2.5417464519 to convert [e a0] to [Debye]
 Dipole X            :        -15.7981740           23.0145625            7.2163885
 Dipole Y            :         -8.6125364           11.5072813            2.8947449
 Dipole Z            :          0.0000000            0.0000000            0.0000000
 Magnitude           :                                                    7.7753335

 ------------------------------------------------------------------------------------

*** tstop() called on moses-razer at Wed Jan  3 21:01:15 2024
Module time:
	user time   =       4.26 seconds =       0.07 minutes
	system time =       0.34 seconds =       0.01 minutes
	total time  =          0 seconds =       0.00 minutes
Total time:
	user time   =       4.26 seconds =       0.07 minutes
	system time =       0.34 seconds =       0.01 minutes
	total time  =          0 seconds =       0.00 minutes

  //>>>>>>>>>>>>>>>>>>>>>>>>>>>>>>>>>>>//
  //            Monomer A HF           //
  //<<<<<<<<<<<<<<<<<<<<<<<<<<<<<<<<<<<//

   => Libint2 <=

    Primary   basis highest AM E, G, H:  5, 4, 3
    Auxiliary basis highest AM E, G, H:  6, 5, 4
    Onebody   basis highest AM E, G, H:  6, 5, 4
    Solid Harmonics ordering:            gaussian

*** tstart() called on moses-razer
*** at Wed Jan  3 21:01:15 2024

   => Loading Basis Set <=

    Name: AUG-CC-PVTZ
    Role: ORBITAL
    Keyword: BASIS
    atoms 1   entry CL         line   988 file /home/kchung25/anaconda3/envs/p415env/share/psi4/basis/aug-cc-pvtz.gbs 
    atoms 2-3 entry LI         line    85 file /home/kchung25/anaconda3/envs/p415env/share/psi4/basis/aug-cc-pvtz.gbs 


         ---------------------------------------------------------
                                   SCF
               by Justin Turney, Rob Parrish, Andy Simmonett
                          and Daniel G. A. Smith
                              RHF Reference
                        6 Threads,  57220 MiB Core
         ---------------------------------------------------------

  ==> Geometry <==

    Molecular point group: c1
    Full point group: Cs

    Geometry (in Angstrom), charge = 0, multiplicity = 1:

       Center              X                  Y                   Z               Mass       
    ------------   -----------------  -----------------  -----------------  -----------------
         CL           0.000000000000     0.000000000000     0.000000000000    34.968852682000
         LI           0.000000000000     2.029797000000     0.000000000000     7.016003436600
      Gh(LI)          4.059594000000     0.000000000000     0.000000000000     7.016003436600

  Running in c1 symmetry.

  Rotational constants: A =      0.58318  B =      0.14579  C =      0.11664 [cm^-1]
  Rotational constants: A =  17483.25104  B =   4370.81276  C =   3496.65021 [MHz]
  Nuclear repulsion =   13.295929466922063

  Charge       = 0
  Multiplicity = 1
  Electrons    = 20
  Nalpha       = 10
  Nbeta        = 10

  ==> Algorithm <==

  SCF Algorithm Type is DF.
  DIIS enabled.
  MOM disabled.
  Fractional occupation disabled.
  Guess Type is SAD.
  Energy threshold   = 1.00e-08
  Density threshold  = 1.00e-08
  Integral threshold = 1.00e-12

  ==> Primary Basis <==

  Basis Set: AUG-CC-PVTZ
    Blend: AUG-CC-PVTZ
    Number of shells: 44
    Number of basis functions: 142
    Number of Cartesian functions: 169
    Spherical Harmonics?: true
    Max angular momentum: 3

   => Loading Basis Set <=

    Name: (AUG-CC-PVTZ AUX)
    Role: JKFIT
    Keyword: DF_BASIS_SCF
    atoms 1   entry CL         line   816 file /home/kchung25/anaconda3/envs/p415env/share/psi4/basis/aug-cc-pvtz-jkfit.gbs 
    atoms 2-3 entry LI         line    54 file /home/kchung25/anaconda3/envs/p415env/share/psi4/basis/def2-universal-jkfit.gbs 

  ==> Integral Setup <==

  ==> DiskDFJK: Density-Fitted J/K Matrices <==

    J tasked:                  Yes
    K tasked:                  Yes
    wK tasked:                  No
    OpenMP threads:              6
    Integrals threads:           6
    Memory [MiB]:            42915
    Algorithm:                Core
    Integral Cache:           LOAD
    Schwarz Cutoff:          1E-12
    Fitting Condition:       1E-10

   => Auxiliary Basis Set <=

  Basis Set: (AUG-CC-PVTZ AUX)
    Blend: AUG-CC-PVTZ-JKFIT + DEF2-UNIVERSAL-JKFIT
    Number of shells: 76
    Number of basis functions: 248
    Number of Cartesian functions: 300
    Spherical Harmonics?: true
    Max angular momentum: 4

  Minimum eigenvalue in the overlap matrix is 4.5119847625E-04.
  Reciprocal condition number of the overlap matrix is 6.1302145281E-05.
    Using symmetric orthogonalization.

  ==> Pre-Iterations <==

  SCF Guess: Superposition of Atomic Densities via on-the-fly atomic UHF (no occupation information).

   -------------------------
    Irrep   Nso     Nmo    
   -------------------------
     A        142     142 
   -------------------------
    Total     142     142
   -------------------------

  ==> Iterations <==

                           Total Energy        Delta E     RMS |[F,P]|

   @DF-RHF iter SAD:  -466.52804262312679   -4.66528e+02   0.00000e+00 
   @DF-RHF iter   1:  -467.00425314712794   -4.76211e-01   2.00098e-03 DIIS/ADIIS
   @DF-RHF iter   2:  -467.04621693959473   -4.19638e-02   9.01630e-04 DIIS/ADIIS
   @DF-RHF iter   3:  -467.05201485917377   -5.79792e-03   5.62553e-05 DIIS
   @DF-RHF iter   4:  -467.05205587482652   -4.10157e-05   1.20265e-05 DIIS
   @DF-RHF iter   5:  -467.05205899042966   -3.11560e-06   3.10715e-06 DIIS
   @DF-RHF iter   6:  -467.05205918427299   -1.93843e-07   6.88516e-07 DIIS
   @DF-RHF iter   7:  -467.05205920565743   -2.13844e-08   9.63971e-08 DIIS
   @DF-RHF iter   8:  -467.05205920615111   -4.93685e-10   1.51482e-08 DIIS
   @DF-RHF iter   9:  -467.05205920616413   -1.30171e-11   3.06453e-09 DIIS
  Energy and wave function converged.


  ==> Post-Iterations <==

    Orbital Energies [Eh]
    ---------------------

    Doubly Occupied:                                                      

       1A   -104.729697     2A    -10.455277     3A     -7.921456  
       4A     -7.921185     5A     -7.921179     6A     -2.481274  
       7A     -0.972362     8A     -0.407277     9A     -0.379543  
      10A     -0.379542  

    Virtual:                                                              

      11A     -0.015573    12A      0.012308    13A      0.015497  
      14A      0.017456    15A      0.019534    16A      0.025831  
      17A      0.027502    18A      0.031509    19A      0.037790  
      20A      0.049541    21A      0.051353    22A      0.060822  
      23A      0.077025    24A      0.078728    25A      0.080445  
      26A      0.098821    27A      0.111601    28A      0.111867  
      29A      0.118369    30A      0.126392    31A      0.130130  
      32A      0.133643    33A      0.136397    34A      0.145315  
      35A      0.150217    36A      0.163309    37A      0.165675  
      38A      0.173024    39A      0.174061    40A      0.187211  
      41A      0.198882    42A      0.208934    43A      0.219095  
      44A      0.219116    45A      0.234413    46A      0.251333  
      47A      0.280468    48A      0.281269    49A      0.298193  
      50A      0.304453    51A      0.316254    52A      0.316468  
      53A      0.324837    54A      0.330657    55A      0.332859  
      56A      0.335728    57A      0.346991    58A      0.350617  
      59A      0.357777    60A      0.361763    61A      0.364899  
      62A      0.370178    63A      0.374317    64A      0.382236  
      65A      0.388074    66A      0.398456    67A      0.403114  
      68A      0.405229    69A      0.413634    70A      0.420111  
      71A      0.431163    72A      0.456724    73A      0.467551  
      74A      0.510459    75A      0.534004    76A      0.535925  
      77A      0.560750    78A      0.564012    79A      0.596064  
      80A      0.636452    81A      0.743856    82A      0.752570  
      83A      0.755827    84A      0.764568    85A      0.769363  
      86A      0.771085    87A      0.782903    88A      0.811459  
      89A      0.820124    90A      0.823796    91A      0.825283  
      92A      0.835233    93A      0.841150    94A      0.851420  
      95A      0.853080    96A      0.857945    97A      0.867891  
      98A      0.887148    99A      0.888922   100A      0.904140  
     101A      0.932818   102A      0.940288   103A      0.961533  
     104A      0.962695   105A      0.985204   106A      0.994514  
     107A      1.001225   108A      1.014575   109A      1.057972  
     110A      1.116970   111A      1.127021   112A      1.162807  
     113A      1.198589   114A      1.226391   115A      1.273979  
     116A      1.309379   117A      1.313055   118A      1.363480  
     119A      1.417642   120A      1.438527   121A      1.454751  
     122A      1.612108   123A      1.646342   124A      1.685368  
     125A      2.695559   126A      2.711062   127A      2.719389  
     128A      2.749195   129A      2.781958   130A      2.975571  
     131A      3.017597   132A      3.102673   133A      3.182911  
     134A      3.196453   135A      3.208663   136A      3.257085  
     137A      3.262038   138A      3.329052   139A      3.358342  
     140A      3.744081   141A      6.121721   142A     10.047326  

    Final Occupation by Irrep:
              A 
    DOCC [    10 ]
    NA   [    10 ]
    NB   [    10 ]

  @DF-RHF Final Energy:  -467.05205920616413

   => Energetics <=

    Nuclear Repulsion Energy =             13.2959294669220629
    One-Electron Energy =                -673.5583926187675843
    Two-Electron Energy =                 193.2104039456814064
    Total Energy =                       -467.0520592061641310

Computation Completed


Properties will be evaluated at   0.000000,   0.000000,   0.000000 [a0]

Properties computed using the SCF density matrix


 Multipole Moments:

 ------------------------------------------------------------------------------------
     Multipole            Electronic (a.u.)      Nuclear  (a.u.)        Total (a.u.)
 ------------------------------------------------------------------------------------

 L = 1.  Multiply by 2.5417464519 to convert [e a0] to [Debye]
 Dipole X            :         -0.0001243            0.0000000           -0.0001243
 Dipole Y            :         -8.6260382           11.5072813            2.8812431
 Dipole Z            :          0.0000000            0.0000000            0.0000000
 Magnitude           :                                                    2.8812431

 ------------------------------------------------------------------------------------

*** tstop() called on moses-razer at Wed Jan  3 21:01:16 2024
Module time:
	user time   =       3.64 seconds =       0.06 minutes
	system time =       0.27 seconds =       0.00 minutes
	total time  =          1 seconds =       0.02 minutes
Total time:
	user time   =       7.92 seconds =       0.13 minutes
	system time =       0.61 seconds =       0.01 minutes
	total time  =          1 seconds =       0.02 minutes

  //>>>>>>>>>>>>>>>>>>>>>>>>>>>>>>>>>>>//
  //            Monomer B HF           //
  //<<<<<<<<<<<<<<<<<<<<<<<<<<<<<<<<<<<//

   => Libint2 <=

    Primary   basis highest AM E, G, H:  5, 4, 3
    Auxiliary basis highest AM E, G, H:  6, 5, 4
    Onebody   basis highest AM E, G, H:  6, 5, 4
    Solid Harmonics ordering:            gaussian

*** tstart() called on moses-razer
*** at Wed Jan  3 21:01:16 2024

   => Loading Basis Set <=

    Name: AUG-CC-PVTZ
    Role: ORBITAL
    Keyword: BASIS
    atoms 1   entry CL         line   988 file /home/kchung25/anaconda3/envs/p415env/share/psi4/basis/aug-cc-pvtz.gbs 
    atoms 2-3 entry LI         line    85 file /home/kchung25/anaconda3/envs/p415env/share/psi4/basis/aug-cc-pvtz.gbs 


         ---------------------------------------------------------
                                   SCF
               by Justin Turney, Rob Parrish, Andy Simmonett
                          and Daniel G. A. Smith
                              RHF Reference
                        6 Threads,  57220 MiB Core
         ---------------------------------------------------------

  ==> Geometry <==

    Molecular point group: c1
    Full point group: Cs

    Geometry (in Angstrom), charge = 1, multiplicity = 1:

       Center              X                  Y                   Z               Mass       
    ------------   -----------------  -----------------  -----------------  -----------------
      Gh(CL)          0.000000000000     0.000000000000     0.000000000000    34.968852682000
      Gh(LI)          0.000000000000     2.029797000000     0.000000000000     7.016003436600
         LI           4.059594000000     0.000000000000     0.000000000000     7.016003436600

  Running in c1 symmetry.

  Rotational constants: A =      0.58318  B =      0.14579  C =      0.11664 [cm^-1]
  Rotational constants: A =  17483.25104  B =   4370.81276  C =   3496.65021 [MHz]
  Nuclear repulsion =    0.000000000000000

  Charge       = 1
  Multiplicity = 1
  Electrons    = 2
  Nalpha       = 1
  Nbeta        = 1

  ==> Algorithm <==

  SCF Algorithm Type is DF.
  DIIS enabled.
  MOM disabled.
  Fractional occupation disabled.
  Guess Type is SAD.
  Energy threshold   = 1.00e-08
  Density threshold  = 1.00e-08
  Integral threshold = 1.00e-12

  ==> Primary Basis <==

  Basis Set: AUG-CC-PVTZ
    Blend: AUG-CC-PVTZ
    Number of shells: 44
    Number of basis functions: 142
    Number of Cartesian functions: 169
    Spherical Harmonics?: true
    Max angular momentum: 3

   => Loading Basis Set <=

    Name: (AUG-CC-PVTZ AUX)
    Role: JKFIT
    Keyword: DF_BASIS_SCF
    atoms 1   entry CL         line   816 file /home/kchung25/anaconda3/envs/p415env/share/psi4/basis/aug-cc-pvtz-jkfit.gbs 
    atoms 2-3 entry LI         line    54 file /home/kchung25/anaconda3/envs/p415env/share/psi4/basis/def2-universal-jkfit.gbs 

  ==> Integral Setup <==

  ==> DiskDFJK: Density-Fitted J/K Matrices <==

    J tasked:                  Yes
    K tasked:                  Yes
    wK tasked:                  No
    OpenMP threads:              6
    Integrals threads:           6
    Memory [MiB]:            42915
    Algorithm:                Core
    Integral Cache:           LOAD
    Schwarz Cutoff:          1E-12
    Fitting Condition:       1E-10

   => Auxiliary Basis Set <=

  Basis Set: (AUG-CC-PVTZ AUX)
    Blend: AUG-CC-PVTZ-JKFIT + DEF2-UNIVERSAL-JKFIT
    Number of shells: 76
    Number of basis functions: 248
    Number of Cartesian functions: 300
    Spherical Harmonics?: true
    Max angular momentum: 4

  Minimum eigenvalue in the overlap matrix is 4.5119847625E-04.
  Reciprocal condition number of the overlap matrix is 6.1302145281E-05.
    Using symmetric orthogonalization.

  ==> Pre-Iterations <==

  SCF Guess: Superposition of Atomic Densities via on-the-fly atomic UHF (no occupation information).

   -------------------------
    Irrep   Nso     Nmo    
   -------------------------
     A        142     142 
   -------------------------
    Total     142     142
   -------------------------

  ==> Iterations <==

                           Total Energy        Delta E     RMS |[F,P]|

   @DF-RHF iter SAD:    -7.31438485943798   -7.31438e+00   0.00000e+00 
   @DF-RHF iter   1:    -7.23638098834269    7.80039e-02   1.60541e-05 DIIS
   @DF-RHF iter   2:    -7.23638284585794   -1.85752e-06   1.72872e-06 DIIS
   @DF-RHF iter   3:    -7.23638287120616   -2.53482e-08   7.02093e-08 DIIS
   @DF-RHF iter   4:    -7.23638287124181   -3.56515e-11   2.14333e-10 DIIS
  Energy and wave function converged.


  ==> Post-Iterations <==

    Orbital Energies [Eh]
    ---------------------

    Doubly Occupied:                                                      

       1A     -2.792367  

    Virtual:                                                              

       2A     -0.196297     3A     -0.128600     4A     -0.128595  
       5A     -0.128594     6A     -0.073671     7A     -0.056543  
       8A     -0.056379     9A     -0.056375    10A     -0.053560  
      11A     -0.050057    12A     -0.049765    13A     -0.033367  
      14A     -0.032776    15A     -0.029195    16A     -0.024438  
      17A     -0.021915    18A     -0.021281    19A     -0.010048  
      20A     -0.004788    21A     -0.004587    22A      0.000213  
      23A      0.006209    24A      0.008155    25A      0.008594  
      26A      0.022572    27A      0.025405    28A      0.048064  
      29A      0.060258    30A      0.062013    31A      0.063618  
      32A      0.073434    33A      0.076040    34A      0.087634  
      35A      0.088873    36A      0.097106    37A      0.097788  
      38A      0.128000    39A      0.131115    40A      0.131296  
      41A      0.134609    42A      0.142175    43A      0.142840  
      44A      0.145492    45A      0.153686    46A      0.162651  
      47A      0.178695    48A      0.183984    49A      0.199151  
      50A      0.200235    51A      0.211650    52A      0.227469  
      53A      0.230057    54A      0.234544    55A      0.238449  
      56A      0.252782    57A      0.257975    58A      0.277789  
      59A      0.281527    60A      0.283981    61A      0.288299  
      62A      0.292864    63A      0.313948    64A      0.333102  
      65A      0.333630    66A      0.390592    67A      0.392348  
      68A      0.401154    69A      0.425808    70A      0.439646  
      71A      0.457587    72A      0.472841    73A      0.504137  
      74A      0.511365    75A      0.538133    76A      0.539081  
      77A      0.550619    78A      0.555433    79A      0.563339  
      80A      0.568372    81A      0.575552    82A      0.578599  
      83A      0.581317    84A      0.596859    85A      0.598690  
      86A      0.626057    87A      0.645885    88A      0.692953  
      89A      0.714398    90A      0.723540    91A      0.745659  
      92A      0.748257    93A      0.758433    94A      0.788417  
      95A      0.829130    96A      0.831453    97A      0.857841  
      98A      0.859440    99A      0.871922   100A      0.969921  
     101A      0.993197   102A      1.143957   103A      1.217895  
     104A      1.227106   105A      1.295056   106A      1.307013  
     107A      1.339930   108A      1.381499   109A      1.383556  
     110A      1.393539   111A      1.457160   112A      1.489095  
     113A      1.559317   114A      1.561029   115A      1.588132  
     116A      1.730004   117A      1.745772   118A      1.849203  
     119A      2.265863   120A      2.564212   121A      3.824934  
     122A      3.833904   123A      3.908546   124A      3.915278  
     125A      3.919473   126A      3.932599   127A      3.967095  
     128A      4.026343   129A      4.053052   130A      4.122685  
     131A      4.405263   132A      4.607422   133A      4.642278  
     134A      4.672736   135A      4.692371   136A      4.816029  
     137A     10.808064   138A     14.498843   139A     27.773891  
     140A     27.826435   141A     28.018259   142A    160.730107  

    Final Occupation by Irrep:
              A 
    DOCC [     1 ]
    NA   [     1 ]
    NB   [     1 ]

  @DF-RHF Final Energy:    -7.23638287124181

   => Energetics <=

    Nuclear Repulsion Energy =              0.0000000000000000
    One-Electron Energy =                  -8.8880321786088317
    Two-Electron Energy =                   1.6516493073670235
    Total Energy =                         -7.2363828712418083

Computation Completed


Properties will be evaluated at   0.000000,   0.000000,   0.000000 [a0]

Properties computed using the SCF density matrix


 Multipole Moments:

 ------------------------------------------------------------------------------------
     Multipole            Electronic (a.u.)      Nuclear  (a.u.)        Total (a.u.)
 ------------------------------------------------------------------------------------

 L = 1.  Multiply by 2.5417464519 to convert [e a0] to [Debye]
 Dipole X            :        -15.3430880           23.0145625            7.6714745
 Dipole Y            :          0.0000135            0.0000000            0.0000135
 Dipole Z            :         -0.0000000            0.0000000           -0.0000000
 Magnitude           :                                                    7.6714745

 ------------------------------------------------------------------------------------

*** tstop() called on moses-razer at Wed Jan  3 21:01:17 2024
Module time:
	user time   =       2.47 seconds =       0.04 minutes
	system time =       0.13 seconds =       0.00 minutes
	total time  =          1 seconds =       0.02 minutes
Total time:
	user time   =      10.42 seconds =       0.17 minutes
	system time =       0.74 seconds =       0.01 minutes
	total time  =          2 seconds =       0.03 minutes
  Constructing Basis Sets for SAPT...

   => Loading Basis Set <=

    Name: (AUG-CC-PVTZ AUX)
    Role: RIFIT
    Keyword: DF_BASIS_SAPT
    atoms 1   entry CL         line   742 file /home/kchung25/anaconda3/envs/p415env/share/psi4/basis/aug-cc-pvtz-ri.gbs 
    atoms 2-3 entry LI         line    90 file /home/kchung25/anaconda3/envs/p415env/share/psi4/basis/def2-qzvpp-ri.gbs 

   => Loading Basis Set <=

    Name: (AUG-CC-PVTZ AUX)
    Role: JKFIT
    Keyword: DF_BASIS_ELST
    atoms 1   entry CL         line   816 file /home/kchung25/anaconda3/envs/p415env/share/psi4/basis/aug-cc-pvtz-jkfit.gbs 
    atoms 2-3 entry LI         line    54 file /home/kchung25/anaconda3/envs/p415env/share/psi4/basis/def2-universal-jkfit.gbs 


  //>>>>>>>>>>>>>>>>>>>>>>>>>>>>>>>>>>>//
  //               SAPT2+              //
  //<<<<<<<<<<<<<<<<<<<<<<<<<<<<<<<<<<<//


*** tstart() called on moses-razer
*** at Wed Jan  3 21:01:17 2024

        SAPT2+  
    Ed Hohenstein
     6 June 2009

      Orbital Information
  --------------------------
    NSO        =       142
    NMO        =       142
    NRI        =       349
    NOCC A     =        10
    NOCC B     =         1
    FOCC A     =         0
    FOCC B     =         0
    NVIR A     =       132
    NVIR B     =       141

    Estimated memory usage: 103.2 MB

    Natural Orbital Cutoff:   1.000E-06
    Disp(T3) Truncation:            Yes
    CCD (vv|vv) Truncation:         Yes
    MBPT T2 Truncation:             Yes

    Monomer A: 64 virtual orbitals dropped
    Monomer B: 136 virtual orbitals dropped

    Elst10,r            =    -0.012785090434 [Eh]
    Exch10 (S^2)        =     0.000054684517 [Eh]
    Exch10              =     0.000054685289 [Eh]
    Ind20,r (A<-B)      =    -0.003881467690 [Eh]
    Ind20,r (B<-A)      =    -0.000002276766 [Eh]
    Ind20,r             =    -0.003883744456 [Eh]
    Exch-Ind20,r (A<-B) =     0.000096636087 [Eh]
    Exch-Ind20,r (B<-A) =    -0.000000014544 [Eh]
    Exch-Ind20,r        =     0.000096621543 [Eh]
    Disp20              =    -0.000014581503 [Eh]
    Disp20 (NO)         =    -0.000012427876 [Eh]
    Exch-Disp20         =     0.000000639863 [Eh]
    Elst12,r            =     0.000117378449 [Eh]
    Exch11              =    -0.000000179595 [Eh]
    Exch12              =     0.000008366512 [Eh]
    Ind22               =    -0.000278991560 [Eh]
    Disp21              =    -0.000000136057 [Eh]
    Disp22 (SDQ)        =    -0.000000167280 [Eh]

    (i =   1 of   1)          1 seconds

    Disp220 (T)         =    -0.000000760578 [Eh]

    (i =   1 of  10)          0 seconds
    (i =   2 of  10)          0 seconds
    (i =   3 of  10)          0 seconds
    (i =   4 of  10)          0 seconds
    (i =   5 of  10)          0 seconds
    (i =   6 of  10)          0 seconds
    (i =   7 of  10)          0 seconds
    (i =   8 of  10)          0 seconds
    (i =   9 of  10)          0 seconds
    (i =  10 of  10)          0 seconds

    Disp202 (T)         =    -0.000000232715 [Eh]

    Disp22 (T)          =    -0.000000993293 [Eh]

    Est. Disp220 (T)    =    -0.000000892378 [Eh]
    Est. Disp202 (T)    =    -0.000000273042 [Eh]

    Est. Disp22 (T)     =    -0.000001165420 [Eh]

    SAPT Results 
  --------------------------------------------------------------------------------------------------------
    Electrostatics                -12.66771198 [mEh]      -7.94910928 [kcal/mol]     -33.25907323 [kJ/mol]
      Elst10,r                    -12.78509043 [mEh]      -8.02276537 [kcal/mol]     -33.56725031 [kJ/mol]
      Elst12,r                      0.11737845 [mEh]       0.07365609 [kcal/mol]       0.30817708 [kJ/mol]

    Exchange                        0.06287221 [mEh]       0.03945291 [kcal/mol]       0.16507096 [kJ/mol]
      Exch10                        0.05468529 [mEh]       0.03431554 [kcal/mol]       0.14357621 [kJ/mol]
      Exch10(S^2)                   0.05468452 [mEh]       0.03431505 [kcal/mol]       0.14357418 [kJ/mol]
      Exch11(S^2)                  -0.00017960 [mEh]      -0.00011270 [kcal/mol]      -0.00047153 [kJ/mol]
      Exch12(S^2)                   0.00836651 [mEh]       0.00525007 [kcal/mol]       0.02196628 [kJ/mol]

    Induction                      -4.60238509 [mEh]      -2.88804025 [kcal/mol]     -12.08356040 [kJ/mol]
      Ind20,r                      -3.88374446 [mEh]      -2.43708644 [kcal/mol]     -10.19676966 [kJ/mol]
      Ind22                        -0.27899156 [mEh]      -0.17506985 [kcal/mol]      -0.73249224 [kJ/mol]
      Exch-Ind20,r                  0.09662154 [mEh]       0.06063093 [kcal/mol]       0.25367983 [kJ/mol]
      Exch-Ind22                    0.00694088 [mEh]       0.00435547 [kcal/mol]       0.01822327 [kJ/mol]
      delta HF,r (2)               -0.54321150 [mEh]      -0.34087036 [kcal/mol]      -1.42620159 [kJ/mol]

    Dispersion                     -0.01541040 [mEh]      -0.00967017 [kcal/mol]      -0.04045999 [kJ/mol]
      Disp20                       -0.01458150 [mEh]      -0.00915003 [kcal/mol]      -0.03828373 [kJ/mol]
      Disp21                       -0.00013606 [mEh]      -0.00008538 [kcal/mol]      -0.00035722 [kJ/mol]
      Disp22 (SDQ)                 -0.00016728 [mEh]      -0.00010497 [kcal/mol]      -0.00043919 [kJ/mol]
      Disp22 (T)                   -0.00099329 [mEh]      -0.00062330 [kcal/mol]      -0.00260789 [kJ/mol]
      Est. Disp22 (T)              -0.00116542 [mEh]      -0.00073131 [kcal/mol]      -0.00305981 [kJ/mol]
      Exch-Disp20                   0.00063986 [mEh]       0.00040152 [kcal/mol]       0.00167996 [kJ/mol]

  Total HF                        -17.06073955 [mEh]     -10.70577570 [kcal/mol]     -44.79296553 [kJ/mol]
  Total SAPT0                     -17.07468119 [mEh]     -10.71452421 [kcal/mol]     -44.82956930 [kJ/mol]
  Total SAPT2                     -17.22116651 [mEh]     -10.80644513 [kcal/mol]     -45.21416644 [kJ/mol]
  Total SAPT2+                    -17.22263527 [mEh]     -10.80736679 [kcal/mol]     -45.21802267 [kJ/mol]

  Special recipe for scaled SAPT0 (see Manual):
    Electrostatics sSAPT0         -12.78509043 [mEh]      -8.02276537 [kcal/mol]     -33.56725031 [kJ/mol]
    Exchange sSAPT0                 0.05468529 [mEh]       0.03431554 [kcal/mol]       0.14357621 [kJ/mol]
    Induction sSAPT0               -4.33033032 [mEh]      -2.71732330 [kcal/mol]     -11.36928068 [kJ/mol]
    Dispersion sSAPT0              -0.01394161 [mEh]      -0.00874849 [kcal/mol]      -0.03660370 [kJ/mol]
  Total sSAPT0                    -17.07467707 [mEh]     -10.71452163 [kcal/mol]     -44.82955848 [kJ/mol]
  --------------------------------------------------------------------------------------------------------

*** tstop() called on moses-razer at Wed Jan  3 21:01:21 2024
Module time:
	user time   =      16.67 seconds =       0.28 minutes
	system time =       1.43 seconds =       0.02 minutes
	total time  =          4 seconds =       0.07 minutes
Total time:
	user time   =      27.57 seconds =       0.46 minutes
	system time =       2.18 seconds =       0.04 minutes
	total time  =          6 seconds =       0.10 minutes

    Psi4 stopped on: Wednesday, 03 January 2024 09:01PM
    Psi4 wall time for execution: 0:00:06.11

*** Psi4 exiting successfully. Buy a developer a beer!
