
    -----------------------------------------------------------------------
          Psi4: An Open-Source Ab Initio Electronic Structure Package
                               Psi4 1.9 release

                         Git: Rev {} zzzzzzz 


    D. G. A. Smith, L. A. Burns, A. C. Simmonett, R. M. Parrish,
    M. C. Schieber, R. Galvelis, P. Kraus, H. Kruse, R. Di Remigio,
    A. Alenaizan, A. M. James, S. Lehtola, J. P. Misiewicz, M. Scheurer,
    R. A. Shaw, J. B. Schriber, Y. Xie, Z. L. Glick, D. A. Sirianni,
    J. S. O'Brien, J. M. Waldrop, A. Kumar, E. G. Hohenstein,
    B. P. Pritchard, B. R. Brooks, H. F. Schaefer III, A. Yu. Sokolov,
    K. Patkowski, A. E. DePrince III, U. Bozkaya, R. A. King,
    F. A. Evangelista, J. M. Turney, T. D. Crawford, C. D. Sherrill,
    J. Chem. Phys. 152(18) 184108 (2020). https://doi.org/10.1063/5.0006002

                            Additional Code Authors
    E. T. Seidl, C. L. Janssen, E. F. Valeev, M. L. Leininger,
    J. F. Gonthier, R. M. Richard, H. R. McAlexander, M. Saitow, X. Wang,
    P. Verma, M. H. Lechner, A. Jiang, S. Behnle, A. G. Heide,
    M. F. Herbst, and D. L. Poole

             Previous Authors, Complete List of Code Contributors,
                       and Citations for Specific Modules
    https://github.com/psi4/psi4/blob/master/codemeta.json
    https://github.com/psi4/psi4/graphs/contributors
    http://psicode.org/psi4manual/master/introduction.html#citing-psifour

    -----------------------------------------------------------------------


    Psi4 started on: Wednesday, 03 January 2024 09:02PM

    Process ID: 438925
    Host:       moses-razer
    PSIDATADIR: /home/kchung25/anaconda3/envs/psi4_19/share/psi4
    Memory:     500.0 MiB
    Threads:    6
    
  ==> Input File <==

--------------------------------------------------------------------------
MEMORY 60 GB

molecule dimer {
0 1
Li     0.000000     0.000000     0.000000
Cl     0.000000     2.029797     0.000000
--
-1 1
Cl     2.638736     0.000000     0.000000

units ang
no_reorient
no_com
symmetry c1
}

set {
basis        aug-cc-pVTZ
scf_type     df
}

energy("sapt2+")
--------------------------------------------------------------------------

  Memory set to  55.879 GiB by Python driver.

Scratch directory: /scratch/
   => Loading Basis Set <=

    Name: AUG-CC-PVTZ
    Role: ORBITAL
    Keyword: BASIS
    atoms 1   entry LI         line    85 file /home/kchung25/anaconda3/envs/p415env/share/psi4/basis/aug-cc-pvtz.gbs 
    atoms 2-3 entry CL         line   988 file /home/kchung25/anaconda3/envs/p415env/share/psi4/basis/aug-cc-pvtz.gbs 

   => Loading Basis Set <=

    Name: AUG-CC-PVTZ
    Role: ORBITAL
    Keyword: BASIS
    atoms 1   entry LI         line    85 file /home/kchung25/anaconda3/envs/p415env/share/psi4/basis/aug-cc-pvtz.gbs 
    atoms 2-3 entry CL         line   988 file /home/kchung25/anaconda3/envs/p415env/share/psi4/basis/aug-cc-pvtz.gbs 


  //>>>>>>>>>>>>>>>>>>>>>>>>>>>>>>>>>>>//
  //              Dimer HF             //
  //<<<<<<<<<<<<<<<<<<<<<<<<<<<<<<<<<<<//

   => Libint2 <=

    Primary   basis highest AM E, G, H:  5, 4, 3
    Auxiliary basis highest AM E, G, H:  6, 5, 4
    Onebody   basis highest AM E, G, H:  6, 5, 4
    Solid Harmonics ordering:            gaussian

*** tstart() called on moses-razer
*** at Wed Jan  3 21:02:08 2024

   => Loading Basis Set <=

    Name: AUG-CC-PVTZ
    Role: ORBITAL
    Keyword: BASIS
    atoms 1   entry LI         line    85 file /home/kchung25/anaconda3/envs/p415env/share/psi4/basis/aug-cc-pvtz.gbs 
    atoms 2-3 entry CL         line   988 file /home/kchung25/anaconda3/envs/p415env/share/psi4/basis/aug-cc-pvtz.gbs 


         ---------------------------------------------------------
                                   SCF
               by Justin Turney, Rob Parrish, Andy Simmonett
                          and Daniel G. A. Smith
                              RHF Reference
                        6 Threads,  57220 MiB Core
         ---------------------------------------------------------

  ==> Geometry <==

    Molecular point group: c1
    Full point group: Cs

    Geometry (in Angstrom), charge = -1, multiplicity = 1:

       Center              X                  Y                   Z               Mass       
    ------------   -----------------  -----------------  -----------------  -----------------
         LI           0.000000000000     0.000000000000     0.000000000000     7.016003436600
         CL           0.000000000000     2.029797000000     0.000000000000    34.968852682000
         CL           2.638736000000     0.000000000000     0.000000000000    34.968852682000

  Running in c1 symmetry.

  Rotational constants: A =      0.11701  B =      0.06923  C =      0.04350 [cm^-1]
  Rotational constants: A =   3507.76591  B =   2075.60129  C =   1304.00226 [MHz]
  Nuclear repulsion =   69.461372871448162

  Charge       = -1
  Multiplicity = 1
  Electrons    = 38
  Nalpha       = 19
  Nbeta        = 19

  ==> Algorithm <==

  SCF Algorithm Type is DF.
  DIIS enabled.
  MOM disabled.
  Fractional occupation disabled.
  Guess Type is SAD.
  Energy threshold   = 1.00e-08
  Density threshold  = 1.00e-08
  Integral threshold = 1.00e-12

  ==> Primary Basis <==

  Basis Set: AUG-CC-PVTZ
    Blend: AUG-CC-PVTZ
    Number of shells: 46
    Number of basis functions: 146
    Number of Cartesian functions: 173
    Spherical Harmonics?: true
    Max angular momentum: 3

   => Loading Basis Set <=

    Name: (AUG-CC-PVTZ AUX)
    Role: JKFIT
    Keyword: DF_BASIS_SCF
    atoms 1   entry LI         line    54 file /home/kchung25/anaconda3/envs/p415env/share/psi4/basis/def2-universal-jkfit.gbs 
    atoms 2-3 entry CL         line   816 file /home/kchung25/anaconda3/envs/p415env/share/psi4/basis/aug-cc-pvtz-jkfit.gbs 

  ==> Integral Setup <==

  ==> DiskDFJK: Density-Fitted J/K Matrices <==

    J tasked:                  Yes
    K tasked:                  Yes
    wK tasked:                  No
    OpenMP threads:              6
    Integrals threads:           6
    Memory [MiB]:            42915
    Algorithm:                Core
    Integral Cache:           SAVE
    Schwarz Cutoff:          1E-12
    Fitting Condition:       1E-10

   => Auxiliary Basis Set <=

  Basis Set: (AUG-CC-PVTZ AUX)
    Blend: AUG-CC-PVTZ-JKFIT + DEF2-UNIVERSAL-JKFIT
    Number of shells: 101
    Number of basis functions: 343
    Number of Cartesian functions: 420
    Spherical Harmonics?: true
    Max angular momentum: 4

  Minimum eigenvalue in the overlap matrix is 5.2662825472E-04.
  Reciprocal condition number of the overlap matrix is 8.2910053848E-05.
    Using symmetric orthogonalization.

  ==> Pre-Iterations <==

  SCF Guess: Superposition of Atomic Densities via on-the-fly atomic UHF (no occupation information).

   -------------------------
    Irrep   Nso     Nmo    
   -------------------------
     A        146     146 
   -------------------------
    Total     146     146
   -------------------------

  ==> Iterations <==

                           Total Energy        Delta E     RMS |[F,P]|

   @DF-RHF iter SAD:  -925.71078581695951   -9.25711e+02   0.00000e+00 
   @DF-RHF iter   1:  -926.54887479370632   -8.38089e-01   2.81312e-03 ADIIS/DIIS
   @DF-RHF iter   2:  -926.64171197001667   -9.28372e-02   1.33550e-03 ADIIS/DIIS
   @DF-RHF iter   3:  -926.65588516078435   -1.41732e-02   8.68645e-05 DIIS
   @DF-RHF iter   4:  -926.65600833517772   -1.23174e-04   2.33886e-05 DIIS
   @DF-RHF iter   5:  -926.65602298217505   -1.46470e-05   7.32939e-06 DIIS
   @DF-RHF iter   6:  -926.65602449598111   -1.51381e-06   1.82152e-06 DIIS
   @DF-RHF iter   7:  -926.65602466382381   -1.67843e-07   3.84984e-07 DIIS
   @DF-RHF iter   8:  -926.65602466998962   -6.16581e-09   1.37378e-07 DIIS
   @DF-RHF iter   9:  -926.65602467084125   -8.51628e-10   3.05295e-08 DIIS
   @DF-RHF iter  10:  -926.65602467088968   -4.84306e-11   5.76945e-09 DIIS
  Energy and wave function converged.


  ==> Post-Iterations <==

    Orbital Energies [Eh]
    ---------------------

    Doubly Occupied:                                                      

       1A   -104.568388     2A   -104.541835     3A    -10.294544  
       4A    -10.265809     5A     -7.760708     6A     -7.760483  
       7A     -7.760415     8A     -7.731937     9A     -7.731802  
      10A     -7.731737    11A     -2.286297    12A     -0.814125  
      13A     -0.772546    14A     -0.253090    15A     -0.231266  
      16A     -0.224146    17A     -0.193412    18A     -0.185810  
      19A     -0.172236  

    Virtual:                                                              

      20A      0.077380    21A      0.091948    22A      0.092804  
      23A      0.106172    24A      0.130100    25A      0.161358  
      26A      0.170892    27A      0.196672    28A      0.223443  
      29A      0.232340    30A      0.235755    31A      0.237777  
      32A      0.248168    33A      0.257009    34A      0.265902  
      35A      0.282793    36A      0.282985    37A      0.293355  
      38A      0.306042    39A      0.308216    40A      0.310116  
      41A      0.349184    42A      0.396231    43A      0.427220  
      44A      0.450780    45A      0.458204    46A      0.461519  
      47A      0.466359    48A      0.469913    49A      0.476233  
      50A      0.482056    51A      0.488326    52A      0.500863  
      53A      0.525702    54A      0.547188    55A      0.551199  
      56A      0.566132    57A      0.574623    58A      0.606799  
      59A      0.622796    60A      0.639211    61A      0.644537  
      62A      0.662870    63A      0.668589    64A      0.692932  
      65A      0.699299    66A      0.712180    67A      0.732268  
      68A      0.760724    69A      0.828828    70A      0.885202  
      71A      0.904176    72A      0.912746    73A      0.918420  
      74A      0.925658    75A      0.937042    76A      0.938226  
      77A      0.975404    78A      0.991025    79A      1.001702  
      80A      1.018101    81A      1.024587    82A      1.045538  
      83A      1.092647    84A      1.096845    85A      1.112522  
      86A      1.195227    87A      1.199161    88A      1.215441  
      89A      1.231270    90A      1.248072    91A      1.259285  
      92A      1.297414    93A      1.316288    94A      1.317828  
      95A      1.348434    96A      1.397396    97A      1.404337  
      98A      1.439083    99A      1.453838   100A      1.460447  
     101A      1.481473   102A      1.490130   103A      1.537824  
     104A      1.569968   105A      1.605463   106A      1.632851  
     107A      1.679661   108A      1.688990   109A      1.762551  
     110A      1.782411   111A      1.801240   112A      1.899808  
     113A      1.921478   114A      2.820044   115A      2.828102  
     116A      2.848799   117A      2.856815   118A      2.870799  
     119A      2.873882   120A      2.882196   121A      2.891631  
     122A      2.892430   123A      2.933730   124A      3.054933  
     125A      3.073738   126A      3.134191   127A      3.203248  
     128A      3.274467   129A      3.298753   130A      3.307796  
     131A      3.345157   132A      3.348459   133A      3.366061  
     134A      3.378415   135A      3.403714   136A      3.406742  
     137A      3.455448   138A      3.462338   139A      3.489307  
     140A      3.504944   141A      3.534850   142A      3.569855  
     143A      3.723765   144A      3.986685   145A      6.015695  
     146A      6.284958  

    Final Occupation by Irrep:
              A 
    DOCC [    19 ]
    NA   [    19 ]
    NB   [    19 ]

  @DF-RHF Final Energy:  -926.65602467088968

   => Energetics <=

    Nuclear Repulsion Energy =             69.4613728714481624
    One-Electron Energy =               -1429.6736206433752159
    Two-Electron Energy =                 433.5562231010374035
    Total Energy =                       -926.6560246708895647

Computation Completed


Properties will be evaluated at   0.000000,   0.000000,   0.000000 [a0]

Properties computed using the SCF density matrix


 Multipole Moments:

 ------------------------------------------------------------------------------------
     Multipole            Electronic (a.u.)      Nuclear  (a.u.)        Total (a.u.)
 ------------------------------------------------------------------------------------

 L = 1.  Multiply by 2.5417464519 to convert [e a0] to [Debye]
 Dipole X            :        -88.9466215           84.7703021           -4.1763194
 Dipole Y            :        -68.1091943           65.2079271           -2.9012672
 Dipole Z            :          0.0000000            0.0000000            0.0000000
 Magnitude           :                                                    5.0851740

 ------------------------------------------------------------------------------------

*** tstop() called on moses-razer at Wed Jan  3 21:02:09 2024
Module time:
	user time   =       5.00 seconds =       0.08 minutes
	system time =       0.41 seconds =       0.01 minutes
	total time  =          1 seconds =       0.02 minutes
Total time:
	user time   =       5.00 seconds =       0.08 minutes
	system time =       0.41 seconds =       0.01 minutes
	total time  =          1 seconds =       0.02 minutes

  //>>>>>>>>>>>>>>>>>>>>>>>>>>>>>>>>>>>//
  //            Monomer A HF           //
  //<<<<<<<<<<<<<<<<<<<<<<<<<<<<<<<<<<<//

   => Libint2 <=

    Primary   basis highest AM E, G, H:  5, 4, 3
    Auxiliary basis highest AM E, G, H:  6, 5, 4
    Onebody   basis highest AM E, G, H:  6, 5, 4
    Solid Harmonics ordering:            gaussian

*** tstart() called on moses-razer
*** at Wed Jan  3 21:02:09 2024

   => Loading Basis Set <=

    Name: AUG-CC-PVTZ
    Role: ORBITAL
    Keyword: BASIS
    atoms 1   entry LI         line    85 file /home/kchung25/anaconda3/envs/p415env/share/psi4/basis/aug-cc-pvtz.gbs 
    atoms 2-3 entry CL         line   988 file /home/kchung25/anaconda3/envs/p415env/share/psi4/basis/aug-cc-pvtz.gbs 


         ---------------------------------------------------------
                                   SCF
               by Justin Turney, Rob Parrish, Andy Simmonett
                          and Daniel G. A. Smith
                              RHF Reference
                        6 Threads,  57220 MiB Core
         ---------------------------------------------------------

  ==> Geometry <==

    Molecular point group: c1
    Full point group: Cs

    Geometry (in Angstrom), charge = 0, multiplicity = 1:

       Center              X                  Y                   Z               Mass       
    ------------   -----------------  -----------------  -----------------  -----------------
         LI           0.000000000000     0.000000000000     0.000000000000     7.016003436600
         CL           0.000000000000     2.029797000000     0.000000000000    34.968852682000
      Gh(CL)          2.638736000000     0.000000000000     0.000000000000    34.968852682000

  Running in c1 symmetry.

  Rotational constants: A =      0.11701  B =      0.06923  C =      0.04350 [cm^-1]
  Rotational constants: A =   3507.76591  B =   2075.60129  C =   1304.00226 [MHz]
  Nuclear repulsion =   13.295929466922063

  Charge       = 0
  Multiplicity = 1
  Electrons    = 20
  Nalpha       = 10
  Nbeta        = 10

  ==> Algorithm <==

  SCF Algorithm Type is DF.
  DIIS enabled.
  MOM disabled.
  Fractional occupation disabled.
  Guess Type is SAD.
  Energy threshold   = 1.00e-08
  Density threshold  = 1.00e-08
  Integral threshold = 1.00e-12

  ==> Primary Basis <==

  Basis Set: AUG-CC-PVTZ
    Blend: AUG-CC-PVTZ
    Number of shells: 46
    Number of basis functions: 146
    Number of Cartesian functions: 173
    Spherical Harmonics?: true
    Max angular momentum: 3

   => Loading Basis Set <=

    Name: (AUG-CC-PVTZ AUX)
    Role: JKFIT
    Keyword: DF_BASIS_SCF
    atoms 1   entry LI         line    54 file /home/kchung25/anaconda3/envs/p415env/share/psi4/basis/def2-universal-jkfit.gbs 
    atoms 2-3 entry CL         line   816 file /home/kchung25/anaconda3/envs/p415env/share/psi4/basis/aug-cc-pvtz-jkfit.gbs 

  ==> Integral Setup <==

  ==> DiskDFJK: Density-Fitted J/K Matrices <==

    J tasked:                  Yes
    K tasked:                  Yes
    wK tasked:                  No
    OpenMP threads:              6
    Integrals threads:           6
    Memory [MiB]:            42915
    Algorithm:                Core
    Integral Cache:           LOAD
    Schwarz Cutoff:          1E-12
    Fitting Condition:       1E-10

   => Auxiliary Basis Set <=

  Basis Set: (AUG-CC-PVTZ AUX)
    Blend: AUG-CC-PVTZ-JKFIT + DEF2-UNIVERSAL-JKFIT
    Number of shells: 101
    Number of basis functions: 343
    Number of Cartesian functions: 420
    Spherical Harmonics?: true
    Max angular momentum: 4

  Minimum eigenvalue in the overlap matrix is 5.2662825472E-04.
  Reciprocal condition number of the overlap matrix is 8.2910053848E-05.
    Using symmetric orthogonalization.

  ==> Pre-Iterations <==

  SCF Guess: Superposition of Atomic Densities via on-the-fly atomic UHF (no occupation information).

   -------------------------
    Irrep   Nso     Nmo    
   -------------------------
     A        146     146 
   -------------------------
    Total     146     146
   -------------------------

  ==> Iterations <==

                           Total Energy        Delta E     RMS |[F,P]|

   @DF-RHF iter SAD:  -466.52813914139165   -4.66528e+02   0.00000e+00 
   @DF-RHF iter   1:  -467.00428787669307   -4.76149e-01   1.94623e-03 ADIIS/DIIS
   @DF-RHF iter   2:  -467.04624534919867   -4.19575e-02   8.76835e-04 ADIIS/DIIS
   @DF-RHF iter   3:  -467.05204119351527   -5.79584e-03   5.47629e-05 DIIS
   @DF-RHF iter   4:  -467.05208226875101   -4.10752e-05   1.17004e-05 DIIS
   @DF-RHF iter   5:  -467.05208538732711   -3.11858e-06   3.02279e-06 DIIS
   @DF-RHF iter   6:  -467.05208558136752   -1.94040e-07   6.69582e-07 DIIS
   @DF-RHF iter   7:  -467.05208560275537   -2.13878e-08   9.39961e-08 DIIS
   @DF-RHF iter   8:  -467.05208560325150   -4.96129e-10   1.47551e-08 DIIS
   @DF-RHF iter   9:  -467.05208560326355   -1.20508e-11   2.98471e-09 DIIS
  Energy and wave function converged.


  ==> Post-Iterations <==

    Orbital Energies [Eh]
    ---------------------

    Doubly Occupied:                                                      

       1A   -104.729696     2A    -10.455270     3A     -7.921448  
       4A     -7.921177     5A     -7.921170     6A     -2.481178  
       7A     -0.972354     8A     -0.407274     9A     -0.379545  
      10A     -0.379531  

    Virtual:                                                              

      11A     -0.015549    12A      0.015423    13A      0.015841  
      14A      0.019125    15A      0.027102    16A      0.048423  
      17A      0.050764    18A      0.070419    19A      0.085427  
      20A      0.099910    21A      0.108338    22A      0.114199  
      23A      0.120465    24A      0.121030    25A      0.130252  
      26A      0.142770    27A      0.147338    28A      0.153133  
      29A      0.157487    30A      0.178463    31A      0.182868  
      32A      0.188499    33A      0.216683    34A      0.244894  
      35A      0.282454    36A      0.300595    37A      0.300991  
      38A      0.319330    39A      0.323831    40A      0.324746  
      41A      0.327397    42A      0.336430    43A      0.341765  
      44A      0.352782    45A      0.377688    46A      0.382538  
      47A      0.404624    48A      0.411854    49A      0.425927  
      50A      0.449894    51A      0.470116    52A      0.482185  
      53A      0.488322    54A      0.498332    55A      0.499796  
      56A      0.519404    57A      0.533740    58A      0.548980  
      59A      0.559071    60A      0.586758    61A      0.629014  
      62A      0.659103    63A      0.676956    64A      0.721703  
      65A      0.725064    66A      0.752755    67A      0.756183  
      68A      0.766022    69A      0.780520    70A      0.791170  
      71A      0.797229    72A      0.813690    73A      0.854686  
      74A      0.867362    75A      0.899562    76A      0.935420  
      77A      0.935504    78A      0.964117    79A      1.049733  
      80A      1.091338    81A      1.117143    82A      1.181946  
      83A      1.187913    84A      1.221116    85A      1.236081  
      86A      1.284579    87A      1.295495    88A      1.326199  
      89A      1.331780    90A      1.337651    91A      1.377822  
      92A      1.392928    93A      1.414895    94A      1.449066  
      95A      1.454704    96A      1.492802    97A      1.520267  
      98A      1.524729    99A      1.539755   100A      1.555975  
     101A      1.611300   102A      1.613715   103A      1.629329  
     104A      1.645135   105A      1.660336   106A      1.711707  
     107A      1.795732   108A      1.848364   109A      2.685461  
     110A      2.695459   111A      2.717100   112A      2.736808  
     113A      2.757985   114A      2.976463   115A      3.035194  
     116A      3.130385   117A      3.178038   118A      3.203398  
     119A      3.224122   120A      3.261149   121A      3.312735  
     122A      3.329006   123A      3.405374   124A      3.776273  
     125A      3.919822   126A      3.921545   127A      3.961028  
     128A      3.967918   129A      3.983460   130A      4.012568  
     131A      4.051725   132A      4.081220   133A      4.140908  
     134A      4.197995   135A      4.405394   136A      4.670934  
     137A      4.679549   138A      4.739480   139A      4.755161  
     140A      4.780422   141A      6.099039   142A     14.312867  
     143A     27.776226   144A     27.825570   145A     28.056231  
     146A    160.794809  

    Final Occupation by Irrep:
              A 
    DOCC [    10 ]
    NA   [    10 ]
    NB   [    10 ]

  @DF-RHF Final Energy:  -467.05208560326355

   => Energetics <=

    Nuclear Repulsion Energy =             13.2959294669220629
    One-Electron Energy =                -673.5587432662837273
    Two-Electron Energy =                 193.2107281960981027
    Total Energy =                       -467.0520856032635493

Computation Completed


Properties will be evaluated at   0.000000,   0.000000,   0.000000 [a0]

Properties computed using the SCF density matrix


 Multipole Moments:

 ------------------------------------------------------------------------------------
     Multipole            Electronic (a.u.)      Nuclear  (a.u.)        Total (a.u.)
 ------------------------------------------------------------------------------------

 L = 1.  Multiply by 2.5417464519 to convert [e a0] to [Debye]
 Dipole X            :         -0.0000490            0.0000000           -0.0000490
 Dipole Y            :        -68.0891309           65.2079271           -2.8812038
 Dipole Z            :         -0.0000000            0.0000000           -0.0000000
 Magnitude           :                                                    2.8812038

 ------------------------------------------------------------------------------------

*** tstop() called on moses-razer at Wed Jan  3 21:02:10 2024
Module time:
	user time   =       3.97 seconds =       0.07 minutes
	system time =       0.28 seconds =       0.00 minutes
	total time  =          1 seconds =       0.02 minutes
Total time:
	user time   =       9.00 seconds =       0.15 minutes
	system time =       0.69 seconds =       0.01 minutes
	total time  =          2 seconds =       0.03 minutes

  //>>>>>>>>>>>>>>>>>>>>>>>>>>>>>>>>>>>//
  //            Monomer B HF           //
  //<<<<<<<<<<<<<<<<<<<<<<<<<<<<<<<<<<<//

   => Libint2 <=

    Primary   basis highest AM E, G, H:  5, 4, 3
    Auxiliary basis highest AM E, G, H:  6, 5, 4
    Onebody   basis highest AM E, G, H:  6, 5, 4
    Solid Harmonics ordering:            gaussian

*** tstart() called on moses-razer
*** at Wed Jan  3 21:02:10 2024

   => Loading Basis Set <=

    Name: AUG-CC-PVTZ
    Role: ORBITAL
    Keyword: BASIS
    atoms 1   entry LI         line    85 file /home/kchung25/anaconda3/envs/p415env/share/psi4/basis/aug-cc-pvtz.gbs 
    atoms 2-3 entry CL         line   988 file /home/kchung25/anaconda3/envs/p415env/share/psi4/basis/aug-cc-pvtz.gbs 


         ---------------------------------------------------------
                                   SCF
               by Justin Turney, Rob Parrish, Andy Simmonett
                          and Daniel G. A. Smith
                              RHF Reference
                        6 Threads,  57220 MiB Core
         ---------------------------------------------------------

  ==> Geometry <==

    Molecular point group: c1
    Full point group: Cs

    Geometry (in Angstrom), charge = -1, multiplicity = 1:

       Center              X                  Y                   Z               Mass       
    ------------   -----------------  -----------------  -----------------  -----------------
      Gh(LI)          0.000000000000     0.000000000000     0.000000000000     7.016003436600
      Gh(CL)          0.000000000000     2.029797000000     0.000000000000    34.968852682000
         CL           2.638736000000     0.000000000000     0.000000000000    34.968852682000

  Running in c1 symmetry.

  Rotational constants: A =      0.11701  B =      0.06923  C =      0.04350 [cm^-1]
  Rotational constants: A =   3507.76591  B =   2075.60129  C =   1304.00226 [MHz]
  Nuclear repulsion =    0.000000000000000

  Charge       = -1
  Multiplicity = 1
  Electrons    = 18
  Nalpha       = 9
  Nbeta        = 9

  ==> Algorithm <==

  SCF Algorithm Type is DF.
  DIIS enabled.
  MOM disabled.
  Fractional occupation disabled.
  Guess Type is SAD.
  Energy threshold   = 1.00e-08
  Density threshold  = 1.00e-08
  Integral threshold = 1.00e-12

  ==> Primary Basis <==

  Basis Set: AUG-CC-PVTZ
    Blend: AUG-CC-PVTZ
    Number of shells: 46
    Number of basis functions: 146
    Number of Cartesian functions: 173
    Spherical Harmonics?: true
    Max angular momentum: 3

   => Loading Basis Set <=

    Name: (AUG-CC-PVTZ AUX)
    Role: JKFIT
    Keyword: DF_BASIS_SCF
    atoms 1   entry LI         line    54 file /home/kchung25/anaconda3/envs/p415env/share/psi4/basis/def2-universal-jkfit.gbs 
    atoms 2-3 entry CL         line   816 file /home/kchung25/anaconda3/envs/p415env/share/psi4/basis/aug-cc-pvtz-jkfit.gbs 

  ==> Integral Setup <==

  ==> DiskDFJK: Density-Fitted J/K Matrices <==

    J tasked:                  Yes
    K tasked:                  Yes
    wK tasked:                  No
    OpenMP threads:              6
    Integrals threads:           6
    Memory [MiB]:            42915
    Algorithm:                Core
    Integral Cache:           LOAD
    Schwarz Cutoff:          1E-12
    Fitting Condition:       1E-10

   => Auxiliary Basis Set <=

  Basis Set: (AUG-CC-PVTZ AUX)
    Blend: AUG-CC-PVTZ-JKFIT + DEF2-UNIVERSAL-JKFIT
    Number of shells: 101
    Number of basis functions: 343
    Number of Cartesian functions: 420
    Spherical Harmonics?: true
    Max angular momentum: 4

  Minimum eigenvalue in the overlap matrix is 5.2662825472E-04.
  Reciprocal condition number of the overlap matrix is 8.2910053848E-05.
    Using symmetric orthogonalization.

  ==> Pre-Iterations <==

  SCF Guess: Superposition of Atomic Densities via on-the-fly atomic UHF (no occupation information).

   -------------------------
    Irrep   Nso     Nmo    
   -------------------------
     A        146     146 
   -------------------------
    Total     146     146
   -------------------------

  ==> Iterations <==

                           Total Energy        Delta E     RMS |[F,P]|

   @DF-RHF iter SAD:  -459.11248996882546   -4.59112e+02   0.00000e+00 
   @DF-RHF iter   1:  -459.51385679054118   -4.01367e-01   2.04327e-03 ADIIS/DIIS
   @DF-RHF iter   2:  -459.56474786130104   -5.08911e-02   1.04528e-03 ADIIS/DIIS
   @DF-RHF iter   3:  -459.57345228356570   -8.70442e-03   6.92343e-05 DIIS
   @DF-RHF iter   4:  -459.57350671914242   -5.44356e-05   1.42108e-05 DIIS
   @DF-RHF iter   5:  -459.57351037040871   -3.65127e-06   1.45013e-06 DIIS
   @DF-RHF iter   6:  -459.57351044909336   -7.86846e-08   1.13003e-07 DIIS
   @DF-RHF iter   7:  -459.57351044976201   -6.68649e-10   1.39895e-08 DIIS
   @DF-RHF iter   8:  -459.57351044977906   -1.70530e-11   2.15588e-09 DIIS
  Energy and wave function converged.


  ==> Post-Iterations <==

    Orbital Energies [Eh]
    ---------------------

    Doubly Occupied:                                                      

       1A   -104.506431     2A    -10.229859     3A     -7.695915  
       4A     -7.695909     5A     -7.695884     6A     -0.733500  
       7A     -0.150338     8A     -0.150324     9A     -0.150323  

    Virtual:                                                              

      10A      0.079555    11A      0.091713    12A      0.092616  
      13A      0.105878    14A      0.150737    15A      0.166372  
      16A      0.170884    17A      0.188077    18A      0.216816  
      19A      0.224196    20A      0.238295    21A      0.242646  
      22A      0.258702    23A      0.270142    24A      0.270269  
      25A      0.273633    26A      0.281168    27A      0.292215  
      28A      0.307988    29A      0.314476    30A      0.346523  
      31A      0.351061    32A      0.394427    33A      0.415791  
      34A      0.443138    35A      0.468189    36A      0.473757  
      37A      0.482143    38A      0.492277    39A      0.493609  
      40A      0.499371    41A      0.513221    42A      0.513923  
      43A      0.527842    44A      0.533134    45A      0.542354  
      46A      0.629163    47A      0.630160    48A      0.635876  
      49A      0.656150    50A      0.662343    51A      0.670853  
      52A      0.677419    53A      0.686924    54A      0.697248  
      55A      0.710801    56A      0.734179    57A      0.740156  
      58A      0.749638    59A      0.776759    60A      0.856495  
      61A      0.942967    62A      0.958821    63A      0.972421  
      64A      0.985478    65A      1.000530    66A      1.007477  
      67A      1.024264    68A      1.028130    69A      1.045951  
      70A      1.072024    71A      1.098904    72A      1.106745  
      73A      1.127014    74A      1.169113    75A      1.199154  
      76A      1.251111    77A      1.266188    78A      1.275052  
      79A      1.283134    80A      1.361088    81A      1.363204  
      82A      1.371255    83A      1.400024    84A      1.425165  
      85A      1.477042    86A      1.490922    87A      1.516454  
      88A      1.547507    89A      1.564477    90A      1.577636  
      91A      1.605027    92A      1.621035    93A      1.635683  
      94A      1.694227    95A      1.695819    96A      1.722036  
      97A      1.727708    98A      1.743330    99A      1.768783  
     100A      1.793374   101A      1.849245   102A      1.868566  
     103A      1.983055   104A      2.018343   105A      2.032310  
     106A      2.104316   107A      2.184886   108A      2.566458  
     109A      2.866868   110A      2.874748   111A      2.923843  
     112A      2.933321   113A      2.961534   114A      3.091582  
     115A      3.132428   116A      3.312440   117A      3.387648  
     118A      3.393588   119A      3.429315   120A      3.472081  
     121A      3.535608   122A      3.583724   123A      3.612853  
     124A      4.118953   125A      4.134438   126A      4.211047  
     127A      4.212647   128A      4.217213   129A      4.237258  
     130A      4.293867   131A      4.314536   132A      4.386863  
     133A      4.452651   134A      4.693676   135A      4.886256  
     136A      4.899983   137A      4.958048   138A      4.984439  
     139A      5.103068   140A      6.086547   141A     11.264489  
     142A     14.747246   143A     28.062187   144A     28.149658  
     145A     28.322451   146A    161.014980  

    Final Occupation by Irrep:
              A 
    DOCC [     9 ]
    NA   [     9 ]
    NB   [     9 ]

  @DF-RHF Final Energy:  -459.57351044977906

   => Energetics <=

    Nuclear Repulsion Energy =              0.0000000000000000
    One-Electron Energy =                -641.1300531689987565
    Two-Electron Energy =                 181.5565427192196921
    Total Energy =                       -459.5735104497790644

Computation Completed


Properties will be evaluated at   0.000000,   0.000000,   0.000000 [a0]

Properties computed using the SCF density matrix


 Multipole Moments:

 ------------------------------------------------------------------------------------
     Multipole            Electronic (a.u.)      Nuclear  (a.u.)        Total (a.u.)
 ------------------------------------------------------------------------------------

 L = 1.  Multiply by 2.5417464519 to convert [e a0] to [Debye]
 Dipole X            :        -89.7574081           84.7703021           -4.9871061
 Dipole Y            :          0.0001215            0.0000000            0.0001215
 Dipole Z            :          0.0000000            0.0000000            0.0000000
 Magnitude           :                                                    4.9871061

 ------------------------------------------------------------------------------------

*** tstop() called on moses-razer at Wed Jan  3 21:02:11 2024
Module time:
	user time   =       3.47 seconds =       0.06 minutes
	system time =       0.25 seconds =       0.00 minutes
	total time  =          1 seconds =       0.02 minutes
Total time:
	user time   =      12.50 seconds =       0.21 minutes
	system time =       0.94 seconds =       0.02 minutes
	total time  =          3 seconds =       0.05 minutes
  Constructing Basis Sets for SAPT...

   => Loading Basis Set <=

    Name: (AUG-CC-PVTZ AUX)
    Role: RIFIT
    Keyword: DF_BASIS_SAPT
    atoms 1   entry LI         line    90 file /home/kchung25/anaconda3/envs/p415env/share/psi4/basis/def2-qzvpp-ri.gbs 
    atoms 2-3 entry CL         line   742 file /home/kchung25/anaconda3/envs/p415env/share/psi4/basis/aug-cc-pvtz-ri.gbs 

   => Loading Basis Set <=

    Name: (AUG-CC-PVTZ AUX)
    Role: JKFIT
    Keyword: DF_BASIS_ELST
    atoms 1   entry LI         line    54 file /home/kchung25/anaconda3/envs/p415env/share/psi4/basis/def2-universal-jkfit.gbs 
    atoms 2-3 entry CL         line   816 file /home/kchung25/anaconda3/envs/p415env/share/psi4/basis/aug-cc-pvtz-jkfit.gbs 


  //>>>>>>>>>>>>>>>>>>>>>>>>>>>>>>>>>>>//
  //               SAPT2+              //
  //<<<<<<<<<<<<<<<<<<<<<<<<<<<<<<<<<<<//


*** tstart() called on moses-razer
*** at Wed Jan  3 21:02:11 2024

        SAPT2+  
    Ed Hohenstein
     6 June 2009

      Orbital Information
  --------------------------
    NSO        =       146
    NMO        =       146
    NRI        =       395
    NOCC A     =        10
    NOCC B     =         9
    FOCC A     =         0
    FOCC B     =         0
    NVIR A     =       136
    NVIR B     =       137

    Estimated memory usage: 104.4 MB

    Natural Orbital Cutoff:   1.000E-06
    Disp(T3) Truncation:            Yes
    CCD (vv|vv) Truncation:         Yes
    MBPT T2 Truncation:             Yes

    Monomer A: 66 virtual orbitals dropped
    Monomer B: 77 virtual orbitals dropped

    Elst10,r            =    -0.038534281278 [Eh]
    Exch10 (S^2)        =     0.023592219590 [Eh]
    Exch10              =     0.023924454628 [Eh]
    Ind20,r (A<-B)      =    -0.013546836330 [Eh]
    Ind20,r (B<-A)      =    -0.025599410940 [Eh]
    Ind20,r             =    -0.039146247270 [Eh]
    Exch-Ind20,r (A<-B) =     0.007374513887 [Eh]
    Exch-Ind20,r (B<-A) =     0.018395172924 [Eh]
    Exch-Ind20,r        =     0.025769686811 [Eh]
    Disp20              =    -0.009625226374 [Eh]
    Disp20 (NO)         =    -0.008457099254 [Eh]
    Exch-Disp20         =     0.002914697737 [Eh]
    Elst12,r            =    -0.001087509012 [Eh]
    Exch11              =     0.000941023095 [Eh]
    Exch12              =     0.001812542618 [Eh]
    Ind22               =    -0.004570999873 [Eh]
    Disp21              =     0.001134057493 [Eh]
    Disp22 (SDQ)        =     0.000091876557 [Eh]

    (i =   1 of   9)          0 seconds
    (i =   2 of   9)          1 seconds
    (i =   3 of   9)          1 seconds
    (i =   4 of   9)          1 seconds
    (i =   5 of   9)          2 seconds
    (i =   6 of   9)          2 seconds
    (i =   7 of   9)          2 seconds
    (i =   8 of   9)          3 seconds
    (i =   9 of   9)          3 seconds

    Disp220 (T)         =    -0.000762207001 [Eh]

    (i =   1 of  10)          0 seconds
    (i =   2 of  10)          0 seconds
    (i =   3 of  10)          1 seconds
    (i =   4 of  10)          1 seconds
    (i =   5 of  10)          1 seconds
    (i =   6 of  10)          1 seconds
    (i =   7 of  10)          1 seconds
    (i =   8 of  10)          2 seconds
    (i =   9 of  10)          2 seconds
    (i =  10 of  10)          2 seconds

    Disp202 (T)         =    -0.000772687690 [Eh]

    Disp22 (T)          =    -0.001534894691 [Eh]

    Est. Disp220 (T)    =    -0.000867485968 [Eh]
    Est. Disp202 (T)    =    -0.000879414289 [Eh]

    Est. Disp22 (T)     =    -0.001746900257 [Eh]

    SAPT Results 
  --------------------------------------------------------------------------------------------------------
    Electrostatics                -39.62179029 [mEh]     -24.86304878 [kcal/mol]    -104.02699607 [kJ/mol]
      Elst10,r                    -38.53428128 [mEh]     -24.18062657 [kcal/mol]    -101.17174156 [kJ/mol]
      Elst12,r                     -1.08750901 [mEh]      -0.68242221 [kcal/mol]      -2.85525452 [kJ/mol]

    Exchange                       26.67802034 [mEh]      16.74071051 [kcal/mol]      70.04313276 [kJ/mol]
      Exch10                       23.92445463 [mEh]      15.01282193 [kcal/mol]      62.81364697 [kJ/mol]
      Exch10(S^2)                  23.59221959 [mEh]      14.80434130 [kcal/mol]      61.94136400 [kJ/mol]
      Exch11(S^2)                   0.94102309 [mEh]       0.59050091 [kcal/mol]       2.47065580 [kJ/mol]
      Exch12(S^2)                   1.81254262 [mEh]       1.13738766 [kcal/mol]       4.75882999 [kJ/mol]

    Induction                     -17.38073546 [mEh]     -10.90657616 [kcal/mol]     -45.63311465 [kJ/mol]
      Ind20,r                     -39.14624727 [mEh]     -24.56464102 [kcal/mol]    -102.77845805 [kJ/mol]
      Ind22                        -4.57099987 [mEh]      -2.86834573 [kcal/mol]     -12.00115851 [kJ/mol]
      Exch-Ind20,r                 25.76968681 [mEh]      16.17072261 [kcal/mol]      67.65830340 [kJ/mol]
      Exch-Ind22                    3.00905561 [mEh]       1.88821091 [kcal/mol]       7.90027443 [kJ/mol]
      delta HF,r (2)               -2.44223074 [mEh]      -1.53252293 [kcal/mol]      -6.41207592 [kJ/mol]

    Dispersion                     -7.23149484 [mEh]      -4.53783152 [kcal/mol]     -18.98628710 [kJ/mol]
      Disp20                       -9.62522637 [mEh]      -6.03992074 [kcal/mol]     -25.27102836 [kJ/mol]
      Disp21                        1.13405749 [mEh]       0.71163182 [kcal/mol]       2.97746754 [kJ/mol]
      Disp22 (SDQ)                  0.09187656 [mEh]       0.05765341 [kcal/mol]       0.24122187 [kJ/mol]
      Disp22 (T)                   -1.53489469 [mEh]      -0.96316096 [kcal/mol]      -4.02986546 [kJ/mol]
      Est. Disp22 (T)              -1.74690026 [mEh]      -1.09619646 [kcal/mol]      -4.58648599 [kJ/mol]
      Exch-Disp20                   2.91469774 [mEh]       1.82900044 [kcal/mol]       7.65253785 [kJ/mol]

  Total HF                        -30.42861785 [mEh]     -19.09424597 [kcal/mol]     -79.89032515 [kJ/mol]
  Total SAPT0                     -37.13914648 [mEh]     -23.30516627 [kcal/mol]     -97.50881566 [kJ/mol]
  Total SAPT2                     -37.03503404 [mEh]     -23.23983472 [kcal/mol]     -97.23546848 [kJ/mol]
  Total SAPT2+                    -37.55600025 [mEh]     -23.56674595 [kcal/mol]     -98.60326507 [kJ/mol]

  Special recipe for scaled SAPT0 (see Manual):
    Electrostatics sSAPT0         -38.53428128 [mEh]     -24.18062657 [kcal/mol]    -101.17174156 [kJ/mol]
    Exchange sSAPT0                23.92445463 [mEh]      15.01282193 [kcal/mol]      62.81364697 [kJ/mol]
    Induction sSAPT0              -14.71469076 [mEh]      -9.23360786 [kcal/mol]     -38.63341528 [kJ/mol]
    Dispersion sSAPT0              -6.58564862 [mEh]      -4.13255690 [kcal/mol]     -17.29061806 [kJ/mol]
  Total sSAPT0                    -35.91016603 [mEh]     -22.53396939 [kcal/mol]     -94.28212792 [kJ/mol]
  --------------------------------------------------------------------------------------------------------

*** tstop() called on moses-razer at Wed Jan  3 21:02:21 2024
Module time:
	user time   =      56.08 seconds =       0.93 minutes
	system time =       1.84 seconds =       0.03 minutes
	total time  =         10 seconds =       0.17 minutes
Total time:
	user time   =      68.94 seconds =       1.15 minutes
	system time =       2.78 seconds =       0.05 minutes
	total time  =         13 seconds =       0.22 minutes

    Psi4 stopped on: Wednesday, 03 January 2024 09:02PM
    Psi4 wall time for execution: 0:00:13.63

*** Psi4 exiting successfully. Buy a developer a beer!
