
    -----------------------------------------------------------------------
          Psi4: An Open-Source Ab Initio Electronic Structure Package
                               Psi4 1.9 release

                         Git: Rev {} zzzzzzz 


    D. G. A. Smith, L. A. Burns, A. C. Simmonett, R. M. Parrish,
    M. C. Schieber, R. Galvelis, P. Kraus, H. Kruse, R. Di Remigio,
    A. Alenaizan, A. M. James, S. Lehtola, J. P. Misiewicz, M. Scheurer,
    R. A. Shaw, J. B. Schriber, Y. Xie, Z. L. Glick, D. A. Sirianni,
    J. S. O'Brien, J. M. Waldrop, A. Kumar, E. G. Hohenstein,
    B. P. Pritchard, B. R. Brooks, H. F. Schaefer III, A. Yu. Sokolov,
    K. Patkowski, A. E. DePrince III, U. Bozkaya, R. A. King,
    F. A. Evangelista, J. M. Turney, T. D. Crawford, C. D. Sherrill,
    J. Chem. Phys. 152(18) 184108 (2020). https://doi.org/10.1063/5.0006002

                            Additional Code Authors
    E. T. Seidl, C. L. Janssen, E. F. Valeev, M. L. Leininger,
    J. F. Gonthier, R. M. Richard, H. R. McAlexander, M. Saitow, X. Wang,
    P. Verma, M. H. Lechner, A. Jiang, S. Behnle, A. G. Heide,
    M. F. Herbst, and D. L. Poole

             Previous Authors, Complete List of Code Contributors,
                       and Citations for Specific Modules
    https://github.com/psi4/psi4/blob/master/codemeta.json
    https://github.com/psi4/psi4/graphs/contributors
    http://psicode.org/psi4manual/master/introduction.html#citing-psifour

    -----------------------------------------------------------------------


    Psi4 started on: Wednesday, 03 January 2024 09:15PM

    Process ID: 439484
    Host:       moses-razer
    PSIDATADIR: /home/kchung25/anaconda3/envs/psi4_19/share/psi4
    Memory:     500.0 MiB
    Threads:    6
    
  ==> Input File <==

--------------------------------------------------------------------------
MEMORY 60 GB

molecule dimer {
0 1
F      0.000000     0.000000     0.000000
Na     0.000000     1.939580     0.000000
--
1 1
Na     2.133538     0.000000     0.000000

units ang
no_reorient
no_com
symmetry c1
}

set {
basis        aug-cc-pVTZ
scf_type     df
}

energy("sapt2+")
--------------------------------------------------------------------------

  Memory set to  55.879 GiB by Python driver.

Scratch directory: /scratch/
   => Loading Basis Set <=

    Name: AUG-CC-PVTZ
    Role: ORBITAL
    Keyword: BASIS
    atoms 1   entry F          line   377 file /home/kchung25/anaconda3/envs/p415env/share/psi4/basis/aug-cc-pvtz.gbs 
    atoms 2-3 entry NA         line   469 file /home/kchung25/anaconda3/envs/p415env/share/psi4/basis/aug-cc-pvtz.gbs 

   => Loading Basis Set <=

    Name: AUG-CC-PVTZ
    Role: ORBITAL
    Keyword: BASIS
    atoms 1   entry F          line   377 file /home/kchung25/anaconda3/envs/p415env/share/psi4/basis/aug-cc-pvtz.gbs 
    atoms 2-3 entry NA         line   469 file /home/kchung25/anaconda3/envs/p415env/share/psi4/basis/aug-cc-pvtz.gbs 


  //>>>>>>>>>>>>>>>>>>>>>>>>>>>>>>>>>>>//
  //              Dimer HF             //
  //<<<<<<<<<<<<<<<<<<<<<<<<<<<<<<<<<<<//

   => Libint2 <=

    Primary   basis highest AM E, G, H:  5, 4, 3
    Auxiliary basis highest AM E, G, H:  6, 5, 4
    Onebody   basis highest AM E, G, H:  6, 5, 4
    Solid Harmonics ordering:            gaussian

*** tstart() called on moses-razer
*** at Wed Jan  3 21:15:26 2024

   => Loading Basis Set <=

    Name: AUG-CC-PVTZ
    Role: ORBITAL
    Keyword: BASIS
    atoms 1   entry F          line   377 file /home/kchung25/anaconda3/envs/p415env/share/psi4/basis/aug-cc-pvtz.gbs 
    atoms 2-3 entry NA         line   469 file /home/kchung25/anaconda3/envs/p415env/share/psi4/basis/aug-cc-pvtz.gbs 


         ---------------------------------------------------------
                                   SCF
               by Justin Turney, Rob Parrish, Andy Simmonett
                          and Daniel G. A. Smith
                              RHF Reference
                        6 Threads,  57220 MiB Core
         ---------------------------------------------------------

  ==> Geometry <==

    Molecular point group: c1
    Full point group: Cs

    Geometry (in Angstrom), charge = 1, multiplicity = 1:

       Center              X                  Y                   Z               Mass       
    ------------   -----------------  -----------------  -----------------  -----------------
         F            0.000000000000     0.000000000000     0.000000000000    18.998403162730
         NA           0.000000000000     1.939580000000     0.000000000000    22.989769282000
         NA           2.133538000000     0.000000000000     0.000000000000    22.989769282000

  Running in c1 symmetry.

  Rotational constants: A =      0.19492  B =      0.16109  C =      0.08820 [cm^-1]
  Rotational constants: A =   5843.42120  B =   4829.27372  C =   2644.08199 [MHz]
  Nuclear repulsion =   73.771656476102180

  Charge       = 1
  Multiplicity = 1
  Electrons    = 30
  Nalpha       = 15
  Nbeta        = 15

  ==> Algorithm <==

  SCF Algorithm Type is DF.
  DIIS enabled.
  MOM disabled.
  Fractional occupation disabled.
  Guess Type is SAD.
  Energy threshold   = 1.00e-08
  Density threshold  = 1.00e-08
  Integral threshold = 1.00e-12

  ==> Primary Basis <==

  Basis Set: AUG-CC-PVTZ
    Blend: AUG-CC-PVTZ
    Number of shells: 46
    Number of basis functions: 146
    Number of Cartesian functions: 173
    Spherical Harmonics?: true
    Max angular momentum: 3

   => Loading Basis Set <=

    Name: (AUG-CC-PVTZ AUX)
    Role: JKFIT
    Keyword: DF_BASIS_SCF
    atoms 1   entry F          line   348 file /home/kchung25/anaconda3/envs/p415env/share/psi4/basis/aug-cc-pvtz-jkfit.gbs 
    atoms 2-3 entry NA         line   498 file /home/kchung25/anaconda3/envs/p415env/share/psi4/basis/def2-universal-jkfit.gbs 

  ==> Integral Setup <==

  ==> DiskDFJK: Density-Fitted J/K Matrices <==

    J tasked:                  Yes
    K tasked:                  Yes
    wK tasked:                  No
    OpenMP threads:              6
    Integrals threads:           6
    Memory [MiB]:            42915
    Algorithm:                Core
    Integral Cache:           SAVE
    Schwarz Cutoff:          1E-12
    Fitting Condition:       1E-10

   => Auxiliary Basis Set <=

  Basis Set: (AUG-CC-PVTZ AUX)
    Blend: AUG-CC-PVTZ-JKFIT + DEF2-UNIVERSAL-JKFIT
    Number of shells: 98
    Number of basis functions: 328
    Number of Cartesian functions: 405
    Spherical Harmonics?: true
    Max angular momentum: 4

  Minimum eigenvalue in the overlap matrix is 4.8211666631E-05.
  Reciprocal condition number of the overlap matrix is 6.6351293595E-06.
    Using symmetric orthogonalization.

  ==> Pre-Iterations <==

  SCF Guess: Superposition of Atomic Densities via on-the-fly atomic UHF (no occupation information).

   -------------------------
    Irrep   Nso     Nmo    
   -------------------------
     A        146     146 
   -------------------------
    Total     146     146
   -------------------------

  ==> Iterations <==

                           Total Energy        Delta E     RMS |[F,P]|

   @DF-RHF iter SAD:  -422.42318370460112   -4.22423e+02   0.00000e+00 
   @DF-RHF iter   1:  -423.00079836880695   -5.77615e-01   3.68420e-03 ADIIS/DIIS
   @DF-RHF iter   2:  -423.05005457846272   -4.92562e-02   3.07112e-03 ADIIS/DIIS
   @DF-RHF iter   3:  -423.10131512515613   -5.12605e-02   1.06834e-04 ADIIS/DIIS
   @DF-RHF iter   4:  -423.10140735186837   -9.22267e-05   2.15265e-05 DIIS
   @DF-RHF iter   5:  -423.10141408882384   -6.73696e-06   4.71255e-06 DIIS
   @DF-RHF iter   6:  -423.10141474367504   -6.54851e-07   1.04481e-06 DIIS
   @DF-RHF iter   7:  -423.10141478628265   -4.26076e-08   2.64444e-07 DIIS
   @DF-RHF iter   8:  -423.10141478870668   -2.42403e-09   5.37370e-08 DIIS
   @DF-RHF iter   9:  -423.10141478878808   -8.13998e-11   9.42275e-09 DIIS
  Energy and wave function converged.


  ==> Post-Iterations <==

    Orbital Energies [Eh]
    ---------------------

    Doubly Occupied:                                                      

       1A    -40.676925     2A    -40.647659     3A    -26.298531  
       4A     -2.995092     5A     -2.971760     6A     -1.720554  
       7A     -1.718601     8A     -1.717748     9A     -1.699061  
      10A     -1.695900    11A     -1.694895    12A     -1.556325  
      13A     -0.673353    14A     -0.669521    15A     -0.661131  

    Virtual:                                                              

      16A     -0.164351    17A     -0.118541    18A     -0.099164  
      19A     -0.085860    20A     -0.071678    21A     -0.063264  
      22A     -0.059016    23A     -0.057224    24A     -0.050850  
      25A     -0.045502    26A     -0.040550    27A     -0.034791  
      28A     -0.034359    29A     -0.028729    30A     -0.028176  
      31A     -0.027611    32A     -0.022247    33A     -0.015775  
      34A     -0.015303    35A     -0.011664    36A     -0.009374  
      37A     -0.006686    38A     -0.004416    39A      0.006233  
      40A      0.008446    41A      0.009531    42A      0.017211  
      43A      0.021723    44A      0.031439    45A      0.032443  
      46A      0.039788    47A      0.058866    48A      0.068586  
      49A      0.073887    50A      0.074693    51A      0.094187  
      52A      0.102880    53A      0.107779    54A      0.113599  
      55A      0.115677    56A      0.131568    57A      0.132968  
      58A      0.137984    59A      0.157754    60A      0.160602  
      61A      0.162218    62A      0.164080    63A      0.169844  
      64A      0.171866    65A      0.175425    66A      0.176132  
      67A      0.187766    68A      0.189005    69A      0.218389  
      70A      0.224480    71A      0.238338    72A      0.243224  
      73A      0.247323    74A      0.249269    75A      0.260924  
      76A      0.277196    77A      0.289987    78A      0.305630  
      79A      0.369877    80A      0.376198    81A      0.397830  
      82A      0.405466    83A      0.407846    84A      0.424874  
      85A      0.428915    86A      0.436074    87A      0.448857  
      88A      0.450935    89A      0.467584    90A      0.482403  
      91A      0.516819    92A      0.518562    93A      0.522889  
      94A      0.557965    95A      0.572302    96A      0.576978  
      97A      0.586742    98A      0.598168    99A      0.606656  
     100A      0.608899   101A      0.646429   102A      0.662388  
     103A      0.702599   104A      0.756721   105A      0.780345  
     106A      0.833149   107A      0.927849   108A      1.006256  
     109A      1.064623   110A      1.176898   111A      1.195740  
     112A      1.287338   113A      1.435234   114A      1.575258  
     115A      1.717517   116A      1.865106   117A      2.395923  
     118A      2.462352   119A      2.854239   120A      2.868819  
     121A      2.871112   122A      2.891741   123A      2.930738  
     124A      2.932482   125A      2.985193   126A      3.064181  
     127A      3.071923   128A      3.144105   129A      3.156826  
     130A      3.233549   131A      5.450308   132A      5.613062  
     133A      5.719780   134A      8.824321   135A      8.827075  
     136A      8.843804   137A      8.844063   138A      8.853451  
     139A      8.864432   140A      8.907452   141A      9.397498  
     142A      9.436966   143A      9.467859   144A      9.478688  
     145A      9.530997   146A     12.385238  

    Final Occupation by Irrep:
              A 
    DOCC [    15 ]
    NA   [    15 ]
    NB   [    15 ]

  @DF-RHF Final Energy:  -423.10141478878808

   => Energetics <=

    Nuclear Repulsion Energy =             73.7716564761021800
    One-Electron Energy =                -738.9520294747886737
    Two-Electron Energy =                 242.0789582098983885
    Total Energy =                       -423.1014147887881336

Computation Completed


Properties will be evaluated at   0.000000,   0.000000,   0.000000 [a0]

Properties computed using the SCF density matrix


 Multipole Moments:

 ------------------------------------------------------------------------------------
     Multipole            Electronic (a.u.)      Nuclear  (a.u.)        Total (a.u.)
 ------------------------------------------------------------------------------------

 L = 1.  Multiply by 2.5417464519 to convert [e a0] to [Debye]
 Dipole X            :        -40.6341557           44.3498275            3.7156718
 Dipole Y            :        -36.9558516           40.3180250            3.3621734
 Dipole Z            :         -0.0000000            0.0000000           -0.0000000
 Magnitude           :                                                    5.0110306

 ------------------------------------------------------------------------------------

*** tstop() called on moses-razer at Wed Jan  3 21:15:28 2024
Module time:
	user time   =       6.04 seconds =       0.10 minutes
	system time =       0.61 seconds =       0.01 minutes
	total time  =          2 seconds =       0.03 minutes
Total time:
	user time   =       6.04 seconds =       0.10 minutes
	system time =       0.61 seconds =       0.01 minutes
	total time  =          2 seconds =       0.03 minutes

  //>>>>>>>>>>>>>>>>>>>>>>>>>>>>>>>>>>>//
  //            Monomer A HF           //
  //<<<<<<<<<<<<<<<<<<<<<<<<<<<<<<<<<<<//

   => Libint2 <=

    Primary   basis highest AM E, G, H:  5, 4, 3
    Auxiliary basis highest AM E, G, H:  6, 5, 4
    Onebody   basis highest AM E, G, H:  6, 5, 4
    Solid Harmonics ordering:            gaussian

*** tstart() called on moses-razer
*** at Wed Jan  3 21:15:28 2024

   => Loading Basis Set <=

    Name: AUG-CC-PVTZ
    Role: ORBITAL
    Keyword: BASIS
    atoms 1   entry F          line   377 file /home/kchung25/anaconda3/envs/p415env/share/psi4/basis/aug-cc-pvtz.gbs 
    atoms 2-3 entry NA         line   469 file /home/kchung25/anaconda3/envs/p415env/share/psi4/basis/aug-cc-pvtz.gbs 


         ---------------------------------------------------------
                                   SCF
               by Justin Turney, Rob Parrish, Andy Simmonett
                          and Daniel G. A. Smith
                              RHF Reference
                        6 Threads,  57220 MiB Core
         ---------------------------------------------------------

  ==> Geometry <==

    Molecular point group: c1
    Full point group: Cs

    Geometry (in Angstrom), charge = 0, multiplicity = 1:

       Center              X                  Y                   Z               Mass       
    ------------   -----------------  -----------------  -----------------  -----------------
         F            0.000000000000     0.000000000000     0.000000000000    18.998403162730
         NA           0.000000000000     1.939580000000     0.000000000000    22.989769282000
      Gh(NA)          2.133538000000     0.000000000000     0.000000000000    22.989769282000

  Running in c1 symmetry.

  Rotational constants: A =      0.19492  B =      0.16109  C =      0.08820 [cm^-1]
  Rotational constants: A =   5843.42120  B =   4829.27372  C =   2644.08199 [MHz]
  Nuclear repulsion =   27.010251629904413

  Charge       = 0
  Multiplicity = 1
  Electrons    = 20
  Nalpha       = 10
  Nbeta        = 10

  ==> Algorithm <==

  SCF Algorithm Type is DF.
  DIIS enabled.
  MOM disabled.
  Fractional occupation disabled.
  Guess Type is SAD.
  Energy threshold   = 1.00e-08
  Density threshold  = 1.00e-08
  Integral threshold = 1.00e-12

  ==> Primary Basis <==

  Basis Set: AUG-CC-PVTZ
    Blend: AUG-CC-PVTZ
    Number of shells: 46
    Number of basis functions: 146
    Number of Cartesian functions: 173
    Spherical Harmonics?: true
    Max angular momentum: 3

   => Loading Basis Set <=

    Name: (AUG-CC-PVTZ AUX)
    Role: JKFIT
    Keyword: DF_BASIS_SCF
    atoms 1   entry F          line   348 file /home/kchung25/anaconda3/envs/p415env/share/psi4/basis/aug-cc-pvtz-jkfit.gbs 
    atoms 2-3 entry NA         line   498 file /home/kchung25/anaconda3/envs/p415env/share/psi4/basis/def2-universal-jkfit.gbs 

  ==> Integral Setup <==

  ==> DiskDFJK: Density-Fitted J/K Matrices <==

    J tasked:                  Yes
    K tasked:                  Yes
    wK tasked:                  No
    OpenMP threads:              6
    Integrals threads:           6
    Memory [MiB]:            42915
    Algorithm:                Core
    Integral Cache:           LOAD
    Schwarz Cutoff:          1E-12
    Fitting Condition:       1E-10

   => Auxiliary Basis Set <=

  Basis Set: (AUG-CC-PVTZ AUX)
    Blend: AUG-CC-PVTZ-JKFIT + DEF2-UNIVERSAL-JKFIT
    Number of shells: 98
    Number of basis functions: 328
    Number of Cartesian functions: 405
    Spherical Harmonics?: true
    Max angular momentum: 4

  Minimum eigenvalue in the overlap matrix is 4.8211666631E-05.
  Reciprocal condition number of the overlap matrix is 6.6351293595E-06.
    Using symmetric orthogonalization.

  ==> Pre-Iterations <==

  SCF Guess: Superposition of Atomic Densities via on-the-fly atomic UHF (no occupation information).

   -------------------------
    Irrep   Nso     Nmo    
   -------------------------
     A        146     146 
   -------------------------
    Total     146     146
   -------------------------

  ==> Iterations <==

                           Total Energy        Delta E     RMS |[F,P]|

   @DF-RHF iter SAD:  -260.62610651786730   -2.60626e+02   0.00000e+00 
   @DF-RHF iter   1:  -261.26437841007981   -6.38272e-01   3.73793e-03 ADIIS/DIIS
   @DF-RHF iter   2:  -261.31111761557793   -4.67392e-02   3.27202e-03 ADIIS/DIIS
   @DF-RHF iter   3:  -261.37060206662932   -5.94845e-02   1.07529e-04 ADIIS/DIIS
   @DF-RHF iter   4:  -261.37067719376279   -7.51271e-05   2.56659e-05 DIIS
   @DF-RHF iter   5:  -261.37068275442425   -5.56066e-06   3.29337e-06 DIIS
   @DF-RHF iter   6:  -261.37068304945910   -2.95035e-07   6.60294e-07 DIIS
   @DF-RHF iter   7:  -261.37068306635069   -1.68916e-08   1.42175e-07 DIIS
   @DF-RHF iter   8:  -261.37068306702662   -6.75925e-10   1.59416e-08 DIIS
   @DF-RHF iter   9:  -261.37068306703367   -7.04858e-12   2.31849e-09 DIIS
  Energy and wave function converged.


  ==> Post-Iterations <==

    Orbital Energies [Eh]
    ---------------------

    Doubly Occupied:                                                      

       1A    -40.463297     2A    -26.067820     3A     -2.787918  
       4A     -1.512953     5A     -1.511668     6A     -1.511540  
       7A     -1.322024     8A     -0.438584     9A     -0.426676  
      10A     -0.426598  

    Virtual:                                                              

      11A     -0.016079    12A      0.008834    13A      0.012025  
      14A      0.013238    15A      0.016905    16A      0.023957  
      17A      0.025871    18A      0.030779    19A      0.036395  
      20A      0.042586    21A      0.047200    22A      0.055195  
      23A      0.063116    24A      0.065383    25A      0.066584  
      26A      0.073858    27A      0.073987    28A      0.079875  
      29A      0.089039    30A      0.092669    31A      0.096420  
      32A      0.096510    33A      0.102049    34A      0.110913  
      35A      0.115566    36A      0.117606    37A      0.127081  
      38A      0.129489    39A      0.162599    40A      0.168271  
      41A      0.170567    42A      0.192993    43A      0.203699  
      44A      0.218431    45A      0.218710    46A      0.240055  
      47A      0.241656    48A      0.253368    49A      0.262274  
      50A      0.262555    51A      0.281509    52A      0.287777  
      53A      0.289464    54A      0.297932    55A      0.298469  
      56A      0.309968    57A      0.316825    58A      0.323541  
      59A      0.324060    60A      0.330030    61A      0.334878  
      62A      0.346127    63A      0.365227    64A      0.369925  
      65A      0.389266    66A      0.396757    67A      0.400425  
      68A      0.409225    69A      0.413286    70A      0.420190  
      71A      0.449051    72A      0.452396    73A      0.478809  
      74A      0.531099    75A      0.562970    76A      0.575477  
      77A      0.586318    78A      0.586621    79A      0.600726  
      80A      0.605536    81A      0.645541    82A      0.675439  
      83A      0.693769    84A      0.696446    85A      0.726119  
      86A      0.731363    87A      0.744497    88A      0.757598  
      89A      0.777537    90A      0.779861    91A      0.808551  
      92A      0.828154    93A      0.831921    94A      0.840199  
      95A      0.845001    96A      0.875181    97A      0.900712  
      98A      0.934597    99A      0.982377   100A      1.044017  
     101A      1.054773   102A      1.097284   103A      1.214726  
     104A      1.272139   105A      1.318356   106A      1.404926  
     107A      1.485896   108A      1.530969   109A      1.663454  
     110A      1.794807   111A      2.014721   112A      2.406156  
     113A      2.631002   114A      3.083017   115A      3.108598  
     116A      3.121783   117A      3.132188   118A      3.156663  
     119A      3.174060   120A      3.215343   121A      3.286507  
     122A      3.299566   123A      3.360393   124A      3.388168  
     125A      3.459542   126A      4.834207   127A      5.681237  
     128A      5.826475   129A      5.938141   130A      6.426224  
     131A      6.506225   132A      6.760531   133A      9.060445  
     134A      9.070069   135A      9.074952   136A      9.078862  
     137A      9.098283   138A      9.105092   139A      9.150881  
     140A      9.631626   141A      9.669560   142A      9.699051  
     143A      9.735759   144A      9.770901   145A     12.625762  
     146A     64.573672  

    Final Occupation by Irrep:
              A 
    DOCC [    10 ]
    NA   [    10 ]
    NB   [    10 ]

  @DF-RHF Final Energy:  -261.37068306703367

   => Energetics <=

    Nuclear Repulsion Energy =             27.0102516299044133
    One-Electron Energy =                -423.8237140834366983
    Two-Electron Energy =                 135.4427793864986143
    Total Energy =                       -261.3706830670336672

Computation Completed


Properties will be evaluated at   0.000000,   0.000000,   0.000000 [a0]

Properties computed using the SCF density matrix


 Multipole Moments:

 ------------------------------------------------------------------------------------
     Multipole            Electronic (a.u.)      Nuclear  (a.u.)        Total (a.u.)
 ------------------------------------------------------------------------------------

 L = 1.  Multiply by 2.5417464519 to convert [e a0] to [Debye]
 Dipole X            :          0.0009162            0.0000000            0.0009162
 Dipole Y            :        -36.9757830           40.3180250            3.3422420
 Dipole Z            :         -0.0000000            0.0000000           -0.0000000
 Magnitude           :                                                    3.3422421

 ------------------------------------------------------------------------------------

*** tstop() called on moses-razer at Wed Jan  3 21:15:29 2024
Module time:
	user time   =       5.06 seconds =       0.08 minutes
	system time =       0.60 seconds =       0.01 minutes
	total time  =          1 seconds =       0.02 minutes
Total time:
	user time   =      11.13 seconds =       0.19 minutes
	system time =       1.21 seconds =       0.02 minutes
	total time  =          3 seconds =       0.05 minutes

  //>>>>>>>>>>>>>>>>>>>>>>>>>>>>>>>>>>>//
  //            Monomer B HF           //
  //<<<<<<<<<<<<<<<<<<<<<<<<<<<<<<<<<<<//

   => Libint2 <=

    Primary   basis highest AM E, G, H:  5, 4, 3
    Auxiliary basis highest AM E, G, H:  6, 5, 4
    Onebody   basis highest AM E, G, H:  6, 5, 4
    Solid Harmonics ordering:            gaussian

*** tstart() called on moses-razer
*** at Wed Jan  3 21:15:29 2024

   => Loading Basis Set <=

    Name: AUG-CC-PVTZ
    Role: ORBITAL
    Keyword: BASIS
    atoms 1   entry F          line   377 file /home/kchung25/anaconda3/envs/p415env/share/psi4/basis/aug-cc-pvtz.gbs 
    atoms 2-3 entry NA         line   469 file /home/kchung25/anaconda3/envs/p415env/share/psi4/basis/aug-cc-pvtz.gbs 


         ---------------------------------------------------------
                                   SCF
               by Justin Turney, Rob Parrish, Andy Simmonett
                          and Daniel G. A. Smith
                              RHF Reference
                        6 Threads,  57220 MiB Core
         ---------------------------------------------------------

  ==> Geometry <==

    Molecular point group: c1
    Full point group: Cs

    Geometry (in Angstrom), charge = 1, multiplicity = 1:

       Center              X                  Y                   Z               Mass       
    ------------   -----------------  -----------------  -----------------  -----------------
      Gh(F)           0.000000000000     0.000000000000     0.000000000000    18.998403162730
      Gh(NA)          0.000000000000     1.939580000000     0.000000000000    22.989769282000
         NA           2.133538000000     0.000000000000     0.000000000000    22.989769282000

  Running in c1 symmetry.

  Rotational constants: A =      0.19492  B =      0.16109  C =      0.08820 [cm^-1]
  Rotational constants: A =   5843.42120  B =   4829.27372  C =   2644.08199 [MHz]
  Nuclear repulsion =    0.000000000000000

  Charge       = 1
  Multiplicity = 1
  Electrons    = 10
  Nalpha       = 5
  Nbeta        = 5

  ==> Algorithm <==

  SCF Algorithm Type is DF.
  DIIS enabled.
  MOM disabled.
  Fractional occupation disabled.
  Guess Type is SAD.
  Energy threshold   = 1.00e-08
  Density threshold  = 1.00e-08
  Integral threshold = 1.00e-12

  ==> Primary Basis <==

  Basis Set: AUG-CC-PVTZ
    Blend: AUG-CC-PVTZ
    Number of shells: 46
    Number of basis functions: 146
    Number of Cartesian functions: 173
    Spherical Harmonics?: true
    Max angular momentum: 3

   => Loading Basis Set <=

    Name: (AUG-CC-PVTZ AUX)
    Role: JKFIT
    Keyword: DF_BASIS_SCF
    atoms 1   entry F          line   348 file /home/kchung25/anaconda3/envs/p415env/share/psi4/basis/aug-cc-pvtz-jkfit.gbs 
    atoms 2-3 entry NA         line   498 file /home/kchung25/anaconda3/envs/p415env/share/psi4/basis/def2-universal-jkfit.gbs 

  ==> Integral Setup <==

  ==> DiskDFJK: Density-Fitted J/K Matrices <==

    J tasked:                  Yes
    K tasked:                  Yes
    wK tasked:                  No
    OpenMP threads:              6
    Integrals threads:           6
    Memory [MiB]:            42915
    Algorithm:                Core
    Integral Cache:           LOAD
    Schwarz Cutoff:          1E-12
    Fitting Condition:       1E-10

   => Auxiliary Basis Set <=

  Basis Set: (AUG-CC-PVTZ AUX)
    Blend: AUG-CC-PVTZ-JKFIT + DEF2-UNIVERSAL-JKFIT
    Number of shells: 98
    Number of basis functions: 328
    Number of Cartesian functions: 405
    Spherical Harmonics?: true
    Max angular momentum: 4

  Minimum eigenvalue in the overlap matrix is 4.8211666631E-05.
  Reciprocal condition number of the overlap matrix is 6.6351293595E-06.
    Using symmetric orthogonalization.

  ==> Pre-Iterations <==

  SCF Guess: Superposition of Atomic Densities via on-the-fly atomic UHF (no occupation information).

   -------------------------
    Irrep   Nso     Nmo    
   -------------------------
     A        146     146 
   -------------------------
    Total     146     146
   -------------------------

  ==> Iterations <==

                           Total Energy        Delta E     RMS |[F,P]|

   @DF-RHF iter SAD:  -161.74556794029778   -1.61746e+02   0.00000e+00 
   @DF-RHF iter   1:  -161.67602979652690    6.95381e-02   4.02658e-05 DIIS
   @DF-RHF iter   2:  -161.67604768804182   -1.78915e-05   7.83672e-06 DIIS
   @DF-RHF iter   3:  -161.67604814619705   -4.58155e-07   2.98849e-07 DIIS
   @DF-RHF iter   4:  -161.67604814692979   -7.32740e-10   2.48838e-08 DIIS
   @DF-RHF iter   5:  -161.67604814693502   -5.22959e-12   1.56903e-09 DIIS
  Energy and wave function converged.


  ==> Post-Iterations <==

    Orbital Energies [Eh]
    ---------------------

    Doubly Occupied:                                                      

       1A    -40.762527     2A     -3.074746     3A     -1.798014  
       4A     -1.797966     5A     -1.797915  

    Virtual:                                                              

       6A     -0.181830     7A     -0.109445     8A     -0.109438  
       9A     -0.109435    10A     -0.070053    11A     -0.054893  
      12A     -0.054880    13A     -0.054650    14A     -0.050491  
      15A     -0.050430    16A     -0.050043    17A     -0.049068  
      18A     -0.049047    19A     -0.029041    20A     -0.024608  
      21A     -0.024441    22A     -0.024260    23A     -0.021101  
      24A     -0.009898    25A     -0.009613    26A     -0.006902  
      27A     -0.006876    28A     -0.001626    29A     -0.000751  
      30A     -0.000290    31A      0.012195    32A      0.023179  
      33A      0.025883    34A      0.026348    35A      0.037484  
      36A      0.041091    37A      0.047743    38A      0.054016  
      39A      0.056478    40A      0.075976    41A      0.091497  
      42A      0.094745    43A      0.095470    44A      0.097707  
      45A      0.098646    46A      0.117510    47A      0.120522  
      48A      0.137838    49A      0.147650    50A      0.150451  
      51A      0.162234    52A      0.163418    53A      0.164790  
      54A      0.173619    55A      0.173970    56A      0.175488  
      57A      0.178289    58A      0.192323    59A      0.202421  
      60A      0.212495    61A      0.233250    62A      0.243162  
      63A      0.243189    64A      0.252092    65A      0.252775  
      66A      0.252911    67A      0.272274    68A      0.278091  
      69A      0.352046    70A      0.359527    71A      0.373834  
      72A      0.387245    73A      0.388568    74A      0.396962  
      75A      0.401517    76A      0.429986    77A      0.448748  
      78A      0.465293    79A      0.476902    80A      0.491538  
      81A      0.492397    82A      0.528257    83A      0.535485  
      84A      0.536433    85A      0.582922    86A      0.586168  
      87A      0.601820    88A      0.620772    89A      0.628783  
      90A      0.651948    91A      0.656157    92A      0.681377  
      93A      0.697381    94A      0.697955    95A      0.785294  
      96A      0.826253    97A      0.828836    98A      0.895873  
      99A      0.900588   100A      0.980587   101A      1.090267  
     102A      1.112647   103A      1.140635   104A      1.202995  
     105A      1.207568   106A      1.310912   107A      1.452649  
     108A      2.186312   109A      2.863380   110A      2.876744  
     111A      2.893580   112A      2.926596   113A      2.940543  
     114A      2.959404   115A      3.044261   116A      3.056539  
     117A      3.102513   118A      3.250573   119A      3.449261  
     120A      3.531340   121A      3.557378   122A      3.587452  
     123A      3.609463   124A      3.698737   125A      4.652156  
     126A      6.184007   127A      6.284537   128A      6.988151  
     129A      9.935099   130A      9.947110   131A      9.961547  
     132A      9.970828   133A      9.994075   134A     10.004469  
     135A     10.051274   136A     10.102923   137A     12.804801  
     138A     12.834849   139A     12.862732   140A     12.890553  
     141A     12.927707   142A     14.217359   143A     14.429197  
     144A     14.532909   145A     64.365790   146A     69.679476  

    Final Occupation by Irrep:
              A 
    DOCC [     5 ]
    NA   [     5 ]
    NB   [     5 ]

  @DF-RHF Final Energy:  -161.67604814693502

   => Energetics <=

    Nuclear Repulsion Energy =              0.0000000000000000
    One-Electron Energy =                -224.8897599884293754
    Two-Electron Energy =                  63.2137118414943444
    Total Energy =                       -161.6760481469350452

Computation Completed


Properties will be evaluated at   0.000000,   0.000000,   0.000000 [a0]

Properties computed using the SCF density matrix


 Multipole Moments:

 ------------------------------------------------------------------------------------
     Multipole            Electronic (a.u.)      Nuclear  (a.u.)        Total (a.u.)
 ------------------------------------------------------------------------------------

 L = 1.  Multiply by 2.5417464519 to convert [e a0] to [Debye]
 Dipole X            :        -40.3185974           44.3498275            4.0312301
 Dipole Y            :          0.0002878            0.0000000            0.0002878
 Dipole Z            :         -0.0000000            0.0000000           -0.0000000
 Magnitude           :                                                    4.0312301

 ------------------------------------------------------------------------------------

*** tstop() called on moses-razer at Wed Jan  3 21:15:31 2024
Module time:
	user time   =       4.53 seconds =       0.08 minutes
	system time =       0.51 seconds =       0.01 minutes
	total time  =          2 seconds =       0.03 minutes
Total time:
	user time   =      15.69 seconds =       0.26 minutes
	system time =       1.72 seconds =       0.03 minutes
	total time  =          5 seconds =       0.08 minutes
  Constructing Basis Sets for SAPT...

   => Loading Basis Set <=

    Name: (AUG-CC-PVTZ AUX)
    Role: RIFIT
    Keyword: DF_BASIS_SAPT
    atoms 1   entry F          line   322 file /home/kchung25/anaconda3/envs/p415env/share/psi4/basis/aug-cc-pvtz-ri.gbs 
    atoms 2-3 entry NA         line   610 file /home/kchung25/anaconda3/envs/p415env/share/psi4/basis/def2-qzvpp-ri.gbs 

   => Loading Basis Set <=

    Name: (AUG-CC-PVTZ AUX)
    Role: JKFIT
    Keyword: DF_BASIS_ELST
    atoms 1   entry F          line   348 file /home/kchung25/anaconda3/envs/p415env/share/psi4/basis/aug-cc-pvtz-jkfit.gbs 
    atoms 2-3 entry NA         line   498 file /home/kchung25/anaconda3/envs/p415env/share/psi4/basis/def2-universal-jkfit.gbs 


  //>>>>>>>>>>>>>>>>>>>>>>>>>>>>>>>>>>>//
  //               SAPT2+              //
  //<<<<<<<<<<<<<<<<<<<<<<<<<<<<<<<<<<<//


*** tstart() called on moses-razer
*** at Wed Jan  3 21:15:31 2024

        SAPT2+  
    Ed Hohenstein
     6 June 2009

      Orbital Information
  --------------------------
    NSO        =       146
    NMO        =       146
    NRI        =       438
    NOCC A     =        10
    NOCC B     =         5
    FOCC A     =         0
    FOCC B     =         0
    NVIR A     =       136
    NVIR B     =       141

    Estimated memory usage: 117.4 MB

    Natural Orbital Cutoff:   1.000E-06
    Disp(T3) Truncation:            Yes
    CCD (vv|vv) Truncation:         Yes
    MBPT T2 Truncation:             Yes

    Monomer A: 69 virtual orbitals dropped
    Monomer B: 130 virtual orbitals dropped

    Elst10,r            =    -0.067738072568 [Eh]
    Exch10 (S^2)        =     0.022434704770 [Eh]
    Exch10              =     0.022564591965 [Eh]
    Ind20,r (A<-B)      =    -0.039987592557 [Eh]
    Ind20,r (B<-A)      =    -0.000347841437 [Eh]
    Ind20,r             =    -0.040335433995 [Eh]
    Exch-Ind20,r (A<-B) =     0.028676942111 [Eh]
    Exch-Ind20,r (B<-A) =     0.000041898081 [Eh]
    Exch-Ind20,r        =     0.028718840192 [Eh]
    Disp20              =    -0.000914327411 [Eh]
    Disp20 (NO)         =    -0.000723050038 [Eh]
    Exch-Disp20         =     0.000240098904 [Eh]
    Elst12,r            =    -0.000723303206 [Eh]
    Exch11              =    -0.000330982472 [Eh]
    Exch12              =     0.005438004925 [Eh]
    Ind22               =    -0.011246079478 [Eh]
    Disp21              =    -0.000059333020 [Eh]
    Disp22 (SDQ)        =    -0.000105525780 [Eh]

    (i =   1 of   5)          0 seconds
    (i =   2 of   5)          0 seconds
    (i =   3 of   5)          0 seconds
    (i =   4 of   5)          0 seconds
    (i =   5 of   5)          0 seconds

    Disp220 (T)         =    -0.000064448998 [Eh]

    (i =   1 of  10)          0 seconds
    (i =   2 of  10)          0 seconds
    (i =   3 of  10)          0 seconds
    (i =   4 of  10)          0 seconds
    (i =   5 of  10)          0 seconds
    (i =   6 of  10)          0 seconds
    (i =   7 of  10)          0 seconds
    (i =   8 of  10)          0 seconds
    (i =   9 of  10)          0 seconds
    (i =  10 of  10)          0 seconds

    Disp202 (T)         =    -0.000019180262 [Eh]

    Disp22 (T)          =    -0.000083629260 [Eh]

    Est. Disp220 (T)    =    -0.000081498489 [Eh]
    Est. Disp202 (T)    =    -0.000024254254 [Eh]

    Est. Disp22 (T)     =    -0.000105752743 [Eh]

    SAPT Results 
  --------------------------------------------------------------------------------------------------------
    Electrostatics                -68.46137577 [mEh]     -42.96016189 [kcal/mol]    -179.74531733 [kJ/mol]
      Elst10,r                    -67.73807257 [mEh]     -42.50628227 [kcal/mol]    -177.84628502 [kJ/mol]
      Elst12,r                     -0.72330321 [mEh]      -0.45387961 [kcal/mol]      -1.89903231 [kJ/mol]

    Exchange                       27.67161442 [mEh]      17.36420020 [kcal/mol]      72.65181365 [kJ/mol]
      Exch10                       22.56459197 [mEh]      14.15949523 [kcal/mol]      59.24332804 [kJ/mol]
      Exch10(S^2)                  22.43470477 [mEh]      14.07798978 [kcal/mol]      58.90230926 [kJ/mol]
      Exch11(S^2)                  -0.33098247 [mEh]      -0.20769464 [kcal/mol]      -0.86899436 [kJ/mol]
      Exch12(S^2)                   5.43800493 [mEh]       3.41239961 [kcal/mol]      14.27747996 [kJ/mol]

    Induction                     -12.74896199 [mEh]      -8.00009443 [kcal/mol]     -33.47239509 [kJ/mol]
      Ind20,r                     -40.33543399 [mEh]     -25.31086696 [kcal/mol]    -105.90066736 [kJ/mol]
      Ind22                       -11.24607948 [mEh]      -7.05702142 [kcal/mol]     -29.52657760 [kJ/mol]
      Exch-Ind20,r                 28.71884019 [mEh]      18.02134430 [kcal/mol]      75.40130454 [kJ/mol]
      Exch-Ind22                    8.00721171 [mEh]       5.02460120 [kcal/mol]      21.02293144 [kJ/mol]
      delta HF,r (2)                2.10649959 [mEh]       1.32184845 [kcal/mol]       5.53061390 [kJ/mol]

    Dispersion                     -0.94484005 [mEh]      -0.59289608 [kcal/mol]      -2.48067721 [kJ/mol]
      Disp20                       -0.91432741 [mEh]      -0.57374911 [kcal/mol]      -2.40056629 [kJ/mol]
      Disp21                       -0.05933302 [mEh]      -0.03723203 [kcal/mol]      -0.15577882 [kJ/mol]
      Disp22 (SDQ)                 -0.10552578 [mEh]      -0.06621843 [kcal/mol]      -0.27705790 [kJ/mol]
      Disp22 (T)                   -0.08362926 [mEh]      -0.05247815 [kcal/mol]      -0.21956859 [kJ/mol]
      Est. Disp22 (T)              -0.10575274 [mEh]      -0.06636085 [kcal/mol]      -0.27765379 [kJ/mol]
      Exch-Disp20                   0.24009890 [mEh]       0.15066434 [kcal/mol]       0.63037959 [kJ/mol]

  Total HF                        -54.68357482 [mEh]     -34.31446126 [kcal/mol]    -143.57170591 [kJ/mol]
  Total SAPT0                     -55.35780333 [mEh]     -34.73754603 [kcal/mol]    -145.34189261 [kJ/mol]
  Total SAPT2                     -54.21295185 [mEh]     -34.01914089 [kcal/mol]    -142.33608547 [kJ/mol]
  Total SAPT2+                    -54.48356339 [mEh]     -34.18895219 [kcal/mol]    -143.04657598 [kJ/mol]

  Special recipe for scaled SAPT0 (see Manual):
    Electrostatics sSAPT0         -67.73807257 [mEh]     -42.50628227 [kcal/mol]    -177.84628502 [kJ/mol]
    Exchange sSAPT0                22.56459197 [mEh]      14.15949523 [kcal/mol]      59.24332804 [kJ/mol]
    Induction sSAPT0               -9.00839193 [mEh]      -5.65285128 [kcal/mol]     -23.65152975 [kJ/mol]
    Dispersion sSAPT0              -0.67003411 [mEh]      -0.42045275 [kcal/mol]      -1.75917432 [kJ/mol]
  Total sSAPT0                    -54.85190664 [mEh]     -34.42009107 [kcal/mol]    -144.01366105 [kJ/mol]
  --------------------------------------------------------------------------------------------------------

*** tstop() called on moses-razer at Wed Jan  3 21:15:38 2024
Module time:
	user time   =      29.06 seconds =       0.48 minutes
	system time =       1.99 seconds =       0.03 minutes
	total time  =          7 seconds =       0.12 minutes
Total time:
	user time   =      45.26 seconds =       0.75 minutes
	system time =       3.71 seconds =       0.06 minutes
	total time  =         12 seconds =       0.20 minutes

    Psi4 stopped on: Wednesday, 03 January 2024 09:15PM
    Psi4 wall time for execution: 0:00:12.73

*** Psi4 exiting successfully. Buy a developer a beer!
