
    -----------------------------------------------------------------------
          Psi4: An Open-Source Ab Initio Electronic Structure Package
                               Psi4 1.9 release

                         Git: Rev {} zzzzzzz 


    D. G. A. Smith, L. A. Burns, A. C. Simmonett, R. M. Parrish,
    M. C. Schieber, R. Galvelis, P. Kraus, H. Kruse, R. Di Remigio,
    A. Alenaizan, A. M. James, S. Lehtola, J. P. Misiewicz, M. Scheurer,
    R. A. Shaw, J. B. Schriber, Y. Xie, Z. L. Glick, D. A. Sirianni,
    J. S. O'Brien, J. M. Waldrop, A. Kumar, E. G. Hohenstein,
    B. P. Pritchard, B. R. Brooks, H. F. Schaefer III, A. Yu. Sokolov,
    K. Patkowski, A. E. DePrince III, U. Bozkaya, R. A. King,
    F. A. Evangelista, J. M. Turney, T. D. Crawford, C. D. Sherrill,
    J. Chem. Phys. 152(18) 184108 (2020). https://doi.org/10.1063/5.0006002

                            Additional Code Authors
    E. T. Seidl, C. L. Janssen, E. F. Valeev, M. L. Leininger,
    J. F. Gonthier, R. M. Richard, H. R. McAlexander, M. Saitow, X. Wang,
    P. Verma, M. H. Lechner, A. Jiang, S. Behnle, A. G. Heide,
    M. F. Herbst, and D. L. Poole

             Previous Authors, Complete List of Code Contributors,
                       and Citations for Specific Modules
    https://github.com/psi4/psi4/blob/master/codemeta.json
    https://github.com/psi4/psi4/graphs/contributors
    http://psicode.org/psi4manual/master/introduction.html#citing-psifour

    -----------------------------------------------------------------------


    Psi4 started on: Wednesday, 03 January 2024 09:15PM

    Process ID: 439499
    Host:       moses-razer
    PSIDATADIR: /home/kchung25/anaconda3/envs/psi4_19/share/psi4
    Memory:     500.0 MiB
    Threads:    6
    
  ==> Input File <==

--------------------------------------------------------------------------
MEMORY 60 GB

molecule dimer {
0 1
F      0.000000     0.000000     0.000000
Na     0.000000     1.939580     0.000000
--
1 1
Na     2.327496     0.000000     0.000000

units ang
no_reorient
no_com
symmetry c1
}

set {
basis        aug-cc-pVTZ
scf_type     df
}

energy("sapt2+")
--------------------------------------------------------------------------

  Memory set to  55.879 GiB by Python driver.

Scratch directory: /scratch/
   => Loading Basis Set <=

    Name: AUG-CC-PVTZ
    Role: ORBITAL
    Keyword: BASIS
    atoms 1   entry F          line   377 file /home/kchung25/anaconda3/envs/p415env/share/psi4/basis/aug-cc-pvtz.gbs 
    atoms 2-3 entry NA         line   469 file /home/kchung25/anaconda3/envs/p415env/share/psi4/basis/aug-cc-pvtz.gbs 

   => Loading Basis Set <=

    Name: AUG-CC-PVTZ
    Role: ORBITAL
    Keyword: BASIS
    atoms 1   entry F          line   377 file /home/kchung25/anaconda3/envs/p415env/share/psi4/basis/aug-cc-pvtz.gbs 
    atoms 2-3 entry NA         line   469 file /home/kchung25/anaconda3/envs/p415env/share/psi4/basis/aug-cc-pvtz.gbs 


  //>>>>>>>>>>>>>>>>>>>>>>>>>>>>>>>>>>>//
  //              Dimer HF             //
  //<<<<<<<<<<<<<<<<<<<<<<<<<<<<<<<<<<<//

   => Libint2 <=

    Primary   basis highest AM E, G, H:  5, 4, 3
    Auxiliary basis highest AM E, G, H:  6, 5, 4
    Onebody   basis highest AM E, G, H:  6, 5, 4
    Solid Harmonics ordering:            gaussian

*** tstart() called on moses-razer
*** at Wed Jan  3 21:15:39 2024

   => Loading Basis Set <=

    Name: AUG-CC-PVTZ
    Role: ORBITAL
    Keyword: BASIS
    atoms 1   entry F          line   377 file /home/kchung25/anaconda3/envs/p415env/share/psi4/basis/aug-cc-pvtz.gbs 
    atoms 2-3 entry NA         line   469 file /home/kchung25/anaconda3/envs/p415env/share/psi4/basis/aug-cc-pvtz.gbs 


         ---------------------------------------------------------
                                   SCF
               by Justin Turney, Rob Parrish, Andy Simmonett
                          and Daniel G. A. Smith
                              RHF Reference
                        6 Threads,  57220 MiB Core
         ---------------------------------------------------------

  ==> Geometry <==

    Molecular point group: c1
    Full point group: Cs

    Geometry (in Angstrom), charge = 1, multiplicity = 1:

       Center              X                  Y                   Z               Mass       
    ------------   -----------------  -----------------  -----------------  -----------------
         F            0.000000000000     0.000000000000     0.000000000000    18.998403162730
         NA           0.000000000000     1.939580000000     0.000000000000    22.989769282000
         NA           2.327496000000     0.000000000000     0.000000000000    22.989769282000

  Running in c1 symmetry.

  Rotational constants: A =      0.19492  B =      0.13536  C =      0.07988 [cm^-1]
  Rotational constants: A =   5843.42120  B =   4057.93139  C =   2394.84476 [MHz]
  Nuclear repulsion =   70.652901206963179

  Charge       = 1
  Multiplicity = 1
  Electrons    = 30
  Nalpha       = 15
  Nbeta        = 15

  ==> Algorithm <==

  SCF Algorithm Type is DF.
  DIIS enabled.
  MOM disabled.
  Fractional occupation disabled.
  Guess Type is SAD.
  Energy threshold   = 1.00e-08
  Density threshold  = 1.00e-08
  Integral threshold = 1.00e-12

  ==> Primary Basis <==

  Basis Set: AUG-CC-PVTZ
    Blend: AUG-CC-PVTZ
    Number of shells: 46
    Number of basis functions: 146
    Number of Cartesian functions: 173
    Spherical Harmonics?: true
    Max angular momentum: 3

   => Loading Basis Set <=

    Name: (AUG-CC-PVTZ AUX)
    Role: JKFIT
    Keyword: DF_BASIS_SCF
    atoms 1   entry F          line   348 file /home/kchung25/anaconda3/envs/p415env/share/psi4/basis/aug-cc-pvtz-jkfit.gbs 
    atoms 2-3 entry NA         line   498 file /home/kchung25/anaconda3/envs/p415env/share/psi4/basis/def2-universal-jkfit.gbs 

  ==> Integral Setup <==

  ==> DiskDFJK: Density-Fitted J/K Matrices <==

    J tasked:                  Yes
    K tasked:                  Yes
    wK tasked:                  No
    OpenMP threads:              6
    Integrals threads:           6
    Memory [MiB]:            42915
    Algorithm:                Core
    Integral Cache:           SAVE
    Schwarz Cutoff:          1E-12
    Fitting Condition:       1E-10

   => Auxiliary Basis Set <=

  Basis Set: (AUG-CC-PVTZ AUX)
    Blend: AUG-CC-PVTZ-JKFIT + DEF2-UNIVERSAL-JKFIT
    Number of shells: 98
    Number of basis functions: 328
    Number of Cartesian functions: 405
    Spherical Harmonics?: true
    Max angular momentum: 4

  Minimum eigenvalue in the overlap matrix is 5.9879824728E-05.
  Reciprocal condition number of the overlap matrix is 8.2930348992E-06.
    Using symmetric orthogonalization.

  ==> Pre-Iterations <==

  SCF Guess: Superposition of Atomic Densities via on-the-fly atomic UHF (no occupation information).

   -------------------------
    Irrep   Nso     Nmo    
   -------------------------
     A        146     146 
   -------------------------
    Total     146     146
   -------------------------

  ==> Iterations <==

                           Total Energy        Delta E     RMS |[F,P]|

   @DF-RHF iter SAD:  -422.41541935809181   -4.22415e+02   0.00000e+00 
   @DF-RHF iter   1:  -422.99656951189752   -5.81150e-01   3.66527e-03 ADIIS/DIIS
   @DF-RHF iter   2:  -423.04400881493751   -4.74393e-02   3.12561e-03 ADIIS/DIIS
   @DF-RHF iter   3:  -423.09756943051156   -5.35606e-02   1.12179e-04 ADIIS/DIIS
   @DF-RHF iter   4:  -423.09767403252641   -1.04602e-04   2.47550e-05 DIIS
   @DF-RHF iter   5:  -423.09768324279656   -9.21027e-06   5.60521e-06 DIIS
   @DF-RHF iter   6:  -423.09768427330272   -1.03051e-06   1.27791e-06 DIIS
   @DF-RHF iter   7:  -423.09768433744222   -6.41395e-08   3.13534e-07 DIIS
   @DF-RHF iter   8:  -423.09768434093877   -3.49655e-09   6.41135e-08 DIIS
   @DF-RHF iter   9:  -423.09768434105700   -1.18234e-10   1.06127e-08 DIIS
   @DF-RHF iter  10:  -423.09768434105985   -2.84217e-12   1.26019e-09 DIIS
  Energy and wave function converged.


  ==> Post-Iterations <==

    Orbital Energies [Eh]
    ---------------------

    Doubly Occupied:                                                      

       1A    -40.692080     2A    -40.639300     3A    -26.288125  
       4A     -3.007463     5A     -2.963439     6A     -1.732308  
       7A     -1.731096     8A     -1.728739     9A     -1.690949  
      10A     -1.687639    11A     -1.686639    12A     -1.543097  
      13A     -0.659596    14A     -0.653428    15A     -0.647717  

    Virtual:                                                              

      16A     -0.164478    17A     -0.119657    18A     -0.099088  
      19A     -0.086275    20A     -0.072392    21A     -0.063748  
      22A     -0.059255    23A     -0.057221    24A     -0.051161  
      25A     -0.045280    26A     -0.040201    27A     -0.034936  
      28A     -0.034445    29A     -0.029249    30A     -0.028606  
      31A     -0.028064    32A     -0.021971    33A     -0.016450  
      34A     -0.015624    35A     -0.011043    36A     -0.009170  
      37A     -0.006705    38A     -0.003394    39A      0.006562  
      40A      0.006966    41A      0.009522    42A      0.017505  
      43A      0.021678    44A      0.029774    45A      0.031461  
      46A      0.039182    47A      0.057689    48A      0.066734  
      49A      0.073701    50A      0.074805    51A      0.092628  
      52A      0.100747    53A      0.107720    54A      0.112448  
      55A      0.114575    56A      0.131488    57A      0.133311  
      58A      0.135995    59A      0.156083    60A      0.159989  
      61A      0.162317    62A      0.165930    63A      0.169290  
      64A      0.173930    65A      0.175366    66A      0.175522  
      67A      0.186895    68A      0.189703    69A      0.210889  
      70A      0.220428    71A      0.234858    72A      0.239042  
      73A      0.242850    74A      0.246461    75A      0.261121  
      76A      0.277573    77A      0.287709    78A      0.303054  
      79A      0.361172    80A      0.361787    81A      0.398688  
      82A      0.401379    83A      0.406251    84A      0.420367  
      85A      0.422603    86A      0.437530    87A      0.445516  
      88A      0.450570    89A      0.466366    90A      0.481524  
      91A      0.504003    92A      0.517055    93A      0.522773  
      94A      0.555232    95A      0.562790    96A      0.564258  
      97A      0.586090    98A      0.591367    99A      0.599005  
     100A      0.602744   101A      0.645727   102A      0.656935  
     103A      0.681493   104A      0.728860   105A      0.768558  
     106A      0.819619   107A      0.892540   108A      1.011736  
     109A      1.068471   110A      1.140135   111A      1.163353  
     112A      1.279195   113A      1.429584   114A      1.598499  
     115A      1.647118   116A      1.872955   117A      2.263482  
     118A      2.366546   119A      2.865618   120A      2.880251  
     121A      2.881199   122A      2.911712   123A      2.929416  
     124A      2.944921   125A      2.972627   126A      3.072186  
     127A      3.076171   128A      3.139575   129A      3.141971  
     130A      3.271720   131A      5.442695   132A      5.623665  
     133A      5.686395   134A      8.834766   135A      8.840493  
     136A      8.852205   137A      8.856136   138A      8.872516  
     139A      8.872754   140A      8.913817   141A      9.409189  
     142A      9.433871   143A      9.468312   144A      9.495062  
     145A      9.537123   146A     12.271535  

    Final Occupation by Irrep:
              A 
    DOCC [    15 ]
    NA   [    15 ]
    NB   [    15 ]

  @DF-RHF Final Energy:  -423.09768434105985

   => Energetics <=

    Nuclear Repulsion Energy =             70.6529012069631790
    One-Electron Energy =                -732.7979395243194176
    Two-Electron Energy =                 239.0473539762963924
    Total Energy =                       -423.0976843410598462

Computation Completed


Properties will be evaluated at   0.000000,   0.000000,   0.000000 [a0]

Properties computed using the SCF density matrix


 Multipole Moments:

 ------------------------------------------------------------------------------------
     Multipole            Electronic (a.u.)      Nuclear  (a.u.)        Total (a.u.)
 ------------------------------------------------------------------------------------

 L = 1.  Multiply by 2.5417464519 to convert [e a0] to [Debye]
 Dipole X            :        -44.3043256           48.3816300            4.0773044
 Dipole Y            :        -36.9602747           40.3180250            3.3577503
 Dipole Z            :          0.0000000            0.0000000            0.0000000
 Magnitude           :                                                    5.2819407

 ------------------------------------------------------------------------------------

*** tstop() called on moses-razer at Wed Jan  3 21:15:41 2024
Module time:
	user time   =       6.13 seconds =       0.10 minutes
	system time =       0.63 seconds =       0.01 minutes
	total time  =          2 seconds =       0.03 minutes
Total time:
	user time   =       6.13 seconds =       0.10 minutes
	system time =       0.63 seconds =       0.01 minutes
	total time  =          2 seconds =       0.03 minutes

  //>>>>>>>>>>>>>>>>>>>>>>>>>>>>>>>>>>>//
  //            Monomer A HF           //
  //<<<<<<<<<<<<<<<<<<<<<<<<<<<<<<<<<<<//

   => Libint2 <=

    Primary   basis highest AM E, G, H:  5, 4, 3
    Auxiliary basis highest AM E, G, H:  6, 5, 4
    Onebody   basis highest AM E, G, H:  6, 5, 4
    Solid Harmonics ordering:            gaussian

*** tstart() called on moses-razer
*** at Wed Jan  3 21:15:41 2024

   => Loading Basis Set <=

    Name: AUG-CC-PVTZ
    Role: ORBITAL
    Keyword: BASIS
    atoms 1   entry F          line   377 file /home/kchung25/anaconda3/envs/p415env/share/psi4/basis/aug-cc-pvtz.gbs 
    atoms 2-3 entry NA         line   469 file /home/kchung25/anaconda3/envs/p415env/share/psi4/basis/aug-cc-pvtz.gbs 


         ---------------------------------------------------------
                                   SCF
               by Justin Turney, Rob Parrish, Andy Simmonett
                          and Daniel G. A. Smith
                              RHF Reference
                        6 Threads,  57220 MiB Core
         ---------------------------------------------------------

  ==> Geometry <==

    Molecular point group: c1
    Full point group: Cs

    Geometry (in Angstrom), charge = 0, multiplicity = 1:

       Center              X                  Y                   Z               Mass       
    ------------   -----------------  -----------------  -----------------  -----------------
         F            0.000000000000     0.000000000000     0.000000000000    18.998403162730
         NA           0.000000000000     1.939580000000     0.000000000000    22.989769282000
      Gh(NA)          2.327496000000     0.000000000000     0.000000000000    22.989769282000

  Running in c1 symmetry.

  Rotational constants: A =      0.19492  B =      0.13536  C =      0.07988 [cm^-1]
  Rotational constants: A =   5843.42120  B =   4057.93139  C =   2394.84476 [MHz]
  Nuclear repulsion =   27.010251629904413

  Charge       = 0
  Multiplicity = 1
  Electrons    = 20
  Nalpha       = 10
  Nbeta        = 10

  ==> Algorithm <==

  SCF Algorithm Type is DF.
  DIIS enabled.
  MOM disabled.
  Fractional occupation disabled.
  Guess Type is SAD.
  Energy threshold   = 1.00e-08
  Density threshold  = 1.00e-08
  Integral threshold = 1.00e-12

  ==> Primary Basis <==

  Basis Set: AUG-CC-PVTZ
    Blend: AUG-CC-PVTZ
    Number of shells: 46
    Number of basis functions: 146
    Number of Cartesian functions: 173
    Spherical Harmonics?: true
    Max angular momentum: 3

   => Loading Basis Set <=

    Name: (AUG-CC-PVTZ AUX)
    Role: JKFIT
    Keyword: DF_BASIS_SCF
    atoms 1   entry F          line   348 file /home/kchung25/anaconda3/envs/p415env/share/psi4/basis/aug-cc-pvtz-jkfit.gbs 
    atoms 2-3 entry NA         line   498 file /home/kchung25/anaconda3/envs/p415env/share/psi4/basis/def2-universal-jkfit.gbs 

  ==> Integral Setup <==

  ==> DiskDFJK: Density-Fitted J/K Matrices <==

    J tasked:                  Yes
    K tasked:                  Yes
    wK tasked:                  No
    OpenMP threads:              6
    Integrals threads:           6
    Memory [MiB]:            42915
    Algorithm:                Core
    Integral Cache:           LOAD
    Schwarz Cutoff:          1E-12
    Fitting Condition:       1E-10

   => Auxiliary Basis Set <=

  Basis Set: (AUG-CC-PVTZ AUX)
    Blend: AUG-CC-PVTZ-JKFIT + DEF2-UNIVERSAL-JKFIT
    Number of shells: 98
    Number of basis functions: 328
    Number of Cartesian functions: 405
    Spherical Harmonics?: true
    Max angular momentum: 4

  Minimum eigenvalue in the overlap matrix is 5.9879824728E-05.
  Reciprocal condition number of the overlap matrix is 8.2930348992E-06.
    Using symmetric orthogonalization.

  ==> Pre-Iterations <==

  SCF Guess: Superposition of Atomic Densities via on-the-fly atomic UHF (no occupation information).

   -------------------------
    Irrep   Nso     Nmo    
   -------------------------
     A        146     146 
   -------------------------
    Total     146     146
   -------------------------

  ==> Iterations <==

                           Total Energy        Delta E     RMS |[F,P]|

   @DF-RHF iter SAD:  -260.62610421696627   -2.60626e+02   0.00000e+00 
   @DF-RHF iter   1:  -261.26436043344364   -6.38256e-01   3.73791e-03 ADIIS/DIIS
   @DF-RHF iter   2:  -261.31108861566008   -4.67282e-02   3.27211e-03 ADIIS/DIIS
   @DF-RHF iter   3:  -261.37058098089904   -5.94924e-02   1.07470e-04 ADIIS/DIIS
   @DF-RHF iter   4:  -261.37065599208688   -7.50112e-05   2.56489e-05 DIIS
   @DF-RHF iter   5:  -261.37066154905091   -5.55696e-06   3.29091e-06 DIIS
   @DF-RHF iter   6:  -261.37066184411322   -2.95062e-07   6.59152e-07 DIIS
   @DF-RHF iter   7:  -261.37066186095217   -1.68390e-08   1.41969e-07 DIIS
   @DF-RHF iter   8:  -261.37066186162633   -6.74163e-10   1.59453e-08 DIIS
   @DF-RHF iter   9:  -261.37066186163310   -6.76437e-12   2.33100e-09 DIIS
  Energy and wave function converged.


  ==> Post-Iterations <==

    Orbital Energies [Eh]
    ---------------------

    Doubly Occupied:                                                      

       1A    -40.463303     2A    -26.067830     3A     -2.787952  
       4A     -1.512992     5A     -1.511705     6A     -1.511563  
       7A     -1.322027     8A     -0.438576     9A     -0.426683  
      10A     -0.426589  

    Virtual:                                                              

      11A     -0.016082    12A      0.008860    13A      0.012132  
      14A      0.013417    15A      0.016899    16A      0.024024  
      17A      0.025726    18A      0.030647    19A      0.036305  
      20A      0.042611    21A      0.047261    22A      0.054388  
      23A      0.062680    24A      0.065629    25A      0.067012  
      26A      0.073910    27A      0.074327    28A      0.079175  
      29A      0.089008    30A      0.092864    31A      0.095791  
      32A      0.095925    33A      0.101661    34A      0.110666  
      35A      0.114869    36A      0.116661    37A      0.126498  
      38A      0.128427    39A      0.161167    40A      0.168500  
      41A      0.169445    42A      0.191948    43A      0.201510  
      44A      0.218194    45A      0.218522    46A      0.238738  
      47A      0.240855    48A      0.250187    49A      0.262272  
      50A      0.262776    51A      0.280637    52A      0.286364  
      53A      0.288512    54A      0.294852    55A      0.302159  
      56A      0.305963    57A      0.314719    58A      0.319667  
      59A      0.324479    60A      0.327360    61A      0.331086  
      62A      0.344149    63A      0.358081    64A      0.367872  
      65A      0.385477    66A      0.394579    67A      0.399968  
      68A      0.405676    69A      0.410073    70A      0.416188  
      71A      0.444832    72A      0.450428    73A      0.472859  
      74A      0.521560    75A      0.543980    76A      0.567591  
      77A      0.582109    78A      0.587634    79A      0.597791  
      80A      0.602854    81A      0.638462    82A      0.654202  
      83A      0.693913    84A      0.696378    85A      0.724103  
      86A      0.731037    87A      0.745557    88A      0.753928  
      89A      0.771877    90A      0.774518    91A      0.796708  
      92A      0.820798    93A      0.822817    94A      0.828317  
      95A      0.831592    96A      0.864478    97A      0.886857  
      98A      0.915235    99A      0.971283   100A      1.024679  
     101A      1.042671   102A      1.063957   103A      1.196420  
     104A      1.264956   105A      1.270038   106A      1.362865  
     107A      1.408385   108A      1.514248   109A      1.639235  
     110A      1.800539   111A      1.982754   112A      2.227575  
     113A      2.578777   114A      3.078920   115A      3.105155  
     116A      3.112664   117A      3.128043   118A      3.156104  
     119A      3.171962   120A      3.198718   121A      3.287697  
     122A      3.288658   123A      3.354949   124A      3.360384  
     125A      3.486147   126A      4.705193   127A      5.660607  
     128A      5.840427   129A      5.907926   130A      6.409330  
     131A      6.464235   132A      6.674579   133A      9.059367  
     134A      9.059790   135A      9.073480   136A      9.073482  
     137A      9.098891   138A      9.099749   139A      9.141540  
     140A      9.627880   141A      9.654847   142A      9.686644  
     143A      9.720227   144A      9.759754   145A     12.500868  
     146A     64.542945  

    Final Occupation by Irrep:
              A 
    DOCC [    10 ]
    NA   [    10 ]
    NB   [    10 ]

  @DF-RHF Final Energy:  -261.37066186163310

   => Energetics <=

    Nuclear Repulsion Energy =             27.0102516299044133
    One-Electron Energy =                -423.8233884801689442
    Two-Electron Energy =                 135.4424749886314032
    Total Energy =                       -261.3706618616331525

Computation Completed


Properties will be evaluated at   0.000000,   0.000000,   0.000000 [a0]

Properties computed using the SCF density matrix


 Multipole Moments:

 ------------------------------------------------------------------------------------
     Multipole            Electronic (a.u.)      Nuclear  (a.u.)        Total (a.u.)
 ------------------------------------------------------------------------------------

 L = 1.  Multiply by 2.5417464519 to convert [e a0] to [Debye]
 Dipole X            :          0.0009758            0.0000000            0.0009758
 Dipole Y            :        -36.9754551           40.3180250            3.3425699
 Dipole Z            :          0.0000000            0.0000000            0.0000000
 Magnitude           :                                                    3.3425701

 ------------------------------------------------------------------------------------

*** tstop() called on moses-razer at Wed Jan  3 21:15:43 2024
Module time:
	user time   =       5.13 seconds =       0.09 minutes
	system time =       0.56 seconds =       0.01 minutes
	total time  =          2 seconds =       0.03 minutes
Total time:
	user time   =      11.29 seconds =       0.19 minutes
	system time =       1.19 seconds =       0.02 minutes
	total time  =          4 seconds =       0.07 minutes

  //>>>>>>>>>>>>>>>>>>>>>>>>>>>>>>>>>>>//
  //            Monomer B HF           //
  //<<<<<<<<<<<<<<<<<<<<<<<<<<<<<<<<<<<//

   => Libint2 <=

    Primary   basis highest AM E, G, H:  5, 4, 3
    Auxiliary basis highest AM E, G, H:  6, 5, 4
    Onebody   basis highest AM E, G, H:  6, 5, 4
    Solid Harmonics ordering:            gaussian

*** tstart() called on moses-razer
*** at Wed Jan  3 21:15:43 2024

   => Loading Basis Set <=

    Name: AUG-CC-PVTZ
    Role: ORBITAL
    Keyword: BASIS
    atoms 1   entry F          line   377 file /home/kchung25/anaconda3/envs/p415env/share/psi4/basis/aug-cc-pvtz.gbs 
    atoms 2-3 entry NA         line   469 file /home/kchung25/anaconda3/envs/p415env/share/psi4/basis/aug-cc-pvtz.gbs 


         ---------------------------------------------------------
                                   SCF
               by Justin Turney, Rob Parrish, Andy Simmonett
                          and Daniel G. A. Smith
                              RHF Reference
                        6 Threads,  57220 MiB Core
         ---------------------------------------------------------

  ==> Geometry <==

    Molecular point group: c1
    Full point group: Cs

    Geometry (in Angstrom), charge = 1, multiplicity = 1:

       Center              X                  Y                   Z               Mass       
    ------------   -----------------  -----------------  -----------------  -----------------
      Gh(F)           0.000000000000     0.000000000000     0.000000000000    18.998403162730
      Gh(NA)          0.000000000000     1.939580000000     0.000000000000    22.989769282000
         NA           2.327496000000     0.000000000000     0.000000000000    22.989769282000

  Running in c1 symmetry.

  Rotational constants: A =      0.19492  B =      0.13536  C =      0.07988 [cm^-1]
  Rotational constants: A =   5843.42120  B =   4057.93139  C =   2394.84476 [MHz]
  Nuclear repulsion =    0.000000000000000

  Charge       = 1
  Multiplicity = 1
  Electrons    = 10
  Nalpha       = 5
  Nbeta        = 5

  ==> Algorithm <==

  SCF Algorithm Type is DF.
  DIIS enabled.
  MOM disabled.
  Fractional occupation disabled.
  Guess Type is SAD.
  Energy threshold   = 1.00e-08
  Density threshold  = 1.00e-08
  Integral threshold = 1.00e-12

  ==> Primary Basis <==

  Basis Set: AUG-CC-PVTZ
    Blend: AUG-CC-PVTZ
    Number of shells: 46
    Number of basis functions: 146
    Number of Cartesian functions: 173
    Spherical Harmonics?: true
    Max angular momentum: 3

   => Loading Basis Set <=

    Name: (AUG-CC-PVTZ AUX)
    Role: JKFIT
    Keyword: DF_BASIS_SCF
    atoms 1   entry F          line   348 file /home/kchung25/anaconda3/envs/p415env/share/psi4/basis/aug-cc-pvtz-jkfit.gbs 
    atoms 2-3 entry NA         line   498 file /home/kchung25/anaconda3/envs/p415env/share/psi4/basis/def2-universal-jkfit.gbs 

  ==> Integral Setup <==

  ==> DiskDFJK: Density-Fitted J/K Matrices <==

    J tasked:                  Yes
    K tasked:                  Yes
    wK tasked:                  No
    OpenMP threads:              6
    Integrals threads:           6
    Memory [MiB]:            42915
    Algorithm:                Core
    Integral Cache:           LOAD
    Schwarz Cutoff:          1E-12
    Fitting Condition:       1E-10

   => Auxiliary Basis Set <=

  Basis Set: (AUG-CC-PVTZ AUX)
    Blend: AUG-CC-PVTZ-JKFIT + DEF2-UNIVERSAL-JKFIT
    Number of shells: 98
    Number of basis functions: 328
    Number of Cartesian functions: 405
    Spherical Harmonics?: true
    Max angular momentum: 4

  Minimum eigenvalue in the overlap matrix is 5.9879824728E-05.
  Reciprocal condition number of the overlap matrix is 8.2930348992E-06.
    Using symmetric orthogonalization.

  ==> Pre-Iterations <==

  SCF Guess: Superposition of Atomic Densities via on-the-fly atomic UHF (no occupation information).

   -------------------------
    Irrep   Nso     Nmo    
   -------------------------
     A        146     146 
   -------------------------
    Total     146     146
   -------------------------

  ==> Iterations <==

                           Total Energy        Delta E     RMS |[F,P]|

   @DF-RHF iter SAD:  -161.74556427974960   -1.61746e+02   0.00000e+00 
   @DF-RHF iter   1:  -161.67602677532307    6.95375e-02   4.00685e-05 DIIS
   @DF-RHF iter   2:  -161.67604464706540   -1.78717e-05   7.78709e-06 DIIS
   @DF-RHF iter   3:  -161.67604510268637   -4.55621e-07   2.93165e-07 DIIS
   @DF-RHF iter   4:  -161.67604510341178   -7.25407e-10   2.36905e-08 DIIS
   @DF-RHF iter   5:  -161.67604510341644   -4.66116e-12   1.48721e-09 DIIS
  Energy and wave function converged.


  ==> Post-Iterations <==

    Orbital Energies [Eh]
    ---------------------

    Doubly Occupied:                                                      

       1A    -40.762697     2A     -3.074832     3A     -1.798096  
       4A     -1.798035     5A     -1.797993  

    Virtual:                                                              

       6A     -0.181833     7A     -0.109446     8A     -0.109438  
       9A     -0.109436    10A     -0.070048    11A     -0.054827  
      12A     -0.054812    13A     -0.054607    14A     -0.050497  
      15A     -0.050440    16A     -0.050017    17A     -0.049066  
      18A     -0.049046    19A     -0.028905    20A     -0.024738  
      21A     -0.024508    22A     -0.024264    23A     -0.021167  
      24A     -0.009930    25A     -0.009677    26A     -0.006681  
      27A     -0.006644    28A     -0.001205    29A     -0.000544  
      30A     -0.000089    31A      0.011958    32A      0.022460  
      33A      0.026318    34A      0.026845    35A      0.036726  
      36A      0.041213    37A      0.046556    38A      0.054253  
      39A      0.056549    40A      0.075180    41A      0.090082  
      42A      0.093083    43A      0.094358    44A      0.097520  
      45A      0.098626    46A      0.115661    47A      0.119207  
      48A      0.141087    49A      0.147207    50A      0.152328  
      51A      0.161615    52A      0.162444    53A      0.165359  
      54A      0.170656    55A      0.173036    56A      0.173901  
      57A      0.176919    58A      0.191489    59A      0.207414  
      60A      0.211954    61A      0.231396    62A      0.239001  
      63A      0.240805    64A      0.248509    65A      0.249738  
      66A      0.250377    67A      0.271432    68A      0.276947  
      69A      0.347055    70A      0.360834    71A      0.374612  
      72A      0.376698    73A      0.379513    74A      0.395612  
      75A      0.398440    76A      0.418347    77A      0.449779  
      78A      0.453248    79A      0.477590    80A      0.492706  
      81A      0.493523    82A      0.524505    83A      0.530449  
      84A      0.532305    85A      0.580283    86A      0.585849  
      87A      0.596345    88A      0.621057    89A      0.629867  
      90A      0.651158    91A      0.653203    92A      0.677615  
      93A      0.688625    94A      0.689539    95A      0.780436  
      96A      0.808887    97A      0.815603    98A      0.890823  
      99A      0.892070   100A      0.947299   101A      1.046022  
     102A      1.085205   103A      1.141593   104A      1.204852  
     105A      1.228914   106A      1.296793   107A      1.390254  
     108A      2.050756   109A      2.881364   110A      2.887825  
     111A      2.900945   112A      2.937066   113A      2.961001  
     114A      2.969263   115A      3.045811   116A      3.062787  
     117A      3.112407   118A      3.218228   119A      3.437479  
     120A      3.544870   121A      3.546118   122A      3.613645  
     123A      3.635024   124A      3.705802   125A      4.541013  
     126A      6.183939   127A      6.301368   128A      6.968784  
     129A      9.953138   130A      9.966775   131A      9.977373  
     132A      9.984607   133A     10.005385   134A     10.019363  
     135A     10.056511   136A     10.063699   137A     12.826682  
     138A     12.841550   139A     12.870904   140A     12.906997  
     141A     12.938439   142A     14.216849   143A     14.435032  
     144A     14.511157   145A     64.366663   146A     69.451758  

    Final Occupation by Irrep:
              A 
    DOCC [     5 ]
    NA   [     5 ]
    NB   [     5 ]

  @DF-RHF Final Energy:  -161.67604510341644

   => Energetics <=

    Nuclear Repulsion Energy =              0.0000000000000000
    One-Electron Energy =                -224.8887844207248747
    Two-Electron Energy =                  63.2127393173084613
    Total Energy =                       -161.6760451034164134

Computation Completed


Properties will be evaluated at   0.000000,   0.000000,   0.000000 [a0]

Properties computed using the SCF density matrix


 Multipole Moments:

 ------------------------------------------------------------------------------------
     Multipole            Electronic (a.u.)      Nuclear  (a.u.)        Total (a.u.)
 ------------------------------------------------------------------------------------

 L = 1.  Multiply by 2.5417464519 to convert [e a0] to [Debye]
 Dipole X            :        -43.9838695           48.3816300            4.3977605
 Dipole Y            :          0.0002550            0.0000000            0.0002550
 Dipole Z            :         -0.0000000            0.0000000           -0.0000000
 Magnitude           :                                                    4.3977605

 ------------------------------------------------------------------------------------

*** tstop() called on moses-razer at Wed Jan  3 21:15:44 2024
Module time:
	user time   =       4.50 seconds =       0.07 minutes
	system time =       0.55 seconds =       0.01 minutes
	total time  =          1 seconds =       0.02 minutes
Total time:
	user time   =      15.81 seconds =       0.26 minutes
	system time =       1.74 seconds =       0.03 minutes
	total time  =          5 seconds =       0.08 minutes
  Constructing Basis Sets for SAPT...

   => Loading Basis Set <=

    Name: (AUG-CC-PVTZ AUX)
    Role: RIFIT
    Keyword: DF_BASIS_SAPT
    atoms 1   entry F          line   322 file /home/kchung25/anaconda3/envs/p415env/share/psi4/basis/aug-cc-pvtz-ri.gbs 
    atoms 2-3 entry NA         line   610 file /home/kchung25/anaconda3/envs/p415env/share/psi4/basis/def2-qzvpp-ri.gbs 

   => Loading Basis Set <=

    Name: (AUG-CC-PVTZ AUX)
    Role: JKFIT
    Keyword: DF_BASIS_ELST
    atoms 1   entry F          line   348 file /home/kchung25/anaconda3/envs/p415env/share/psi4/basis/aug-cc-pvtz-jkfit.gbs 
    atoms 2-3 entry NA         line   498 file /home/kchung25/anaconda3/envs/p415env/share/psi4/basis/def2-universal-jkfit.gbs 


  //>>>>>>>>>>>>>>>>>>>>>>>>>>>>>>>>>>>//
  //               SAPT2+              //
  //<<<<<<<<<<<<<<<<<<<<<<<<<<<<<<<<<<<//


*** tstart() called on moses-razer
*** at Wed Jan  3 21:15:44 2024

        SAPT2+  
    Ed Hohenstein
     6 June 2009

      Orbital Information
  --------------------------
    NSO        =       146
    NMO        =       146
    NRI        =       438
    NOCC A     =        10
    NOCC B     =         5
    FOCC A     =         0
    FOCC B     =         0
    NVIR A     =       136
    NVIR B     =       141

    Estimated memory usage: 117.4 MB

    Natural Orbital Cutoff:   1.000E-06
    Disp(T3) Truncation:            Yes
    CCD (vv|vv) Truncation:         Yes
    MBPT T2 Truncation:             Yes

    Monomer A: 70 virtual orbitals dropped
    Monomer B: 131 virtual orbitals dropped

    Elst10,r            =    -0.053685850690 [Eh]
    Exch10 (S^2)        =     0.010821848971 [Eh]
    Exch10              =     0.010853293030 [Eh]
    Ind20,r (A<-B)      =    -0.024101521531 [Eh]
    Ind20,r (B<-A)      =    -0.000219764314 [Eh]
    Ind20,r             =    -0.024321285844 [Eh]
    Exch-Ind20,r (A<-B) =     0.014826427947 [Eh]
    Exch-Ind20,r (B<-A) =     0.000005037427 [Eh]
    Exch-Ind20,r        =     0.014831465374 [Eh]
    Disp20              =    -0.000540251007 [Eh]
    Disp20 (NO)         =    -0.000427423257 [Eh]
    Exch-Disp20         =     0.000115107015 [Eh]
    Elst12,r            =    -0.000448285120 [Eh]
    Exch11              =    -0.000136041924 [Eh]
    Exch12              =     0.003265097027 [Eh]
    Ind22               =    -0.007333053452 [Eh]
    Disp21              =    -0.000046593568 [Eh]
    Disp22 (SDQ)        =    -0.000067961974 [Eh]

    (i =   1 of   5)          0 seconds
    (i =   2 of   5)          0 seconds
    (i =   3 of   5)          0 seconds
    (i =   4 of   5)          0 seconds
    (i =   5 of   5)          0 seconds

    Disp220 (T)         =    -0.000039707180 [Eh]

    (i =   1 of  10)          0 seconds
    (i =   2 of  10)          0 seconds
    (i =   3 of  10)          0 seconds
    (i =   4 of  10)          0 seconds
    (i =   5 of  10)          0 seconds
    (i =   6 of  10)          0 seconds
    (i =   7 of  10)          0 seconds
    (i =   8 of  10)          0 seconds
    (i =   9 of  10)          0 seconds
    (i =  10 of  10)          0 seconds

    Disp202 (T)         =    -0.000010904698 [Eh]

    Disp22 (T)          =    -0.000050611878 [Eh]

    Est. Disp220 (T)    =    -0.000050188762 [Eh]
    Est. Disp202 (T)    =    -0.000013783232 [Eh]

    Est. Disp22 (T)     =    -0.000063971994 [Eh]

    SAPT Results 
  --------------------------------------------------------------------------------------------------------
    Electrostatics                -54.13413581 [mEh]     -33.96968308 [kcal/mol]    -142.12915399 [kJ/mol]
      Elst10,r                    -53.68585069 [mEh]     -33.68837992 [kcal/mol]    -140.95218157 [kJ/mol]
      Elst12,r                     -0.44828512 [mEh]      -0.28130316 [kcal/mol]      -1.17697242 [kJ/mol]

    Exchange                       13.98234813 [mEh]       8.77405592 [kcal/mol]      36.71064996 [kJ/mol]
      Exch10                       10.85329303 [mEh]       6.81054420 [kcal/mol]      28.49531692 [kJ/mol]
      Exch10(S^2)                  10.82184897 [mEh]       6.79081275 [kcal/mol]      28.41276056 [kJ/mol]
      Exch11(S^2)                  -0.13604192 [mEh]      -0.08536760 [kcal/mol]      -0.35717802 [kJ/mol]
      Exch12(S^2)                   3.26509703 [mEh]       2.04887932 [kcal/mol]       8.57251106 [kJ/mol]

    Induction                     -11.00607171 [mEh]      -6.90641427 [kcal/mol]     -28.89643729 [kJ/mol]
      Ind20,r                     -24.32128584 [mEh]     -15.26183728 [kcal/mol]     -63.85552719 [kJ/mol]
      Ind22                        -7.33305345 [mEh]      -4.60156051 [kcal/mol]     -19.25292919 [kJ/mol]
      Exch-Ind20,r                 14.83146537 [mEh]       9.30688503 [kcal/mol]      38.94000698 [kJ/mol]
      Exch-Ind22                    4.47180010 [mEh]       2.80609692 [kcal/mol]      11.74070953 [kJ/mol]
      delta HF,r (2)                1.34500212 [mEh]       0.84400157 [kcal/mol]       3.53130258 [kJ/mol]

    Dispersion                     -0.60367153 [mEh]      -0.37880960 [kcal/mol]      -1.58493938 [kJ/mol]
      Disp20                       -0.54025101 [mEh]      -0.33901263 [kcal/mol]      -1.41842882 [kJ/mol]
      Disp21                       -0.04659357 [mEh]      -0.02923791 [kcal/mol]      -0.12233140 [kJ/mol]
      Disp22 (SDQ)                 -0.06796197 [mEh]      -0.04264678 [kcal/mol]      -0.17843414 [kJ/mol]
      Disp22 (T)                   -0.05061188 [mEh]      -0.03175943 [kcal/mol]      -0.13288147 [kJ/mol]
      Est. Disp22 (T)              -0.06397199 [mEh]      -0.04014303 [kcal/mol]      -0.16795845 [kJ/mol]
      Exch-Disp20                   0.11510702 [mEh]       0.07223074 [kcal/mol]       0.30221343 [kJ/mol]

  Total HF                        -50.97737601 [mEh]     -31.98878639 [kcal/mol]    -133.84108228 [kJ/mol]
  Total SAPT0                     -51.40252000 [mEh]     -32.25556828 [kcal/mol]    -134.95729767 [kJ/mol]
  Total SAPT2                     -51.58300338 [mEh]     -32.36882330 [kcal/mol]    -135.43115670 [kJ/mol]
  Total SAPT2+                    -51.76153091 [mEh]     -32.48085102 [kcal/mol]    -135.89988068 [kJ/mol]

  Special recipe for scaled SAPT0 (see Manual):
    Electrostatics sSAPT0         -53.68585069 [mEh]     -33.68837992 [kcal/mol]    -140.95218157 [kJ/mol]
    Exchange sSAPT0                10.85329303 [mEh]       6.81054420 [kcal/mol]      28.49531692 [kJ/mol]
    Induction sSAPT0               -8.01515904 [mEh]      -5.02958823 [kcal/mol]     -21.04379715 [kJ/mol]
    Dispersion sSAPT0              -0.42413771 [mEh]      -0.26615043 [kcal/mol]      -1.11357339 [kJ/mol]
  Total sSAPT0                    -51.27185440 [mEh]     -32.17357437 [kcal/mol]    -134.61423518 [kJ/mol]
  --------------------------------------------------------------------------------------------------------

*** tstop() called on moses-razer at Wed Jan  3 21:15:52 2024
Module time:
	user time   =      28.61 seconds =       0.48 minutes
	system time =       1.98 seconds =       0.03 minutes
	total time  =          8 seconds =       0.13 minutes
Total time:
	user time   =      44.91 seconds =       0.75 minutes
	system time =       3.72 seconds =       0.06 minutes
	total time  =         13 seconds =       0.22 minutes

    Psi4 stopped on: Wednesday, 03 January 2024 09:15PM
    Psi4 wall time for execution: 0:00:12.63

*** Psi4 exiting successfully. Buy a developer a beer!
