
    -----------------------------------------------------------------------
          Psi4: An Open-Source Ab Initio Electronic Structure Package
                               Psi4 1.9 release

                         Git: Rev {} zzzzzzz 


    D. G. A. Smith, L. A. Burns, A. C. Simmonett, R. M. Parrish,
    M. C. Schieber, R. Galvelis, P. Kraus, H. Kruse, R. Di Remigio,
    A. Alenaizan, A. M. James, S. Lehtola, J. P. Misiewicz, M. Scheurer,
    R. A. Shaw, J. B. Schriber, Y. Xie, Z. L. Glick, D. A. Sirianni,
    J. S. O'Brien, J. M. Waldrop, A. Kumar, E. G. Hohenstein,
    B. P. Pritchard, B. R. Brooks, H. F. Schaefer III, A. Yu. Sokolov,
    K. Patkowski, A. E. DePrince III, U. Bozkaya, R. A. King,
    F. A. Evangelista, J. M. Turney, T. D. Crawford, C. D. Sherrill,
    J. Chem. Phys. 152(18) 184108 (2020). https://doi.org/10.1063/5.0006002

                            Additional Code Authors
    E. T. Seidl, C. L. Janssen, E. F. Valeev, M. L. Leininger,
    J. F. Gonthier, R. M. Richard, H. R. McAlexander, M. Saitow, X. Wang,
    P. Verma, M. H. Lechner, A. Jiang, S. Behnle, A. G. Heide,
    M. F. Herbst, and D. L. Poole

             Previous Authors, Complete List of Code Contributors,
                       and Citations for Specific Modules
    https://github.com/psi4/psi4/blob/master/codemeta.json
    https://github.com/psi4/psi4/graphs/contributors
    http://psicode.org/psi4manual/master/introduction.html#citing-psifour

    -----------------------------------------------------------------------


    Psi4 started on: Wednesday, 03 January 2024 09:30PM

    Process ID: 440247
    Host:       moses-razer
    PSIDATADIR: /home/kchung25/anaconda3/envs/psi4_19/share/psi4
    Memory:     500.0 MiB
    Threads:    6
    
  ==> Input File <==

--------------------------------------------------------------------------
MEMORY 60 GB

molecule dimer {
0 1
Na     0.000000     0.000000     0.000000
Br     0.000000     2.514159     0.000000
--
-1 1
Br     3.016991     0.000000     0.000000

units ang
no_reorient
no_com
symmetry c1
}

set {
basis        aug-cc-pVTZ
scf_type     df
}

energy("sapt2+")
--------------------------------------------------------------------------

  Memory set to  55.879 GiB by Python driver.

Scratch directory: /scratch/
   => Loading Basis Set <=

    Name: AUG-CC-PVTZ
    Role: ORBITAL
    Keyword: BASIS
    atoms 1   entry NA         line   469 file /home/kchung25/anaconda3/envs/p415env/share/psi4/basis/aug-cc-pvtz.gbs 
    atoms 2-3 entry BR         line  4564 file /home/kchung25/anaconda3/envs/p415env/share/psi4/basis/aug-cc-pvtz.gbs 

   => Loading Basis Set <=

    Name: AUG-CC-PVTZ
    Role: ORBITAL
    Keyword: BASIS
    atoms 1   entry NA         line   469 file /home/kchung25/anaconda3/envs/p415env/share/psi4/basis/aug-cc-pvtz.gbs 
    atoms 2-3 entry BR         line  4564 file /home/kchung25/anaconda3/envs/p415env/share/psi4/basis/aug-cc-pvtz.gbs 


  //>>>>>>>>>>>>>>>>>>>>>>>>>>>>>>>>>>>//
  //              Dimer HF             //
  //<<<<<<<<<<<<<<<<<<<<<<<<<<<<<<<<<<<//

   => Libint2 <=

    Primary   basis highest AM E, G, H:  5, 4, 3
    Auxiliary basis highest AM E, G, H:  6, 5, 4
    Onebody   basis highest AM E, G, H:  6, 5, 4
    Solid Harmonics ordering:            gaussian

*** tstart() called on moses-razer
*** at Wed Jan  3 21:30:53 2024

   => Loading Basis Set <=

    Name: AUG-CC-PVTZ
    Role: ORBITAL
    Keyword: BASIS
    atoms 1   entry NA         line   469 file /home/kchung25/anaconda3/envs/p415env/share/psi4/basis/aug-cc-pvtz.gbs 
    atoms 2-3 entry BR         line  4564 file /home/kchung25/anaconda3/envs/p415env/share/psi4/basis/aug-cc-pvtz.gbs 


         ---------------------------------------------------------
                                   SCF
               by Justin Turney, Rob Parrish, Andy Simmonett
                          and Daniel G. A. Smith
                              RHF Reference
                        6 Threads,  57220 MiB Core
         ---------------------------------------------------------

  ==> Geometry <==

    Molecular point group: c1
    Full point group: Cs

    Geometry (in Angstrom), charge = -1, multiplicity = 1:

       Center              X                  Y                   Z               Mass       
    ------------   -----------------  -----------------  -----------------  -----------------
         NA           0.000000000000     0.000000000000     0.000000000000    22.989769282000
         BR           0.000000000000     2.514159000000     0.000000000000    78.918337600000
         BR           3.016991000000     0.000000000000     0.000000000000    78.918337600000

  Running in c1 symmetry.

  Rotational constants: A =      0.03379  B =      0.02347  C =      0.01385 [cm^-1]
  Rotational constants: A =   1013.10344  B =    703.54396  C =    415.20630 [MHz]
  Nuclear repulsion =  313.625890736693236

  Charge       = -1
  Multiplicity = 1
  Electrons    = 82
  Nalpha       = 41
  Nbeta        = 41

  ==> Algorithm <==

  SCF Algorithm Type is DF.
  DIIS enabled.
  MOM disabled.
  Fractional occupation disabled.
  Guess Type is SAD.
  Energy threshold   = 1.00e-08
  Density threshold  = 1.00e-08
  Integral threshold = 1.00e-12

  ==> Primary Basis <==

  Basis Set: AUG-CC-PVTZ
    Blend: AUG-CC-PVTZ
    Number of shells: 54
    Number of basis functions: 168
    Number of Cartesian functions: 197
    Spherical Harmonics?: true
    Max angular momentum: 3

   => Loading Basis Set <=

    Name: (AUG-CC-PVTZ AUX)
    Role: JKFIT
    Keyword: DF_BASIS_SCF
    atoms 1   entry NA         line   498 file /home/kchung25/anaconda3/envs/p415env/share/psi4/basis/def2-universal-jkfit.gbs 
    atoms 2-3 entry BR         line  1492 file /home/kchung25/anaconda3/envs/p415env/share/psi4/basis/aug-cc-pvtz-jkfit.gbs 

  ==> Integral Setup <==

  ==> DiskDFJK: Density-Fitted J/K Matrices <==

    J tasked:                  Yes
    K tasked:                  Yes
    wK tasked:                  No
    OpenMP threads:              6
    Integrals threads:           6
    Memory [MiB]:            42915
    Algorithm:                Core
    Integral Cache:           SAVE
    Schwarz Cutoff:          1E-12
    Fitting Condition:       1E-10

   => Auxiliary Basis Set <=

  Basis Set: (AUG-CC-PVTZ AUX)
    Blend: AUG-CC-PVTZ-JKFIT + DEF2-UNIVERSAL-JKFIT
    Number of shells: 150
    Number of basis functions: 608
    Number of Cartesian functions: 795
    Spherical Harmonics?: true
    Max angular momentum: 4

  Minimum eigenvalue in the overlap matrix is 5.9850401735E-05.
  Reciprocal condition number of the overlap matrix is 9.8783865801E-06.
    Using symmetric orthogonalization.

  ==> Pre-Iterations <==

  SCF Guess: Superposition of Atomic Densities via on-the-fly atomic UHF (no occupation information).

   -------------------------
    Irrep   Nso     Nmo    
   -------------------------
     A        168     168 
   -------------------------
    Total     168     168
   -------------------------

  ==> Iterations <==

                           Total Energy        Delta E     RMS |[F,P]|

   @DF-RHF iter SAD: -5302.71944642362087   -5.30272e+03   0.00000e+00 
   @DF-RHF iter   1: -5306.43788010500157   -3.71843e+00   8.85069e-03 DIIS/ADIIS
   @DF-RHF iter   2: -5306.84561196574305   -4.07732e-01   4.80499e-03 DIIS/ADIIS
   @DF-RHF iter   3: -5306.97169718601435   -1.26085e-01   1.04264e-04 DIIS/ADIIS
   @DF-RHF iter   4: -5306.97183346596557   -1.36280e-04   2.26058e-05 DIIS
   @DF-RHF iter   5: -5306.97184466613453   -1.12002e-05   7.69743e-06 DIIS
   @DF-RHF iter   6: -5306.97184633218967   -1.66606e-06   1.82373e-06 DIIS
   @DF-RHF iter   7: -5306.97184652467331   -1.92484e-07   5.44995e-07 DIIS
   @DF-RHF iter   8: -5306.97184653435033   -9.67702e-09   1.20644e-07 DIIS
   @DF-RHF iter   9: -5306.97184653541535   -1.06502e-09   2.62148e-08 DIIS
   @DF-RHF iter  10: -5306.97184653547993   -6.45741e-11   6.07087e-09 DIIS
  Energy and wave function converged.


  ==> Post-Iterations <==

    Orbital Energies [Eh]
    ---------------------

    Doubly Occupied:                                                      

       1A   -489.772740     2A   -489.756079     3A    -64.913316  
       4A    -64.896164     5A    -58.267825     6A    -58.267781  
       7A    -58.267681     8A    -58.250729     9A    -58.250633  
      10A    -58.250568    11A    -40.334230    12A     -9.586052  
      13A     -9.568470    14A     -7.193986    15A     -7.193421  
      16A     -7.193064    17A     -7.176311    18A     -7.175744  
      19A     -7.175444    20A     -2.935711    21A     -2.935588  
      22A     -2.935107    23A     -2.934529    24A     -2.934451  
      25A     -2.918149    26A     -2.917991    27A     -2.917601  
      28A     -2.916875    29A     -2.916833    30A     -2.656707  
      31A     -1.380181    32A     -1.379938    33A     -1.378446  
      34A     -0.747669    35A     -0.723872    36A     -0.217346  
      37A     -0.200941    38A     -0.197095    39A     -0.180905  
      40A     -0.174420    41A     -0.164682  

    Virtual:                                                              

      42A      0.068068    43A      0.084442    44A      0.086984  
      45A      0.099515    46A      0.107206    47A      0.132483  
      48A      0.136417    49A      0.151575    50A      0.161052  
      51A      0.162922    52A      0.175866    53A      0.179770  
      54A      0.180584    55A      0.201446    56A      0.218678  
      57A      0.232887    58A      0.257605    59A      0.263560  
      60A      0.269397    61A      0.269606    62A      0.269742  
      63A      0.277999    64A      0.299157    65A      0.342331  
      66A      0.345539    67A      0.348044    68A      0.361257  
      69A      0.370421    70A      0.389177    71A      0.390828  
      72A      0.394081    73A      0.411152    74A      0.431556  
      75A      0.434912    76A      0.444800    77A      0.446867  
      78A      0.458641    79A      0.486603    80A      0.498571  
      81A      0.518406    82A      0.522705    83A      0.534483  
      84A      0.555570    85A      0.560805    86A      0.564525  
      87A      0.571416    88A      0.586962    89A      0.589815  
      90A      0.614013    91A      0.647979    92A      0.718361  
      93A      0.723296    94A      0.725853    95A      0.740856  
      96A      0.771912    97A      0.802190    98A      0.808750  
      99A      0.823949   100A      0.837711   101A      0.837997  
     102A      0.849231   103A      0.850681   104A      0.855294  
     105A      0.856085   106A      0.879450   107A      0.881416  
     108A      0.952322   109A      0.971340   110A      1.022703  
     111A      1.026660   112A      1.045313   113A      1.050331  
     114A      1.056270   115A      1.090942   116A      1.116063  
     117A      1.158924   118A      1.162746   119A      1.173192  
     120A      1.178770   121A      1.185926   122A      1.200631  
     123A      1.208544   124A      1.210992   125A      1.232406  
     126A      1.267336   127A      1.291504   128A      1.292457  
     129A      1.348584   130A      1.386360   131A      1.464986  
     132A      1.468672   133A      1.500077   134A      1.577844  
     135A      1.728585   136A      2.427567   137A      2.434736  
     138A      2.442750   139A      2.455561   140A      2.458113  
     141A      2.516303   142A      2.522779   143A      2.540307  
     144A      2.543560   145A      2.547509   146A      2.553995  
     147A      2.557763   148A      2.562654   149A      2.569713  
     150A      2.578099   151A      2.588581   152A      2.599807  
     153A      2.612936   154A      2.619422   155A      2.636679  
     156A      2.650204   157A      2.665130   158A      2.668353  
     159A      2.695029   160A      2.696841   161A      2.720464  
     162A      2.726566   163A      2.749697   164A      2.792304  
     165A      2.831552   166A      2.904803   167A      4.373649  
     168A      5.013937  

    Final Occupation by Irrep:
              A 
    DOCC [    41 ]
    NA   [    41 ]
    NB   [    41 ]

  @DF-RHF Final Energy: -5306.97184653547993

   => Energetics <=

    Nuclear Repulsion Energy =            313.6258907366932362
    One-Electron Energy =               -8040.8849258668124094
    Two-Electron Energy =                2420.2871885946387920
    Total Energy =                      -5306.9718465354799264

Computation Completed


Properties will be evaluated at   0.000000,   0.000000,   0.000000 [a0]

Properties computed using the SCF density matrix


 Multipole Moments:

 ------------------------------------------------------------------------------------
     Multipole            Electronic (a.u.)      Nuclear  (a.u.)        Total (a.u.)
 ------------------------------------------------------------------------------------

 L = 1.  Multiply by 2.5417464519 to convert [e a0] to [Debye]
 Dipole X            :       -204.3611326          199.5450350           -4.8160977
 Dipole Y            :       -170.0898790          166.2875181           -3.8023609
 Dipole Z            :         -0.0000000            0.0000000           -0.0000000
 Magnitude           :                                                    6.1361833

 ------------------------------------------------------------------------------------

*** tstop() called on moses-razer at Wed Jan  3 21:30:59 2024
Module time:
	user time   =      14.91 seconds =       0.25 minutes
	system time =       1.35 seconds =       0.02 minutes
	total time  =          6 seconds =       0.10 minutes
Total time:
	user time   =      14.91 seconds =       0.25 minutes
	system time =       1.35 seconds =       0.02 minutes
	total time  =          6 seconds =       0.10 minutes

  //>>>>>>>>>>>>>>>>>>>>>>>>>>>>>>>>>>>//
  //            Monomer A HF           //
  //<<<<<<<<<<<<<<<<<<<<<<<<<<<<<<<<<<<//

   => Libint2 <=

    Primary   basis highest AM E, G, H:  5, 4, 3
    Auxiliary basis highest AM E, G, H:  6, 5, 4
    Onebody   basis highest AM E, G, H:  6, 5, 4
    Solid Harmonics ordering:            gaussian

*** tstart() called on moses-razer
*** at Wed Jan  3 21:30:59 2024

   => Loading Basis Set <=

    Name: AUG-CC-PVTZ
    Role: ORBITAL
    Keyword: BASIS
    atoms 1   entry NA         line   469 file /home/kchung25/anaconda3/envs/p415env/share/psi4/basis/aug-cc-pvtz.gbs 
    atoms 2-3 entry BR         line  4564 file /home/kchung25/anaconda3/envs/p415env/share/psi4/basis/aug-cc-pvtz.gbs 


         ---------------------------------------------------------
                                   SCF
               by Justin Turney, Rob Parrish, Andy Simmonett
                          and Daniel G. A. Smith
                              RHF Reference
                        6 Threads,  57220 MiB Core
         ---------------------------------------------------------

  ==> Geometry <==

    Molecular point group: c1
    Full point group: Cs

    Geometry (in Angstrom), charge = 0, multiplicity = 1:

       Center              X                  Y                   Z               Mass       
    ------------   -----------------  -----------------  -----------------  -----------------
         NA           0.000000000000     0.000000000000     0.000000000000    22.989769282000
         BR           0.000000000000     2.514159000000     0.000000000000    78.918337600000
      Gh(BR)          3.016991000000     0.000000000000     0.000000000000    78.918337600000

  Running in c1 symmetry.

  Rotational constants: A =      0.03379  B =      0.02347  C =      0.01385 [cm^-1]
  Rotational constants: A =   1013.10344  B =    703.54396  C =    415.20630 [MHz]
  Nuclear repulsion =   81.034344330629054

  Charge       = 0
  Multiplicity = 1
  Electrons    = 46
  Nalpha       = 23
  Nbeta        = 23

  ==> Algorithm <==

  SCF Algorithm Type is DF.
  DIIS enabled.
  MOM disabled.
  Fractional occupation disabled.
  Guess Type is SAD.
  Energy threshold   = 1.00e-08
  Density threshold  = 1.00e-08
  Integral threshold = 1.00e-12

  ==> Primary Basis <==

  Basis Set: AUG-CC-PVTZ
    Blend: AUG-CC-PVTZ
    Number of shells: 54
    Number of basis functions: 168
    Number of Cartesian functions: 197
    Spherical Harmonics?: true
    Max angular momentum: 3

   => Loading Basis Set <=

    Name: (AUG-CC-PVTZ AUX)
    Role: JKFIT
    Keyword: DF_BASIS_SCF
    atoms 1   entry NA         line   498 file /home/kchung25/anaconda3/envs/p415env/share/psi4/basis/def2-universal-jkfit.gbs 
    atoms 2-3 entry BR         line  1492 file /home/kchung25/anaconda3/envs/p415env/share/psi4/basis/aug-cc-pvtz-jkfit.gbs 

  ==> Integral Setup <==

  ==> DiskDFJK: Density-Fitted J/K Matrices <==

    J tasked:                  Yes
    K tasked:                  Yes
    wK tasked:                  No
    OpenMP threads:              6
    Integrals threads:           6
    Memory [MiB]:            42915
    Algorithm:                Core
    Integral Cache:           LOAD
    Schwarz Cutoff:          1E-12
    Fitting Condition:       1E-10

   => Auxiliary Basis Set <=

  Basis Set: (AUG-CC-PVTZ AUX)
    Blend: AUG-CC-PVTZ-JKFIT + DEF2-UNIVERSAL-JKFIT
    Number of shells: 150
    Number of basis functions: 608
    Number of Cartesian functions: 795
    Spherical Harmonics?: true
    Max angular momentum: 4

  Minimum eigenvalue in the overlap matrix is 5.9850401735E-05.
  Reciprocal condition number of the overlap matrix is 9.8783865801E-06.
    Using symmetric orthogonalization.

  ==> Pre-Iterations <==

  SCF Guess: Superposition of Atomic Densities via on-the-fly atomic UHF (no occupation information).

   -------------------------
    Irrep   Nso     Nmo    
   -------------------------
     A        168     168 
   -------------------------
    Total     168     168
   -------------------------

  ==> Iterations <==

                           Total Energy        Delta E     RMS |[F,P]|

   @DF-RHF iter SAD: -2732.24877134449798   -2.73225e+03   0.00000e+00 
   @DF-RHF iter   1: -2734.14153140278813   -1.89276e+00   6.27757e-03 DIIS/ADIIS
   @DF-RHF iter   2: -2734.34442045225023   -2.02889e-01   3.39187e-03 DIIS/ADIIS
   @DF-RHF iter   3: -2734.40583927492798   -6.14188e-02   6.04512e-05 DIIS
   @DF-RHF iter   4: -2734.40589269272050   -5.34178e-05   1.41759e-05 DIIS
   @DF-RHF iter   5: -2734.40589726594226   -4.57322e-06   4.24192e-06 DIIS
   @DF-RHF iter   6: -2734.40589780774008   -5.41798e-07   1.00224e-06 DIIS
   @DF-RHF iter   7: -2734.40589787761610   -6.98760e-08   1.74863e-07 DIIS
   @DF-RHF iter   8: -2734.40589788032094   -2.70484e-09   2.90386e-08 DIIS
   @DF-RHF iter   9: -2734.40589788040461   -8.36735e-11   5.63812e-09 DIIS
  Energy and wave function converged.


  ==> Post-Iterations <==

    Orbital Energies [Eh]
    ---------------------

    Doubly Occupied:                                                      

       1A   -489.909964     2A    -65.050403     3A    -58.404898  
       4A    -58.404830     5A    -58.404830     6A    -40.508028  
       7A     -9.723029     8A     -7.330973     9A     -7.330160  
      10A     -7.330159    11A     -3.072646    12A     -3.072297  
      13A     -3.072296    14A     -3.071483    15A     -3.071482  
      16A     -2.829221    17A     -1.551973    18A     -1.551930  
      19A     -1.551728    20A     -0.883372    21A     -0.348361  
      22A     -0.330545    23A     -0.330539  

    Virtual:                                                              

      24A     -0.021517    25A      0.011043    26A      0.011210  
      27A      0.013100    28A      0.024019    29A      0.038761  
      30A      0.039388    31A      0.049352    32A      0.055437  
      33A      0.061968    34A      0.070319    35A      0.071860  
      36A      0.078337    37A      0.091328    38A      0.106688  
      39A      0.109837    40A      0.110090    41A      0.117185  
      42A      0.119099    43A      0.139204    44A      0.163463  
      45A      0.167077    46A      0.167624    47A      0.174527  
      48A      0.201923    49A      0.216336    50A      0.219443  
      51A      0.233229    52A      0.252937    53A      0.254844  
      54A      0.261021    55A      0.280601    56A      0.287085  
      57A      0.287927    58A      0.306368    59A      0.313807  
      60A      0.318197    61A      0.318203    62A      0.320806  
      63A      0.356513    64A      0.362968    65A      0.371277  
      66A      0.383783    67A      0.386781    68A      0.409937  
      69A      0.410169    70A      0.431071    71A      0.444968  
      72A      0.448846    73A      0.451865    74A      0.491855  
      75A      0.493886    76A      0.534838    77A      0.545970  
      78A      0.562622    79A      0.582047    80A      0.583311  
      81A      0.614850    82A      0.664404    83A      0.673230  
      84A      0.692576    85A      0.700782    86A      0.706002  
      87A      0.711401    88A      0.719513    89A      0.723084  
      90A      0.748837    91A      0.753774    92A      0.838245  
      93A      0.907880    94A      0.920502    95A      0.945521  
      96A      1.000604    97A      1.005710    98A      1.021072  
      99A      1.024207   100A      1.033450   101A      1.046423  
     102A      1.064089   103A      1.076197   104A      1.088449  
     105A      1.095395   106A      1.107481   107A      1.122276  
     108A      1.139805   109A      1.140325   110A      1.157791  
     111A      1.166369   112A      1.215393   113A      1.217892  
     114A      1.227140   115A      1.275752   116A      1.282521  
     117A      1.334345   118A      1.355952   119A      1.400484  
     120A      1.486070   121A      1.600090   122A      2.306923  
     123A      2.324083   124A      2.351428   125A      2.404295  
     126A      2.412672   127A      2.417907   128A      2.420005  
     129A      2.430978   130A      2.470245   131A      2.501265  
     132A      2.523207   133A      2.533848   134A      2.563665  
     135A      2.589061   136A      2.609648   137A      2.703062  
     138A      2.881967   139A      2.904325   140A      2.976714  
     141A      3.091294   142A      3.111519   143A      3.118823  
     144A      3.138726   145A      3.181849   146A      3.221183  
     147A      3.273427   148A      3.291691   149A      3.303960  
     150A      3.355393   151A      3.359711   152A      3.382843  
     153A      3.492307   154A      4.879679   155A      9.656553  
     156A     13.476074   157A     13.499527   158A     13.619121  
     159A     26.128538   160A     26.137034   161A     26.191468  
     162A     26.203982   163A     26.224461   164A     45.560824  
     165A    138.453402   166A    138.489445   167A    138.679278  
     168A    708.917313  

    Final Occupation by Irrep:
              A 
    DOCC [    23 ]
    NA   [    23 ]
    NB   [    23 ]

  @DF-RHF Final Energy: -2734.40589788040461

   => Energetics <=

    Nuclear Repulsion Energy =             81.0343443306290538
    One-Electron Energy =               -3976.6101895943802447
    Two-Electron Energy =                1161.1699473833464253
    Total Energy =                      -2734.4058978804046092

Computation Completed


Properties will be evaluated at   0.000000,   0.000000,   0.000000 [a0]

Properties computed using the SCF density matrix


 Multipole Moments:

 ------------------------------------------------------------------------------------
     Multipole            Electronic (a.u.)      Nuclear  (a.u.)        Total (a.u.)
 ------------------------------------------------------------------------------------

 L = 1.  Multiply by 2.5417464519 to convert [e a0] to [Debye]
 Dipole X            :         -0.0001758            0.0000000           -0.0001758
 Dipole Y            :       -170.0373720          166.2875181           -3.7498539
 Dipole Z            :          0.0000000            0.0000000            0.0000000
 Magnitude           :                                                    3.7498539

 ------------------------------------------------------------------------------------

*** tstop() called on moses-razer at Wed Jan  3 21:31:05 2024
Module time:
	user time   =      11.61 seconds =       0.19 minutes
	system time =       1.17 seconds =       0.02 minutes
	total time  =          6 seconds =       0.10 minutes
Total time:
	user time   =      26.54 seconds =       0.44 minutes
	system time =       2.52 seconds =       0.04 minutes
	total time  =         12 seconds =       0.20 minutes

  //>>>>>>>>>>>>>>>>>>>>>>>>>>>>>>>>>>>//
  //            Monomer B HF           //
  //<<<<<<<<<<<<<<<<<<<<<<<<<<<<<<<<<<<//

   => Libint2 <=

    Primary   basis highest AM E, G, H:  5, 4, 3
    Auxiliary basis highest AM E, G, H:  6, 5, 4
    Onebody   basis highest AM E, G, H:  6, 5, 4
    Solid Harmonics ordering:            gaussian

*** tstart() called on moses-razer
*** at Wed Jan  3 21:31:05 2024

   => Loading Basis Set <=

    Name: AUG-CC-PVTZ
    Role: ORBITAL
    Keyword: BASIS
    atoms 1   entry NA         line   469 file /home/kchung25/anaconda3/envs/p415env/share/psi4/basis/aug-cc-pvtz.gbs 
    atoms 2-3 entry BR         line  4564 file /home/kchung25/anaconda3/envs/p415env/share/psi4/basis/aug-cc-pvtz.gbs 


         ---------------------------------------------------------
                                   SCF
               by Justin Turney, Rob Parrish, Andy Simmonett
                          and Daniel G. A. Smith
                              RHF Reference
                        6 Threads,  57220 MiB Core
         ---------------------------------------------------------

  ==> Geometry <==

    Molecular point group: c1
    Full point group: Cs

    Geometry (in Angstrom), charge = -1, multiplicity = 1:

       Center              X                  Y                   Z               Mass       
    ------------   -----------------  -----------------  -----------------  -----------------
      Gh(NA)          0.000000000000     0.000000000000     0.000000000000    22.989769282000
      Gh(BR)          0.000000000000     2.514159000000     0.000000000000    78.918337600000
         BR           3.016991000000     0.000000000000     0.000000000000    78.918337600000

  Running in c1 symmetry.

  Rotational constants: A =      0.03379  B =      0.02347  C =      0.01385 [cm^-1]
  Rotational constants: A =   1013.10344  B =    703.54396  C =    415.20630 [MHz]
  Nuclear repulsion =    0.000000000000000

  Charge       = -1
  Multiplicity = 1
  Electrons    = 36
  Nalpha       = 18
  Nbeta        = 18

  ==> Algorithm <==

  SCF Algorithm Type is DF.
  DIIS enabled.
  MOM disabled.
  Fractional occupation disabled.
  Guess Type is SAD.
  Energy threshold   = 1.00e-08
  Density threshold  = 1.00e-08
  Integral threshold = 1.00e-12

  ==> Primary Basis <==

  Basis Set: AUG-CC-PVTZ
    Blend: AUG-CC-PVTZ
    Number of shells: 54
    Number of basis functions: 168
    Number of Cartesian functions: 197
    Spherical Harmonics?: true
    Max angular momentum: 3

   => Loading Basis Set <=

    Name: (AUG-CC-PVTZ AUX)
    Role: JKFIT
    Keyword: DF_BASIS_SCF
    atoms 1   entry NA         line   498 file /home/kchung25/anaconda3/envs/p415env/share/psi4/basis/def2-universal-jkfit.gbs 
    atoms 2-3 entry BR         line  1492 file /home/kchung25/anaconda3/envs/p415env/share/psi4/basis/aug-cc-pvtz-jkfit.gbs 

  ==> Integral Setup <==

  ==> DiskDFJK: Density-Fitted J/K Matrices <==

    J tasked:                  Yes
    K tasked:                  Yes
    wK tasked:                  No
    OpenMP threads:              6
    Integrals threads:           6
    Memory [MiB]:            42915
    Algorithm:                Core
    Integral Cache:           LOAD
    Schwarz Cutoff:          1E-12
    Fitting Condition:       1E-10

   => Auxiliary Basis Set <=

  Basis Set: (AUG-CC-PVTZ AUX)
    Blend: AUG-CC-PVTZ-JKFIT + DEF2-UNIVERSAL-JKFIT
    Number of shells: 150
    Number of basis functions: 608
    Number of Cartesian functions: 795
    Spherical Harmonics?: true
    Max angular momentum: 4

  Minimum eigenvalue in the overlap matrix is 5.9850401735E-05.
  Reciprocal condition number of the overlap matrix is 9.8783865801E-06.
    Using symmetric orthogonalization.

  ==> Pre-Iterations <==

  SCF Guess: Superposition of Atomic Densities via on-the-fly atomic UHF (no occupation information).

   -------------------------
    Irrep   Nso     Nmo    
   -------------------------
     A        168     168 
   -------------------------
    Total     168     168
   -------------------------

  ==> Iterations <==

                           Total Energy        Delta E     RMS |[F,P]|

   @DF-RHF iter SAD: -2570.41423529350095   -2.57041e+03   0.00000e+00 
   @DF-RHF iter   1: -2572.25493200707297   -1.84070e+00   6.28815e-03 DIIS/ADIIS
   @DF-RHF iter   2: -2572.46392559108608   -2.08994e-01   3.49656e-03 DIIS/ADIIS
   @DF-RHF iter   3: -2572.53364025120027   -6.97147e-02   5.55509e-05 DIIS
   @DF-RHF iter   4: -2572.53368078528456   -4.05341e-05   6.99600e-06 DIIS
   @DF-RHF iter   5: -2572.53368272627040   -1.94099e-06   1.91532e-06 DIIS
   @DF-RHF iter   6: -2572.53368286152863   -1.35258e-07   3.86432e-07 DIIS
   @DF-RHF iter   7: -2572.53368287870262   -1.71740e-08   2.35447e-08 DIIS
   @DF-RHF iter   8: -2572.53368287874309   -4.04725e-11   4.17904e-09 DIIS
  Energy and wave function converged.


  ==> Post-Iterations <==

    Orbital Energies [Eh]
    ---------------------

    Doubly Occupied:                                                      

       1A   -489.720820     2A    -64.860770     3A    -58.215260  
       4A    -58.215259     5A    -58.215258     6A     -9.532948  
       7A     -7.140294     8A     -7.140292     9A     -7.140283  
      10A     -2.881971    11A     -2.881970    12A     -2.881966  
      13A     -2.881964    14A     -2.881963    15A     -0.685997  
      16A     -0.139340    17A     -0.139337    18A     -0.139337  

    Virtual:                                                              

      19A      0.073034    20A      0.085362    21A      0.086153  
      22A      0.099298    23A      0.130570    24A      0.142270  
      25A      0.144090    26A      0.146815    27A      0.164901  
      28A      0.166449    29A      0.174982    30A      0.179509  
      31A      0.195276    32A      0.210753    33A      0.219400  
      34A      0.227325    35A      0.229604    36A      0.257848  
      37A      0.265983    38A      0.270771    39A      0.282011  
      40A      0.282093    41A      0.299638    42A      0.336806  
      43A      0.366454    44A      0.375771    45A      0.382268  
      46A      0.384816    47A      0.406467    48A      0.412699  
      49A      0.417984    50A      0.434388    51A      0.439348  
      52A      0.452294    53A      0.465509    54A      0.468117  
      55A      0.479300    56A      0.488430    57A      0.502822  
      58A      0.506863    59A      0.521395    60A      0.526876  
      61A      0.540664    62A      0.542983    63A      0.550794  
      64A      0.567383    65A      0.582291    66A      0.611921  
      67A      0.618072    68A      0.627372    69A      0.658001  
      70A      0.684037    71A      0.714601    72A      0.796865  
      73A      0.833196    74A      0.843426    75A      0.845913  
      76A      0.861501    77A      0.876871    78A      0.882639  
      79A      0.917051    80A      0.918667    81A      0.924603  
      82A      0.930144    83A      0.930182    84A      0.957953  
      85A      0.961800    86A      1.008590    87A      1.031684  
      88A      1.064862    89A      1.076832    90A      1.093988  
      91A      1.156348    92A      1.161042    93A      1.185702  
      94A      1.187600    95A      1.200629    96A      1.201351  
      97A      1.218835    98A      1.233779    99A      1.244942  
     100A      1.259841   101A      1.275630   102A      1.285334  
     103A      1.305671   104A      1.318276   105A      1.325273  
     106A      1.344409   107A      1.344454   108A      1.399953  
     109A      1.432270   110A      1.435623   111A      1.446040  
     112A      1.551309   113A      1.575363   114A      1.579453  
     115A      1.636672   116A      1.711095   117A      2.012753  
     118A      2.468854   119A      2.486937   120A      2.567247  
     121A      2.584524   122A      2.590488   123A      2.594542  
     124A      2.601861   125A      2.630676   126A      2.653814  
     127A      2.659400   128A      2.675129   129A      2.726669  
     130A      2.728266   131A      2.764056   132A      2.831466  
     133A      3.078060   134A      3.109927   135A      3.199059  
     136A      3.277028   137A      3.285645   138A      3.303397  
     139A      3.336306   140A      3.390365   141A      3.462655  
     142A      3.468534   143A      3.472258   144A      3.505058  
     145A      3.516866   146A      3.559472   147A      3.579044  
     148A      3.926585   149A      4.330554   150A      5.033817  
     151A      6.531223   152A      6.804831   153A      6.973728  
     154A     10.464694   155A     13.683992   156A     13.720448  
     157A     13.851084   158A     26.307721   159A     26.317334  
     160A     26.393735   161A     26.408434   162A     26.493852  
     163A     46.141962   164A     64.689469   165A    138.688570  
     166A    138.743950   167A    138.939410   168A    710.346255  

    Final Occupation by Irrep:
              A 
    DOCC [    18 ]
    NA   [    18 ]
    NB   [    18 ]

  @DF-RHF Final Energy: -2572.53368287874309

   => Energetics <=

    Nuclear Repulsion Energy =              0.0000000000000000
    One-Electron Energy =               -3593.6773046411694850
    Two-Electron Energy =                1021.1436217624262781
    Total Energy =                      -2572.5336828787430932

Computation Completed


Properties will be evaluated at   0.000000,   0.000000,   0.000000 [a0]

Properties computed using the SCF density matrix


 Multipole Moments:

 ------------------------------------------------------------------------------------
     Multipole            Electronic (a.u.)      Nuclear  (a.u.)        Total (a.u.)
 ------------------------------------------------------------------------------------

 L = 1.  Multiply by 2.5417464519 to convert [e a0] to [Debye]
 Dipole X            :       -205.2467107          199.5450350           -5.7016758
 Dipole Y            :         -0.0000724            0.0000000           -0.0000724
 Dipole Z            :         -0.0000000            0.0000000           -0.0000000
 Magnitude           :                                                    5.7016758

 ------------------------------------------------------------------------------------

*** tstop() called on moses-razer at Wed Jan  3 21:31:10 2024
Module time:
	user time   =       9.78 seconds =       0.16 minutes
	system time =       0.87 seconds =       0.01 minutes
	total time  =          5 seconds =       0.08 minutes
Total time:
	user time   =      36.34 seconds =       0.61 minutes
	system time =       3.39 seconds =       0.06 minutes
	total time  =         17 seconds =       0.28 minutes
  Constructing Basis Sets for SAPT...

   => Loading Basis Set <=

    Name: (AUG-CC-PVTZ AUX)
    Role: RIFIT
    Keyword: DF_BASIS_SAPT
    atoms 1   entry NA         line   610 file /home/kchung25/anaconda3/envs/p415env/share/psi4/basis/def2-qzvpp-ri.gbs 
    atoms 2-3 entry BR         line  1248 file /home/kchung25/anaconda3/envs/p415env/share/psi4/basis/aug-cc-pvtz-ri.gbs 

   => Loading Basis Set <=

    Name: (AUG-CC-PVTZ AUX)
    Role: JKFIT
    Keyword: DF_BASIS_ELST
    atoms 1   entry NA         line   498 file /home/kchung25/anaconda3/envs/p415env/share/psi4/basis/def2-universal-jkfit.gbs 
    atoms 2-3 entry BR         line  1492 file /home/kchung25/anaconda3/envs/p415env/share/psi4/basis/aug-cc-pvtz-jkfit.gbs 


  //>>>>>>>>>>>>>>>>>>>>>>>>>>>>>>>>>>>//
  //               SAPT2+              //
  //<<<<<<<<<<<<<<<<<<<<<<<<<<<<<<<<<<<//


*** tstart() called on moses-razer
*** at Wed Jan  3 21:31:11 2024

        SAPT2+  
    Ed Hohenstein
     6 June 2009

      Orbital Information
  --------------------------
    NSO        =       168
    NMO        =       168
    NRI        =       548
    NOCC A     =        23
    NOCC B     =        18
    FOCC A     =         0
    FOCC B     =         0
    NVIR A     =       145
    NVIR B     =       150

    Estimated memory usage: 384.3 MB

    Natural Orbital Cutoff:   1.000E-06
    Disp(T3) Truncation:            Yes
    CCD (vv|vv) Truncation:         Yes
    MBPT T2 Truncation:             Yes

    Monomer A: 74 virtual orbitals dropped
    Monomer B: 90 virtual orbitals dropped

    Elst10,r            =    -0.039390347408 [Eh]
    Exch10 (S^2)        =     0.017621173089 [Eh]
    Exch10              =     0.017813707975 [Eh]
    Ind20,r (A<-B)      =    -0.013359175376 [Eh]
    Ind20,r (B<-A)      =    -0.034667179628 [Eh]
    Ind20,r             =    -0.048026355003 [Eh]
    Exch-Ind20,r (A<-B) =     0.008041674928 [Eh]
    Exch-Ind20,r (B<-A) =     0.027191677197 [Eh]
    Exch-Ind20,r        =     0.035233352125 [Eh]
    Disp20              =    -0.006954924000 [Eh]
    Disp20 (NO)         =    -0.006169863865 [Eh]
    Exch-Disp20         =     0.001914600003 [Eh]
    Elst12,r            =    -0.000647032199 [Eh]
    Exch11              =     0.000661022770 [Eh]
    Exch12              =     0.001418058954 [Eh]
    Ind22               =    -0.005597753209 [Eh]
    Disp21              =     0.000843008661 [Eh]
    Disp22 (SDQ)        =    -0.000036779483 [Eh]

    (i =   1 of  18)          2 seconds
    (i =   2 of  18)          4 seconds
    (i =   3 of  18)          6 seconds
    (i =   4 of  18)          8 seconds
    (i =   5 of  18)         10 seconds
    (i =   6 of  18)         12 seconds
    (i =   7 of  18)         15 seconds
    (i =   8 of  18)         17 seconds
    (i =   9 of  18)         19 seconds
    (i =  10 of  18)         21 seconds
    (i =  11 of  18)         23 seconds
    (i =  12 of  18)         25 seconds
    (i =  13 of  18)         27 seconds
    (i =  14 of  18)         29 seconds
    (i =  15 of  18)         32 seconds
    (i =  16 of  18)         34 seconds
    (i =  17 of  18)         36 seconds
    (i =  18 of  18)         38 seconds

    Disp220 (T)         =    -0.000569412515 [Eh]

    (i =   1 of  23)          1 seconds
    (i =   2 of  23)          2 seconds
    (i =   3 of  23)          3 seconds
    (i =   4 of  23)          4 seconds
    (i =   5 of  23)          5 seconds
    (i =   6 of  23)          6 seconds
    (i =   7 of  23)          7 seconds
    (i =   8 of  23)          8 seconds
    (i =   9 of  23)          9 seconds
    (i =  10 of  23)          9 seconds
    (i =  11 of  23)         10 seconds
    (i =  12 of  23)         11 seconds
    (i =  13 of  23)         12 seconds
    (i =  14 of  23)         13 seconds
    (i =  15 of  23)         14 seconds
    (i =  16 of  23)         15 seconds
    (i =  17 of  23)         16 seconds
    (i =  18 of  23)         17 seconds
    (i =  19 of  23)         18 seconds
    (i =  20 of  23)         19 seconds
    (i =  21 of  23)         20 seconds
    (i =  22 of  23)         21 seconds
    (i =  23 of  23)         22 seconds

    Disp202 (T)         =    -0.000565425201 [Eh]

    Disp22 (T)          =    -0.001134837717 [Eh]

    Est. Disp220 (T)    =    -0.000641865178 [Eh]
    Est. Disp202 (T)    =    -0.000637370514 [Eh]

    Est. Disp22 (T)     =    -0.001279235692 [Eh]

    SAPT Results 
  --------------------------------------------------------------------------------------------------------
    Electrostatics                -40.03737961 [mEh]     -25.12383501 [kcal/mol]    -105.11812568 [kJ/mol]
      Elst10,r                    -39.39034741 [mEh]     -24.71781617 [kcal/mol]    -103.41934287 [kJ/mol]
      Elst12,r                     -0.64703220 [mEh]      -0.40601883 [kcal/mol]      -1.69878281 [kJ/mol]

    Exchange                       19.89278970 [mEh]      12.48291400 [kcal/mol]      52.22851216 [kJ/mol]
      Exch10                       17.81370797 [mEh]      11.17827052 [kcal/mol]      46.76988384 [kJ/mol]
      Exch10(S^2)                  17.62117309 [mEh]      11.05745305 [kcal/mol]      46.26438357 [kJ/mol]
      Exch11(S^2)                   0.66102277 [mEh]       0.41479805 [kcal/mol]       1.73551504 [kJ/mol]
      Exch12(S^2)                   1.41805895 [mEh]       0.88984543 [kcal/mol]       3.72311327 [kJ/mol]

    Induction                     -12.18023638 [mEh]      -7.64321372 [kcal/mol]     -31.97920620 [kJ/mol]
      Ind20,r                     -48.02635500 [mEh]     -30.13699276 [kcal/mol]    -126.09317769 [kJ/mol]
      Ind22                        -5.59775321 [mEh]      -3.51264317 [kcal/mol]     -14.69689903 [kJ/mol]
      Exch-Ind20,r                 35.23335213 [mEh]      22.10926225 [kcal/mol]      92.50515326 [kJ/mol]
      Exch-Ind22                    4.10665373 [mEh]       2.57696412 [kcal/mol]      10.78201788 [kJ/mol]
      delta HF,r (2)                2.10386598 [mEh]       1.32019583 [kcal/mol]       5.52369937 [kJ/mol]

    Dispersion                     -5.51333051 [mEh]      -3.45966713 [kcal/mol]     -14.47524726 [kJ/mol]
      Disp20                       -6.95492400 [mEh]      -4.36428070 [kcal/mol]     -18.26015045 [kJ/mol]
      Disp21                        0.84300866 [mEh]       0.52899592 [kcal/mol]       2.21331893 [kJ/mol]
      Disp22 (SDQ)                 -0.03677948 [mEh]      -0.02307947 [kcal/mol]      -0.09656452 [kJ/mol]
      Disp22 (T)                   -1.13483772 [mEh]      -0.71212142 [kcal/mol]      -2.97951601 [kJ/mol]
      Est. Disp22 (T)              -1.27923569 [mEh]      -0.80273252 [kcal/mol]      -3.35863285 [kJ/mol]
      Exch-Disp20                   1.91460000 [mEh]       1.20142964 [kcal/mol]       5.02678162 [kJ/mol]

  Total HF                        -32.26577633 [mEh]     -20.24708033 [kcal/mol]     -84.71378409 [kJ/mol]
  Total SAPT0                     -37.30610033 [mEh]     -23.40993139 [kcal/mol]     -97.94715292 [kJ/mol]
  Total SAPT2                     -37.36515028 [mEh]     -23.44698579 [kcal/mol]     -98.10218855 [kJ/mol]
  Total SAPT2+                    -37.83815680 [mEh]     -23.74380186 [kcal/mol]     -99.34406699 [kJ/mol]

  Special recipe for scaled SAPT0 (see Manual):
    Electrostatics sSAPT0         -39.39034741 [mEh]     -24.71781617 [kcal/mol]    -103.41934287 [kJ/mol]
    Exchange sSAPT0                17.81370797 [mEh]      11.17827052 [kcal/mol]      46.76988384 [kJ/mol]
    Induction sSAPT0               -9.52155745 [mEh]      -5.97486751 [kcal/mol]     -24.99884565 [kJ/mol]
    Dispersion sSAPT0              -4.97687708 [mEh]      -3.12303752 [kcal/mol]     -13.06678897 [kJ/mol]
  Total sSAPT0                    -36.07507397 [mEh]     -22.63745068 [kcal/mol]     -94.71509365 [kJ/mol]
  --------------------------------------------------------------------------------------------------------

*** tstop() called on moses-razer at Wed Jan  3 21:32:45 2024
Module time:
	user time   =     490.09 seconds =       8.17 minutes
	system time =       7.56 seconds =       0.13 minutes
	total time  =         94 seconds =       1.57 minutes
Total time:
	user time   =     526.75 seconds =       8.78 minutes
	system time =      10.95 seconds =       0.18 minutes
	total time  =        112 seconds =       1.87 minutes

    Psi4 stopped on: Wednesday, 03 January 2024 09:32PM
    Psi4 wall time for execution: 0:01:52.34

*** Psi4 exiting successfully. Buy a developer a beer!
