
    -----------------------------------------------------------------------
          Psi4: An Open-Source Ab Initio Electronic Structure Package
                               Psi4 1.9 release

                         Git: Rev {} zzzzzzz 


    D. G. A. Smith, L. A. Burns, A. C. Simmonett, R. M. Parrish,
    M. C. Schieber, R. Galvelis, P. Kraus, H. Kruse, R. Di Remigio,
    A. Alenaizan, A. M. James, S. Lehtola, J. P. Misiewicz, M. Scheurer,
    R. A. Shaw, J. B. Schriber, Y. Xie, Z. L. Glick, D. A. Sirianni,
    J. S. O'Brien, J. M. Waldrop, A. Kumar, E. G. Hohenstein,
    B. P. Pritchard, B. R. Brooks, H. F. Schaefer III, A. Yu. Sokolov,
    K. Patkowski, A. E. DePrince III, U. Bozkaya, R. A. King,
    F. A. Evangelista, J. M. Turney, T. D. Crawford, C. D. Sherrill,
    J. Chem. Phys. 152(18) 184108 (2020). https://doi.org/10.1063/5.0006002

                            Additional Code Authors
    E. T. Seidl, C. L. Janssen, E. F. Valeev, M. L. Leininger,
    J. F. Gonthier, R. M. Richard, H. R. McAlexander, M. Saitow, X. Wang,
    P. Verma, M. H. Lechner, A. Jiang, S. Behnle, A. G. Heide,
    M. F. Herbst, and D. L. Poole

             Previous Authors, Complete List of Code Contributors,
                       and Citations for Specific Modules
    https://github.com/psi4/psi4/blob/master/codemeta.json
    https://github.com/psi4/psi4/graphs/contributors
    http://psicode.org/psi4manual/master/introduction.html#citing-psifour

    -----------------------------------------------------------------------


    Psi4 started on: Wednesday, 03 January 2024 09:50PM

    Process ID: 440982
    Host:       moses-razer
    PSIDATADIR: /home/kchung25/anaconda3/envs/psi4_19/share/psi4
    Memory:     500.0 MiB
    Threads:    6
    
  ==> Input File <==

--------------------------------------------------------------------------
MEMORY 60 GB

molecule dimer {
0 1
K      0.000000     0.000000     0.000000
F      0.000000     2.175180     0.000000
--
-1 1
F      3.045252     0.000000     0.000000

units ang
no_reorient
no_com
symmetry c1
}

set {
basis        aug-cc-pVTZ
scf_type     df
}

energy("sapt2+")
--------------------------------------------------------------------------

  Memory set to  55.879 GiB by Python driver.

Scratch directory: /scratch/
   => Loading Basis Set <=

    Name: AUG-CC-PVTZ
    Role: ORBITAL
    Keyword: BASIS
    atoms 1   entry K          line  1152 file /home/kchung25/anaconda3/envs/p415env/share/psi4/basis/aug-cc-pvtz.gbs 
    atoms 2-3 entry F          line   377 file /home/kchung25/anaconda3/envs/p415env/share/psi4/basis/aug-cc-pvtz.gbs 

   => Loading Basis Set <=

    Name: AUG-CC-PVTZ
    Role: ORBITAL
    Keyword: BASIS
    atoms 1   entry K          line  1152 file /home/kchung25/anaconda3/envs/p415env/share/psi4/basis/aug-cc-pvtz.gbs 
    atoms 2-3 entry F          line   377 file /home/kchung25/anaconda3/envs/p415env/share/psi4/basis/aug-cc-pvtz.gbs 


  //>>>>>>>>>>>>>>>>>>>>>>>>>>>>>>>>>>>//
  //              Dimer HF             //
  //<<<<<<<<<<<<<<<<<<<<<<<<<<<<<<<<<<<//

   => Libint2 <=

    Primary   basis highest AM E, G, H:  5, 4, 3
    Auxiliary basis highest AM E, G, H:  6, 5, 4
    Onebody   basis highest AM E, G, H:  6, 5, 4
    Solid Harmonics ordering:            gaussian

*** tstart() called on moses-razer
*** at Wed Jan  3 21:50:44 2024

   => Loading Basis Set <=

    Name: AUG-CC-PVTZ
    Role: ORBITAL
    Keyword: BASIS
    atoms 1   entry K          line  1152 file /home/kchung25/anaconda3/envs/p415env/share/psi4/basis/aug-cc-pvtz.gbs 
    atoms 2-3 entry F          line   377 file /home/kchung25/anaconda3/envs/p415env/share/psi4/basis/aug-cc-pvtz.gbs 


         ---------------------------------------------------------
                                   SCF
               by Justin Turney, Rob Parrish, Andy Simmonett
                          and Daniel G. A. Smith
                              RHF Reference
                        6 Threads,  57220 MiB Core
         ---------------------------------------------------------

  ==> Geometry <==

    Molecular point group: c1
    Full point group: Cs

    Geometry (in Angstrom), charge = -1, multiplicity = 1:

       Center              X                  Y                   Z               Mass       
    ------------   -----------------  -----------------  -----------------  -----------------
         K            0.000000000000     0.000000000000     0.000000000000    38.963706486400
         F            0.000000000000     2.175180000000     0.000000000000    18.998403162730
         F            3.045252000000     0.000000000000     0.000000000000    18.998403162730

  Running in c1 symmetry.

  Rotational constants: A =      0.18754  B =      0.09568  C =      0.06336 [cm^-1]
  Rotational constants: A =   5622.24409  B =   2868.49189  C =   1899.40679 [MHz]
  Nuclear repulsion =   82.769397458486111

  Charge       = -1
  Multiplicity = 1
  Electrons    = 38
  Nalpha       = 19
  Nbeta        = 19

  ==> Algorithm <==

  SCF Algorithm Type is DF.
  DIIS enabled.
  MOM disabled.
  Fractional occupation disabled.
  Guess Type is SAD.
  Energy threshold   = 1.00e-08
  Density threshold  = 1.00e-08
  Integral threshold = 1.00e-12

  ==> Primary Basis <==

  Basis Set: AUG-CC-PVTZ
    Blend: AUG-CC-PVTZ
    Number of shells: 47
    Number of basis functions: 151
    Number of Cartesian functions: 179
    Spherical Harmonics?: true
    Max angular momentum: 3

   => Loading Basis Set <=

    Name: (AUG-CC-PVTZ AUX)
    Role: JKFIT
    Keyword: DF_BASIS_SCF
    atoms 1   entry K          line  1152 file /home/kchung25/anaconda3/envs/p415env/share/psi4/basis/def2-universal-jkfit.gbs 
    atoms 2-3 entry F          line   348 file /home/kchung25/anaconda3/envs/p415env/share/psi4/basis/aug-cc-pvtz-jkfit.gbs 

  ==> Integral Setup <==

  ==> DiskDFJK: Density-Fitted J/K Matrices <==

    J tasked:                  Yes
    K tasked:                  Yes
    wK tasked:                  No
    OpenMP threads:              6
    Integrals threads:           6
    Memory [MiB]:            42915
    Algorithm:                Core
    Integral Cache:           SAVE
    Schwarz Cutoff:          1E-12
    Fitting Condition:       1E-10

   => Auxiliary Basis Set <=

  Basis Set: (AUG-CC-PVTZ AUX)
    Blend: AUG-CC-PVTZ-JKFIT + DEF2-UNIVERSAL-JKFIT
    Number of shells: 104
    Number of basis functions: 368
    Number of Cartesian functions: 465
    Spherical Harmonics?: true
    Max angular momentum: 4

  Minimum eigenvalue in the overlap matrix is 4.4773021833E-04.
  Reciprocal condition number of the overlap matrix is 8.9366128768E-05.
    Using symmetric orthogonalization.

  ==> Pre-Iterations <==

  SCF Guess: Superposition of Atomic Densities via on-the-fly atomic UHF (no occupation information).

   -------------------------
    Irrep   Nso     Nmo    
   -------------------------
     A        151     151 
   -------------------------
    Total     151     151
   -------------------------

  ==> Iterations <==

                           Total Energy        Delta E     RMS |[F,P]|

   @DF-RHF iter SAD:  -796.77392705516695   -7.96774e+02   0.00000e+00 
   @DF-RHF iter   1:  -797.93798543744174   -1.16406e+00   5.18382e-03 DIIS/ADIIS
   @DF-RHF iter   2:  -798.02706556613623   -8.90801e-02   4.75822e-03 DIIS/ADIIS
   @DF-RHF iter   3:  -798.16649072914367   -1.39425e-01   1.48962e-04 DIIS/ADIIS
   @DF-RHF iter   4:  -798.16666743227802   -1.76703e-04   7.85046e-05 DIIS
   @DF-RHF iter   5:  -798.16670470363738   -3.72714e-05   2.20276e-05 DIIS
   @DF-RHF iter   6:  -798.16670875203567   -4.04840e-06   3.54725e-06 DIIS
   @DF-RHF iter   7:  -798.16670904166006   -2.89624e-07   1.06407e-06 DIIS
   @DF-RHF iter   8:  -798.16670907905075   -3.73907e-08   2.51686e-07 DIIS
   @DF-RHF iter   9:  -798.16670908142260   -2.37185e-09   4.02877e-08 DIIS
   @DF-RHF iter  10:  -798.16670908148240   -5.97993e-11   1.10435e-08 DIIS
   @DF-RHF iter  11:  -798.16670908148706   -4.66116e-12   2.86229e-09 DIIS
  Energy and wave function converged.


  ==> Post-Iterations <==

    Orbital Energies [Eh]
    ---------------------

    Doubly Occupied:                                                      

       1A   -133.318501     2A    -25.915122     3A    -25.866379  
       4A    -14.275908     5A    -11.305817     6A    -11.305606  
       7A    -11.305534     8A     -1.540085     9A     -1.177866  
      10A     -1.110128    11A     -0.753290    12A     -0.746731  
      13A     -0.743559    14A     -0.278200    15A     -0.274895  
      16A     -0.274455    17A     -0.216718    18A     -0.214522  
      19A     -0.214261  

    Virtual:                                                              

      20A      0.055490    21A      0.058545    22A      0.059915  
      23A      0.073997    24A      0.074871    25A      0.077011  
      26A      0.078922    27A      0.080393    28A      0.082930  
      29A      0.103611    30A      0.106717    31A      0.112489  
      32A      0.135228    33A      0.151218    34A      0.152332  
      35A      0.156443    36A      0.159929    37A      0.162387  
      38A      0.194160    39A      0.197210    40A      0.219336  
      41A      0.239095    42A      0.242842    43A      0.245797  
      44A      0.245817    45A      0.250273    46A      0.253498  
      47A      0.258788    48A      0.262622    49A      0.330487  
      50A      0.331233    51A      0.334646    52A      0.337397  
      53A      0.346960    54A      0.386227    55A      0.413314  
      56A      0.456398    57A      0.481863    58A      0.516699  
      59A      0.516929    60A      0.519190    61A      0.523770  
      62A      0.535566    63A      0.555328    64A      0.567533  
      65A      0.578159    66A      0.581532    67A      0.587483  
      68A      0.610122    69A      0.611092    70A      0.616164  
      71A      0.618627    72A      0.628872    73A      0.652188  
      74A      0.678135    75A      0.709773    76A      0.774378  
      77A      1.203125    78A      1.217927    79A      1.248028  
      80A      1.250382    81A      1.286940    82A      1.303063  
      83A      1.316984    84A      1.328622    85A      1.345229  
      86A      1.362181    87A      1.391555    88A      1.555509  
      89A      1.564821    90A      1.570323    91A      1.583620  
      92A      1.620400    93A      1.687289    94A      2.357044  
      95A      2.363910    96A      3.205165    97A      3.210374  
      98A      3.212043    99A      3.215443   100A      3.222159  
     101A      3.242603   102A      3.243795   103A      3.257852  
     104A      3.266044   105A      3.275042   106A      3.287702  
     107A      3.288361   108A      3.290355   109A      3.293525  
     110A      3.301649   111A      3.301916   112A      3.312637  
     113A      3.313272   114A      3.339730   115A      3.347438  
     116A      3.357831   117A      3.357968   118A      3.374070  
     119A      3.411731   120A      5.673126   121A      5.676345  
     122A      5.695547   123A      5.700369   124A      5.725455  
     125A      5.762392   126A      9.185899   127A      9.186344  
     128A      9.187612   129A      9.188919   130A      9.190960  
     131A      9.193007   132A      9.217975   133A      9.243255  
     134A      9.243416   135A      9.243885   136A      9.244806  
     137A      9.246342   138A      9.246462   139A      9.247746  
     140A      9.701563   141A      9.711228   142A      9.734066  
     143A      9.736610   144A      9.752243   145A      9.759491  
     146A      9.768253   147A      9.780381   148A      9.790738  
     149A      9.800330   150A     11.695290   151A     11.758553  

    Final Occupation by Irrep:
              A 
    DOCC [    19 ]
    NA   [    19 ]
    NB   [    19 ]

  @DF-RHF Final Energy:  -798.16670908148706

   => Energetics <=

    Nuclear Repulsion Energy =             82.7693974584861110
    One-Electron Energy =               -1280.1970560451643451
    Two-Electron Energy =                 399.2609495051912063
    Total Energy =                       -798.1667090814870562

Computation Completed


Properties will be evaluated at   0.000000,   0.000000,   0.000000 [a0]

Properties computed using the SCF density matrix


 Multipole Moments:

 ------------------------------------------------------------------------------------
     Multipole            Electronic (a.u.)      Nuclear  (a.u.)        Total (a.u.)
 ------------------------------------------------------------------------------------

 L = 1.  Multiply by 2.5417464519 to convert [e a0] to [Debye]
 Dipole X            :        -57.1841379           51.7922304           -5.3919075
 Dipole Y            :        -40.4907177           36.9944503           -3.4962675
 Dipole Z            :          0.0000000            0.0000000            0.0000000
 Magnitude           :                                                    6.4262394

 ------------------------------------------------------------------------------------

*** tstop() called on moses-razer at Wed Jan  3 21:50:50 2024
Module time:
	user time   =      10.88 seconds =       0.18 minutes
	system time =       2.24 seconds =       0.04 minutes
	total time  =          6 seconds =       0.10 minutes
Total time:
	user time   =      10.88 seconds =       0.18 minutes
	system time =       2.24 seconds =       0.04 minutes
	total time  =          6 seconds =       0.10 minutes

  //>>>>>>>>>>>>>>>>>>>>>>>>>>>>>>>>>>>//
  //            Monomer A HF           //
  //<<<<<<<<<<<<<<<<<<<<<<<<<<<<<<<<<<<//

   => Libint2 <=

    Primary   basis highest AM E, G, H:  5, 4, 3
    Auxiliary basis highest AM E, G, H:  6, 5, 4
    Onebody   basis highest AM E, G, H:  6, 5, 4
    Solid Harmonics ordering:            gaussian

*** tstart() called on moses-razer
*** at Wed Jan  3 21:50:50 2024

   => Loading Basis Set <=

    Name: AUG-CC-PVTZ
    Role: ORBITAL
    Keyword: BASIS
    atoms 1   entry K          line  1152 file /home/kchung25/anaconda3/envs/p415env/share/psi4/basis/aug-cc-pvtz.gbs 
    atoms 2-3 entry F          line   377 file /home/kchung25/anaconda3/envs/p415env/share/psi4/basis/aug-cc-pvtz.gbs 


         ---------------------------------------------------------
                                   SCF
               by Justin Turney, Rob Parrish, Andy Simmonett
                          and Daniel G. A. Smith
                              RHF Reference
                        6 Threads,  57220 MiB Core
         ---------------------------------------------------------

  ==> Geometry <==

    Molecular point group: c1
    Full point group: Cs

    Geometry (in Angstrom), charge = 0, multiplicity = 1:

       Center              X                  Y                   Z               Mass       
    ------------   -----------------  -----------------  -----------------  -----------------
         K            0.000000000000     0.000000000000     0.000000000000    38.963706486400
         F            0.000000000000     2.175180000000     0.000000000000    18.998403162730
      Gh(F)           3.045252000000     0.000000000000     0.000000000000    18.998403162730

  Running in c1 symmetry.

  Rotational constants: A =      0.18754  B =      0.09568  C =      0.06336 [cm^-1]
  Rotational constants: A =   5622.24409  B =   2868.49189  C =   1899.40679 [MHz]
  Nuclear repulsion =   41.600834424999313

  Charge       = 0
  Multiplicity = 1
  Electrons    = 28
  Nalpha       = 14
  Nbeta        = 14

  ==> Algorithm <==

  SCF Algorithm Type is DF.
  DIIS enabled.
  MOM disabled.
  Fractional occupation disabled.
  Guess Type is SAD.
  Energy threshold   = 1.00e-08
  Density threshold  = 1.00e-08
  Integral threshold = 1.00e-12

  ==> Primary Basis <==

  Basis Set: AUG-CC-PVTZ
    Blend: AUG-CC-PVTZ
    Number of shells: 47
    Number of basis functions: 151
    Number of Cartesian functions: 179
    Spherical Harmonics?: true
    Max angular momentum: 3

   => Loading Basis Set <=

    Name: (AUG-CC-PVTZ AUX)
    Role: JKFIT
    Keyword: DF_BASIS_SCF
    atoms 1   entry K          line  1152 file /home/kchung25/anaconda3/envs/p415env/share/psi4/basis/def2-universal-jkfit.gbs 
    atoms 2-3 entry F          line   348 file /home/kchung25/anaconda3/envs/p415env/share/psi4/basis/aug-cc-pvtz-jkfit.gbs 

  ==> Integral Setup <==

  ==> DiskDFJK: Density-Fitted J/K Matrices <==

    J tasked:                  Yes
    K tasked:                  Yes
    wK tasked:                  No
    OpenMP threads:              6
    Integrals threads:           6
    Memory [MiB]:            42915
    Algorithm:                Core
    Integral Cache:           LOAD
    Schwarz Cutoff:          1E-12
    Fitting Condition:       1E-10

   => Auxiliary Basis Set <=

  Basis Set: (AUG-CC-PVTZ AUX)
    Blend: AUG-CC-PVTZ-JKFIT + DEF2-UNIVERSAL-JKFIT
    Number of shells: 104
    Number of basis functions: 368
    Number of Cartesian functions: 465
    Spherical Harmonics?: true
    Max angular momentum: 4

  Minimum eigenvalue in the overlap matrix is 4.4773021833E-04.
  Reciprocal condition number of the overlap matrix is 8.9366128768E-05.
    Using symmetric orthogonalization.

  ==> Pre-Iterations <==

  SCF Guess: Superposition of Atomic Densities via on-the-fly atomic UHF (no occupation information).

   -------------------------
    Irrep   Nso     Nmo    
   -------------------------
     A        151     151 
   -------------------------
    Total     151     151
   -------------------------

  ==> Iterations <==

                           Total Energy        Delta E     RMS |[F,P]|

   @DF-RHF iter SAD:  -697.93921567474570   -6.97939e+02   0.00000e+00 
   @DF-RHF iter   1:  -698.56765024210790   -6.28435e-01   3.72552e-03 DIIS/ADIIS
   @DF-RHF iter   2:  -698.61812582400239   -5.04756e-02   3.28712e-03 DIIS/ADIIS
   @DF-RHF iter   3:  -698.68404228271652   -6.59165e-02   1.03073e-04 DIIS/ADIIS
   @DF-RHF iter   4:  -698.68414846103917   -1.06178e-04   2.68720e-05 DIIS
   @DF-RHF iter   5:  -698.68415631492326   -7.85388e-06   4.84543e-06 DIIS
   @DF-RHF iter   6:  -698.68415684842773   -5.33504e-07   1.40947e-06 DIIS
   @DF-RHF iter   7:  -698.68415690809093   -5.96632e-08   3.20485e-07 DIIS
   @DF-RHF iter   8:  -698.68415691125585   -3.16493e-09   3.83861e-08 DIIS
   @DF-RHF iter   9:  -698.68415691129280   -3.69482e-11   9.17406e-09 DIIS
  Energy and wave function converged.


  ==> Post-Iterations <==

    Orbital Energies [Eh]
    ---------------------

    Doubly Occupied:                                                      

       1A   -133.490046     2A    -26.057289     3A    -14.447506  
       4A    -11.477362     5A    -11.477358     6A    -11.477081  
       7A     -1.711659     8A     -1.320574     9A     -0.922903  
      10A     -0.922802    11A     -0.912078    12A     -0.421002  
      13A     -0.416775    14A     -0.416773  

    Virtual:                                                              

      15A     -0.008614    16A      0.005628    17A      0.005647  
      18A      0.009597    19A      0.017877    20A      0.017951  
      21A      0.019500    22A      0.021401    23A      0.021515  
      24A      0.026285    25A      0.026473    26A      0.026848  
      27A      0.038345    28A      0.056145    29A      0.056554  
      30A      0.064929    31A      0.065181    32A      0.068507  
      33A      0.083807    34A      0.086107    35A      0.088532  
      36A      0.119460    37A      0.129648    38A      0.132139  
      39A      0.135916    40A      0.137310    41A      0.140557  
      42A      0.141483    43A      0.141808    44A      0.164388  
      45A      0.172568    46A      0.194297    47A      0.200802  
      48A      0.206232    49A      0.232935    50A      0.245573  
      51A      0.257934    52A      0.264346    53A      0.275441  
      54A      0.278693    55A      0.368472    56A      0.380182  
      57A      0.401639    58A      0.405671    59A      0.407378  
      60A      0.418239    61A      0.418500    62A      0.421832  
      63A      0.436487    64A      0.445216    65A      0.447954  
      66A      0.451219    67A      0.466035    68A      0.466175  
      69A      0.489473    70A      0.532519    71A      0.558462  
      72A      0.836431    73A      0.850118    74A      0.852642  
      75A      0.895187    76A      0.960179    77A      0.971671  
      78A      1.050332    79A      1.079032    80A      1.112741  
      81A      1.115983    82A      1.119573    83A      1.149573  
      84A      1.201253    85A      1.209691    86A      1.262253  
      87A      1.427185    88A      1.441992    89A      1.489807  
      90A      2.222139    91A      3.037806    92A      3.038555  
      93A      3.049215    94A      3.055056    95A      3.055510  
      96A      3.056197    97A      3.057732    98A      3.059234  
      99A      3.060350   100A      3.063288   101A      3.066708  
     102A      3.068342   103A      3.074402   104A      3.076603  
     105A      3.080940   106A      3.102842   107A      3.104736  
     108A      3.139586   109A      3.163292   110A      3.205055  
     111A      3.223160   112A      3.237316   113A      3.254018  
     114A      3.538585   115A      3.545174   116A      3.605412  
     117A      3.627585   118A      3.661010   119A      5.535393  
     120A      5.542371   121A      5.590933   122A      9.044342  
     123A      9.044657   124A      9.045531   125A      9.046422  
     126A      9.049280   127A      9.050583   128A      9.076111  
     129A      9.559225   130A      9.563889   131A      9.571365  
     132A      9.609013   133A      9.616890   134A      9.628955  
     135A     10.126817   136A     10.127051   137A     10.127672  
     138A     10.128613   139A     10.129924   140A     10.129955  
     141A     10.131415   142A     11.615697   143A     12.923527  
     144A     12.927245   145A     12.963539   146A     12.977026  
     147A     12.987652   148A     14.231275   149A     14.234820  
     150A     14.282885   151A     67.659043  

    Final Occupation by Irrep:
              A 
    DOCC [    14 ]
    NA   [    14 ]
    NB   [    14 ]

  @DF-RHF Final Energy:  -698.68415691129280

   => Energetics <=

    Nuclear Repulsion Energy =             41.6008344249993129
    One-Electron Energy =               -1049.6275710232516758
    Two-Electron Energy =                 309.3425796869595956
    Total Energy =                       -698.6841569112928028

Computation Completed


Properties will be evaluated at   0.000000,   0.000000,   0.000000 [a0]

Properties computed using the SCF density matrix


 Multipole Moments:

 ------------------------------------------------------------------------------------
     Multipole            Electronic (a.u.)      Nuclear  (a.u.)        Total (a.u.)
 ------------------------------------------------------------------------------------

 L = 1.  Multiply by 2.5417464519 to convert [e a0] to [Debye]
 Dipole X            :         -0.0004244            0.0000000           -0.0004244
 Dipole Y            :        -40.4814472           36.9944503           -3.4869969
 Dipole Z            :          0.0000000            0.0000000            0.0000000
 Magnitude           :                                                    3.4869969

 ------------------------------------------------------------------------------------

*** tstop() called on moses-razer at Wed Jan  3 21:50:56 2024
Module time:
	user time   =       9.60 seconds =       0.16 minutes
	system time =       2.13 seconds =       0.04 minutes
	total time  =          6 seconds =       0.10 minutes
Total time:
	user time   =      20.50 seconds =       0.34 minutes
	system time =       4.37 seconds =       0.07 minutes
	total time  =         12 seconds =       0.20 minutes

  //>>>>>>>>>>>>>>>>>>>>>>>>>>>>>>>>>>>//
  //            Monomer B HF           //
  //<<<<<<<<<<<<<<<<<<<<<<<<<<<<<<<<<<<//

   => Libint2 <=

    Primary   basis highest AM E, G, H:  5, 4, 3
    Auxiliary basis highest AM E, G, H:  6, 5, 4
    Onebody   basis highest AM E, G, H:  6, 5, 4
    Solid Harmonics ordering:            gaussian

*** tstart() called on moses-razer
*** at Wed Jan  3 21:50:56 2024

   => Loading Basis Set <=

    Name: AUG-CC-PVTZ
    Role: ORBITAL
    Keyword: BASIS
    atoms 1   entry K          line  1152 file /home/kchung25/anaconda3/envs/p415env/share/psi4/basis/aug-cc-pvtz.gbs 
    atoms 2-3 entry F          line   377 file /home/kchung25/anaconda3/envs/p415env/share/psi4/basis/aug-cc-pvtz.gbs 


         ---------------------------------------------------------
                                   SCF
               by Justin Turney, Rob Parrish, Andy Simmonett
                          and Daniel G. A. Smith
                              RHF Reference
                        6 Threads,  57220 MiB Core
         ---------------------------------------------------------

  ==> Geometry <==

    Molecular point group: c1
    Full point group: Cs

    Geometry (in Angstrom), charge = -1, multiplicity = 1:

       Center              X                  Y                   Z               Mass       
    ------------   -----------------  -----------------  -----------------  -----------------
      Gh(K)           0.000000000000     0.000000000000     0.000000000000    38.963706486400
      Gh(F)           0.000000000000     2.175180000000     0.000000000000    18.998403162730
         F            3.045252000000     0.000000000000     0.000000000000    18.998403162730

  Running in c1 symmetry.

  Rotational constants: A =      0.18754  B =      0.09568  C =      0.06336 [cm^-1]
  Rotational constants: A =   5622.24409  B =   2868.49189  C =   1899.40679 [MHz]
  Nuclear repulsion =    0.000000000000000

  Charge       = -1
  Multiplicity = 1
  Electrons    = 10
  Nalpha       = 5
  Nbeta        = 5

  ==> Algorithm <==

  SCF Algorithm Type is DF.
  DIIS enabled.
  MOM disabled.
  Fractional occupation disabled.
  Guess Type is SAD.
  Energy threshold   = 1.00e-08
  Density threshold  = 1.00e-08
  Integral threshold = 1.00e-12

  ==> Primary Basis <==

  Basis Set: AUG-CC-PVTZ
    Blend: AUG-CC-PVTZ
    Number of shells: 47
    Number of basis functions: 151
    Number of Cartesian functions: 179
    Spherical Harmonics?: true
    Max angular momentum: 3

   => Loading Basis Set <=

    Name: (AUG-CC-PVTZ AUX)
    Role: JKFIT
    Keyword: DF_BASIS_SCF
    atoms 1   entry K          line  1152 file /home/kchung25/anaconda3/envs/p415env/share/psi4/basis/def2-universal-jkfit.gbs 
    atoms 2-3 entry F          line   348 file /home/kchung25/anaconda3/envs/p415env/share/psi4/basis/aug-cc-pvtz-jkfit.gbs 

  ==> Integral Setup <==

  ==> DiskDFJK: Density-Fitted J/K Matrices <==

    J tasked:                  Yes
    K tasked:                  Yes
    wK tasked:                  No
    OpenMP threads:              6
    Integrals threads:           6
    Memory [MiB]:            42915
    Algorithm:                Core
    Integral Cache:           LOAD
    Schwarz Cutoff:          1E-12
    Fitting Condition:       1E-10

   => Auxiliary Basis Set <=

  Basis Set: (AUG-CC-PVTZ AUX)
    Blend: AUG-CC-PVTZ-JKFIT + DEF2-UNIVERSAL-JKFIT
    Number of shells: 104
    Number of basis functions: 368
    Number of Cartesian functions: 465
    Spherical Harmonics?: true
    Max angular momentum: 4

  Minimum eigenvalue in the overlap matrix is 4.4773021833E-04.
  Reciprocal condition number of the overlap matrix is 8.9366128768E-05.
    Using symmetric orthogonalization.

  ==> Pre-Iterations <==

  SCF Guess: Superposition of Atomic Densities via on-the-fly atomic UHF (no occupation information).

   -------------------------
    Irrep   Nso     Nmo    
   -------------------------
     A        151     151 
   -------------------------
    Total     151     151
   -------------------------

  ==> Iterations <==

                           Total Energy        Delta E     RMS |[F,P]|

   @DF-RHF iter SAD:   -98.82535129343205   -9.88254e+01   0.00000e+00 
   @DF-RHF iter   1:   -99.33785677685586   -5.12505e-01   3.61705e-03 DIIS/ADIIS
   @DF-RHF iter   2:   -99.37277087968326   -3.49141e-02   3.53127e-03 DIIS/ADIIS
   @DF-RHF iter   3:   -99.45075158370459   -7.79807e-02   1.08921e-04 DIIS/ADIIS
   @DF-RHF iter   4:   -99.45081801539494   -6.64317e-05   4.16623e-05 DIIS
   @DF-RHF iter   5:   -99.45082837790619   -1.03625e-05   2.90251e-06 DIIS
   @DF-RHF iter   6:   -99.45082849047760   -1.12571e-07   2.22376e-07 DIIS
   @DF-RHF iter   7:   -99.45082849123938   -7.61773e-10   2.71506e-08 DIIS
   @DF-RHF iter   8:   -99.45082849126213   -2.27516e-11   2.21553e-09 DIIS
  Energy and wave function converged.


  ==> Post-Iterations <==

    Orbital Energies [Eh]
    ---------------------

    Doubly Occupied:                                                      

       1A    -25.833893     2A     -1.076115     3A     -0.181042  
       4A     -0.181037     5A     -0.181037  

    Virtual:                                                              

       6A      0.058605     7A      0.059880     8A      0.060004  
       9A      0.073627    10A      0.074130    11A      0.076198  
      12A      0.079267    13A      0.079440    14A      0.085815  
      15A      0.112532    16A      0.113152    17A      0.114434  
      18A      0.138664    19A      0.150061    20A      0.151241  
      21A      0.162265    22A      0.162828    23A      0.167552  
      24A      0.209090    25A      0.213068    26A      0.213181  
      27A      0.242433    28A      0.243325    29A      0.247993  
      30A      0.253515    31A      0.254930    32A      0.255032  
      33A      0.259120    34A      0.260186    35A      0.315079  
      36A      0.354436    37A      0.363212    38A      0.368056  
      39A      0.374863    40A      0.391304    41A      0.407636  
      42A      0.412435    43A      0.437173    44A      0.443728  
      45A      0.469390    46A      0.481576    47A      0.524381  
      48A      0.538196    49A      0.541884    50A      0.603047  
      51A      0.603689    52A      0.613059    53A      0.621533  
      54A      0.639434    55A      0.651423    56A      0.674257  
      57A      0.733748    58A      0.817505    59A      0.988263  
      60A      1.027380    61A      1.036560    62A      1.042464  
      63A      1.181262    64A      1.195771    65A      1.201492  
      66A      1.219120    67A      1.256333    68A      1.269809  
      69A      1.280056    70A      1.327960    71A      1.352133  
      72A      1.381581    73A      1.598178    74A      1.603402  
      75A      1.628436    76A      1.981395    77A      1.999637  
      78A      2.094428    79A      2.096916    80A      2.214381  
      81A      2.296732    82A      2.305507    83A      2.329316  
      84A      2.405721    85A      2.553078    86A      3.226912  
      87A      3.227774    88A      3.232544    89A      3.234636  
      90A      3.240929    91A      3.243461    92A      3.250172  
      93A      3.299923    94A      3.304311    95A      3.313647  
      96A      3.326173    97A      3.327568    98A      3.332180  
      99A      3.332911   100A      3.333298   101A      3.337662  
     102A      3.341897   103A      3.346699   104A      3.383228  
     105A      3.391954   106A      3.414975   107A      3.474477  
     108A      3.656762   109A      3.749159   110A      3.761714  
     111A      3.872433   112A      3.878504   113A      3.899527  
     114A      5.728238   115A      5.731915   116A      5.785654  
     117A      9.275798   118A      9.276023   119A      9.279072  
     120A      9.279176   121A      9.279820   122A      9.280254  
     123A      9.281013   124A      9.733518   125A      9.768058  
     126A      9.773290   127A      9.811089   128A      9.824188  
     129A      9.838624   130A     10.297901   131A     10.298408  
     132A     10.306087   133A     10.306951   134A     10.318452  
     135A     10.319591   136A     10.332495   137A     10.383910  
     138A     11.728154   139A     13.118007   140A     13.125220  
     141A     13.166320   142A     13.174315   143A     13.186264  
     144A     14.440817   145A     14.448634   146A     14.511750  
     147A     30.393904   148A     30.537449   149A     30.845033  
     150A     68.068562   151A    197.697781  

    Final Occupation by Irrep:
              A 
    DOCC [     5 ]
    NA   [     5 ]
    NB   [     5 ]

  @DF-RHF Final Energy:   -99.45082849126213

   => Energetics <=

    Nuclear Repulsion Energy =              0.0000000000000000
    One-Electron Energy =                -143.9954086825215427
    Two-Electron Energy =                  44.5445801912594135
    Total Energy =                        -99.4508284912621292

Computation Completed


Properties will be evaluated at   0.000000,   0.000000,   0.000000 [a0]

Properties computed using the SCF density matrix


 Multipole Moments:

 ------------------------------------------------------------------------------------
     Multipole            Electronic (a.u.)      Nuclear  (a.u.)        Total (a.u.)
 ------------------------------------------------------------------------------------

 L = 1.  Multiply by 2.5417464519 to convert [e a0] to [Debye]
 Dipole X            :        -57.5467314           51.7922304           -5.7545010
 Dipole Y            :         -0.0001299            0.0000000           -0.0001299
 Dipole Z            :          0.0000000            0.0000000            0.0000000
 Magnitude           :                                                    5.7545010

 ------------------------------------------------------------------------------------

*** tstop() called on moses-razer at Wed Jan  3 21:50:59 2024
Module time:
	user time   =       5.55 seconds =       0.09 minutes
	system time =       0.85 seconds =       0.01 minutes
	total time  =          3 seconds =       0.05 minutes
Total time:
	user time   =      26.07 seconds =       0.43 minutes
	system time =       5.22 seconds =       0.09 minutes
	total time  =         15 seconds =       0.25 minutes
  Constructing Basis Sets for SAPT...

   => Loading Basis Set <=

    Name: (AUG-CC-PVTZ AUX)
    Role: RIFIT
    Keyword: DF_BASIS_SAPT
    atoms 1   entry K          line  1282 file /home/kchung25/anaconda3/envs/p415env/share/psi4/basis/def2-qzvpp-ri.gbs 
    atoms 2-3 entry F          line   322 file /home/kchung25/anaconda3/envs/p415env/share/psi4/basis/aug-cc-pvtz-ri.gbs 

   => Loading Basis Set <=

    Name: (AUG-CC-PVTZ AUX)
    Role: JKFIT
    Keyword: DF_BASIS_ELST
    atoms 1   entry K          line  1152 file /home/kchung25/anaconda3/envs/p415env/share/psi4/basis/def2-universal-jkfit.gbs 
    atoms 2-3 entry F          line   348 file /home/kchung25/anaconda3/envs/p415env/share/psi4/basis/aug-cc-pvtz-jkfit.gbs 


  //>>>>>>>>>>>>>>>>>>>>>>>>>>>>>>>>>>>//
  //               SAPT2+              //
  //<<<<<<<<<<<<<<<<<<<<<<<<<<<<<<<<<<<//


*** tstart() called on moses-razer
*** at Wed Jan  3 21:50:59 2024

        SAPT2+  
    Ed Hohenstein
     6 June 2009

      Orbital Information
  --------------------------
    NSO        =       151
    NMO        =       151
    NRI        =       411
    NOCC A     =        14
    NOCC B     =         5
    FOCC A     =         0
    FOCC B     =         0
    NVIR A     =       137
    NVIR B     =       146

    Estimated memory usage: 170.4 MB

    Natural Orbital Cutoff:   1.000E-06
    Disp(T3) Truncation:            Yes
    CCD (vv|vv) Truncation:         Yes
    MBPT T2 Truncation:             Yes

    Monomer A: 70 virtual orbitals dropped
    Monomer B: 96 virtual orbitals dropped

    Elst10,r            =    -0.030721304012 [Eh]
    Exch10 (S^2)        =     0.004360719019 [Eh]
    Exch10              =     0.004370430530 [Eh]
    Ind20,r (A<-B)      =    -0.003834093750 [Eh]
    Ind20,r (B<-A)      =    -0.008752931674 [Eh]
    Ind20,r             =    -0.012587025424 [Eh]
    Exch-Ind20,r (A<-B) =     0.000075751655 [Eh]
    Exch-Ind20,r (B<-A) =     0.007443167763 [Eh]
    Exch-Ind20,r        =     0.007518919419 [Eh]
    Disp20              =    -0.001639911600 [Eh]
    Disp20 (NO)         =    -0.001424573707 [Eh]
    Exch-Disp20         =     0.000293874233 [Eh]
    Elst12,r            =    -0.000857353715 [Eh]
    Exch11              =    -0.000018819380 [Eh]
    Exch12              =     0.002376270718 [Eh]
    Ind22               =    -0.005922099679 [Eh]
    Disp21              =     0.000107277603 [Eh]
    Disp22 (SDQ)        =    -0.000286872134 [Eh]

    (i =   1 of   5)          0 seconds
    (i =   2 of   5)          0 seconds
    (i =   3 of   5)          1 seconds
    (i =   4 of   5)          1 seconds
    (i =   5 of   5)          2 seconds

    Disp220 (T)         =    -0.000080833088 [Eh]

    (i =   1 of  14)          0 seconds
    (i =   2 of  14)          0 seconds
    (i =   3 of  14)          0 seconds
    (i =   4 of  14)          0 seconds
    (i =   5 of  14)          0 seconds
    (i =   6 of  14)          0 seconds
    (i =   7 of  14)          0 seconds
    (i =   8 of  14)          0 seconds
    (i =   9 of  14)          0 seconds
    (i =  10 of  14)          0 seconds
    (i =  11 of  14)          0 seconds
    (i =  12 of  14)          0 seconds
    (i =  13 of  14)          0 seconds
    (i =  14 of  14)          0 seconds

    Disp202 (T)         =    -0.000204365583 [Eh]

    Disp22 (T)          =    -0.000285198671 [Eh]

    Est. Disp220 (T)    =    -0.000093051779 [Eh]
    Est. Disp202 (T)    =    -0.000235257389 [Eh]

    Est. Disp22 (T)     =    -0.000328309168 [Eh]

    SAPT Results 
  --------------------------------------------------------------------------------------------------------
    Electrostatics                -31.57865773 [mEh]     -19.81590689 [kcal/mol]     -82.90975444 [kJ/mol]
      Elst10,r                    -30.72130401 [mEh]     -19.27790931 [kcal/mol]     -80.65877257 [kJ/mol]
      Elst12,r                     -0.85735371 [mEh]      -0.53799758 [kcal/mol]      -2.25098187 [kJ/mol]

    Exchange                        6.72788187 [mEh]       4.22180961 [kcal/mol]      17.66405141 [kJ/mol]
      Exch10                        4.37043053 [mEh]       2.74248656 [kcal/mol]      11.47456378 [kJ/mol]
      Exch10(S^2)                   4.36071902 [mEh]       2.73639250 [kcal/mol]      11.44906621 [kJ/mol]
      Exch11(S^2)                  -0.01881938 [mEh]      -0.01180934 [kcal/mol]      -0.04941028 [kJ/mol]
      Exch12(S^2)                   2.37627072 [mEh]       1.49113239 [kcal/mol]       6.23889791 [kJ/mol]

    Induction                      -7.75731076 [mEh]      -4.86778599 [kcal/mol]     -20.36681659 [kJ/mol]
      Ind20,r                     -12.58702542 [mEh]      -7.89847770 [kcal/mol]     -33.04723070 [kJ/mol]
      Ind22                        -5.92209968 [mEh]      -3.71617365 [kcal/mol]     -15.54847057 [kJ/mol]
      Exch-Ind20,r                  7.51891942 [mEh]       4.71819317 [kcal/mol]      19.74092021 [kJ/mol]
      Exch-Ind22                    3.53759437 [mEh]       2.21987398 [kcal/mol]       9.28795274 [kJ/mol]
      delta HF,r (2)               -0.30469945 [mEh]      -0.19120179 [kcal/mol]      -0.79998828 [kJ/mol]

    Dispersion                     -1.85394107 [mEh]      -1.16336558 [kcal/mol]      -4.86752160 [kJ/mol]
      Disp20                       -1.63991160 [mEh]      -1.02906007 [kcal/mol]      -4.30558731 [kJ/mol]
      Disp21                        0.10727760 [mEh]       0.06731771 [kcal/mol]       0.28165731 [kJ/mol]
      Disp22 (SDQ)                 -0.28687213 [mEh]      -0.18001498 [kcal/mol]      -0.75318268 [kJ/mol]
      Disp22 (T)                   -0.28519867 [mEh]      -0.17896487 [kcal/mol]      -0.74878901 [kJ/mol]
      Est. Disp22 (T)              -0.32830917 [mEh]      -0.20601711 [kcal/mol]      -0.86197560 [kJ/mol]
      Exch-Disp20                   0.29387423 [mEh]       0.18440887 [kcal/mol]       0.77156669 [kJ/mol]

  Total HF                        -31.72367893 [mEh]     -19.90690907 [kcal/mol]     -83.29050756 [kJ/mol]
  Total SAPT0                     -33.06971630 [mEh]     -20.75156027 [kcal/mol]     -86.82452818 [kJ/mol]
  Total SAPT2                     -33.95412398 [mEh]     -21.30653447 [kcal/mol]     -89.14654024 [kJ/mol]
  Total SAPT2+                    -34.46202768 [mEh]     -21.62524886 [kcal/mol]     -90.48004122 [kJ/mol]

  Special recipe for scaled SAPT0 (see Manual):
    Electrostatics sSAPT0         -30.72130401 [mEh]     -19.27790931 [kcal/mol]     -80.65877257 [kJ/mol]
    Exchange sSAPT0                 4.37043053 [mEh]       2.74248656 [kcal/mol]      11.47456378 [kJ/mol]
    Induction sSAPT0               -5.32245861 [mEh]      -3.33989320 [kcal/mol]     -13.97411315 [kJ/mol]
    Dispersion sSAPT0              -1.34406958 [mEh]      -0.84341639 [kcal/mol]      -3.52885419 [kJ/mol]
  Total sSAPT0                    -33.01740167 [mEh]     -20.71873235 [kcal/mol]     -86.68717614 [kJ/mol]
  --------------------------------------------------------------------------------------------------------

*** tstop() called on moses-razer at Wed Jan  3 21:51:16 2024
Module time:
	user time   =      55.89 seconds =       0.93 minutes
	system time =       2.77 seconds =       0.05 minutes
	total time  =         17 seconds =       0.28 minutes
Total time:
	user time   =      82.28 seconds =       1.37 minutes
	system time =       8.00 seconds =       0.13 minutes
	total time  =         32 seconds =       0.53 minutes

    Psi4 stopped on: Wednesday, 03 January 2024 09:51PM
    Psi4 wall time for execution: 0:00:32.68

*** Psi4 exiting successfully. Buy a developer a beer!
