
    -----------------------------------------------------------------------
          Psi4: An Open-Source Ab Initio Electronic Structure Package
                               Psi4 1.9 release

                         Git: Rev {} zzzzzzz 


    D. G. A. Smith, L. A. Burns, A. C. Simmonett, R. M. Parrish,
    M. C. Schieber, R. Galvelis, P. Kraus, H. Kruse, R. Di Remigio,
    A. Alenaizan, A. M. James, S. Lehtola, J. P. Misiewicz, M. Scheurer,
    R. A. Shaw, J. B. Schriber, Y. Xie, Z. L. Glick, D. A. Sirianni,
    J. S. O'Brien, J. M. Waldrop, A. Kumar, E. G. Hohenstein,
    B. P. Pritchard, B. R. Brooks, H. F. Schaefer III, A. Yu. Sokolov,
    K. Patkowski, A. E. DePrince III, U. Bozkaya, R. A. King,
    F. A. Evangelista, J. M. Turney, T. D. Crawford, C. D. Sherrill,
    J. Chem. Phys. 152(18) 184108 (2020). https://doi.org/10.1063/5.0006002

                            Additional Code Authors
    E. T. Seidl, C. L. Janssen, E. F. Valeev, M. L. Leininger,
    J. F. Gonthier, R. M. Richard, H. R. McAlexander, M. Saitow, X. Wang,
    P. Verma, M. H. Lechner, A. Jiang, S. Behnle, A. G. Heide,
    M. F. Herbst, and D. L. Poole

             Previous Authors, Complete List of Code Contributors,
                       and Citations for Specific Modules
    https://github.com/psi4/psi4/blob/master/codemeta.json
    https://github.com/psi4/psi4/graphs/contributors
    http://psicode.org/psi4manual/master/introduction.html#citing-psifour

    -----------------------------------------------------------------------


    Psi4 started on: Wednesday, 03 January 2024 09:55PM

    Process ID: 441161
    Host:       moses-razer
    PSIDATADIR: /home/kchung25/anaconda3/envs/psi4_19/share/psi4
    Memory:     500.0 MiB
    Threads:    6
    
  ==> Input File <==

--------------------------------------------------------------------------
MEMORY 60 GB

molecule dimer {
0 1
Cl     0.000000     0.000000     0.000000
K      0.000000     2.633546     0.000000
--
1 1
K      3.160255     0.000000     0.000000

units ang
no_reorient
no_com
symmetry c1
}

set {
basis        aug-cc-pVTZ
scf_type     df
}

energy("sapt2+")
--------------------------------------------------------------------------

  Memory set to  55.879 GiB by Python driver.

Scratch directory: /scratch/
   => Loading Basis Set <=

    Name: AUG-CC-PVTZ
    Role: ORBITAL
    Keyword: BASIS
    atoms 1   entry CL         line   988 file /home/kchung25/anaconda3/envs/p415env/share/psi4/basis/aug-cc-pvtz.gbs 
    atoms 2-3 entry K          line  1152 file /home/kchung25/anaconda3/envs/p415env/share/psi4/basis/aug-cc-pvtz.gbs 

   => Loading Basis Set <=

    Name: AUG-CC-PVTZ
    Role: ORBITAL
    Keyword: BASIS
    atoms 1   entry CL         line   988 file /home/kchung25/anaconda3/envs/p415env/share/psi4/basis/aug-cc-pvtz.gbs 
    atoms 2-3 entry K          line  1152 file /home/kchung25/anaconda3/envs/p415env/share/psi4/basis/aug-cc-pvtz.gbs 


  //>>>>>>>>>>>>>>>>>>>>>>>>>>>>>>>>>>>//
  //              Dimer HF             //
  //<<<<<<<<<<<<<<<<<<<<<<<<<<<<<<<<<<<//

   => Libint2 <=

    Primary   basis highest AM E, G, H:  5, 4, 3
    Auxiliary basis highest AM E, G, H:  6, 5, 4
    Onebody   basis highest AM E, G, H:  6, 5, 4
    Solid Harmonics ordering:            gaussian

*** tstart() called on moses-razer
*** at Wed Jan  3 21:55:20 2024

   => Loading Basis Set <=

    Name: AUG-CC-PVTZ
    Role: ORBITAL
    Keyword: BASIS
    atoms 1   entry CL         line   988 file /home/kchung25/anaconda3/envs/p415env/share/psi4/basis/aug-cc-pvtz.gbs 
    atoms 2-3 entry K          line  1152 file /home/kchung25/anaconda3/envs/p415env/share/psi4/basis/aug-cc-pvtz.gbs 


         ---------------------------------------------------------
                                   SCF
               by Justin Turney, Rob Parrish, Andy Simmonett
                          and Daniel G. A. Smith
                              RHF Reference
                        6 Threads,  57220 MiB Core
         ---------------------------------------------------------

  ==> Geometry <==

    Molecular point group: c1
    Full point group: Cs

    Geometry (in Angstrom), charge = 1, multiplicity = 1:

       Center              X                  Y                   Z               Mass       
    ------------   -----------------  -----------------  -----------------  -----------------
         CL           0.000000000000     0.000000000000     0.000000000000    34.968852682000
         K            0.000000000000     2.633546000000     0.000000000000    38.963706486400
         K            3.160255000000     0.000000000000     0.000000000000    38.963706486400

  Running in c1 symmetry.

  Rotational constants: A =      0.06238  B =      0.04332  C =      0.02557 [cm^-1]
  Rotational constants: A =   1870.14430  B =   1298.71149  C =    766.45264 [MHz]
  Nuclear repulsion =  165.426177355427399

  Charge       = 1
  Multiplicity = 1
  Electrons    = 54
  Nalpha       = 27
  Nbeta        = 27

  ==> Algorithm <==

  SCF Algorithm Type is DF.
  DIIS enabled.
  MOM disabled.
  Fractional occupation disabled.
  Guess Type is SAD.
  Energy threshold   = 1.00e-08
  Density threshold  = 1.00e-08
  Integral threshold = 1.00e-12

  ==> Primary Basis <==

  Basis Set: AUG-CC-PVTZ
    Blend: AUG-CC-PVTZ
    Number of shells: 54
    Number of basis functions: 168
    Number of Cartesian functions: 197
    Spherical Harmonics?: true
    Max angular momentum: 3

   => Loading Basis Set <=

    Name: (AUG-CC-PVTZ AUX)
    Role: JKFIT
    Keyword: DF_BASIS_SCF
    atoms 1   entry CL         line   816 file /home/kchung25/anaconda3/envs/p415env/share/psi4/basis/aug-cc-pvtz-jkfit.gbs 
    atoms 2-3 entry K          line  1152 file /home/kchung25/anaconda3/envs/p415env/share/psi4/basis/def2-universal-jkfit.gbs 

  ==> Integral Setup <==

  ==> DiskDFJK: Density-Fitted J/K Matrices <==

    J tasked:                  Yes
    K tasked:                  Yes
    wK tasked:                  No
    OpenMP threads:              6
    Integrals threads:           6
    Memory [MiB]:            42915
    Algorithm:                Core
    Integral Cache:           SAVE
    Schwarz Cutoff:          1E-12
    Fitting Condition:       1E-10

   => Auxiliary Basis Set <=

  Basis Set: (AUG-CC-PVTZ AUX)
    Blend: AUG-CC-PVTZ-JKFIT + DEF2-UNIVERSAL-JKFIT
    Number of shells: 130
    Number of basis functions: 466
    Number of Cartesian functions: 586
    Spherical Harmonics?: true
    Max angular momentum: 4

  Minimum eigenvalue in the overlap matrix is 1.0993503667E-05.
  Reciprocal condition number of the overlap matrix is 1.3578494617E-06.
    Using symmetric orthogonalization.

  ==> Pre-Iterations <==

  SCF Guess: Superposition of Atomic Densities via on-the-fly atomic UHF (no occupation information).

   -------------------------
    Irrep   Nso     Nmo    
   -------------------------
     A        168     168 
   -------------------------
    Total     168     168
   -------------------------

  ==> Iterations <==

                           Total Energy        Delta E     RMS |[F,P]|

   @DF-RHF iter SAD: -1657.31126772664652   -1.65731e+03   0.00000e+00 
   @DF-RHF iter   1: -1657.76427694455265   -4.53009e-01   1.84912e-03 DIIS/ADIIS
   @DF-RHF iter   2: -1657.81586685721913   -5.15899e-02   8.37977e-04 DIIS/ADIIS
   @DF-RHF iter   3: -1657.82325859834737   -7.39174e-03   5.31683e-05 DIIS
   @DF-RHF iter   4: -1657.82332679462138   -6.81963e-05   1.28916e-05 DIIS
   @DF-RHF iter   5: -1657.82333341318622   -6.61856e-06   3.86850e-06 DIIS
   @DF-RHF iter   6: -1657.82333403509097   -6.21905e-07   1.12704e-06 DIIS
   @DF-RHF iter   7: -1657.82333412103117   -8.59402e-08   2.23655e-07 DIIS
   @DF-RHF iter   8: -1657.82333412420530   -3.17414e-09   4.91199e-08 DIIS
   @DF-RHF iter   9: -1657.82333412433059   -1.25283e-10   1.22280e-08 DIIS
   @DF-RHF iter  10: -1657.82333412433923   -8.64020e-12   2.87927e-09 DIIS
  Energy and wave function converged.


  ==> Post-Iterations <==

    Orbital Energies [Eh]
    ---------------------

    Doubly Occupied:                                                      

       1A   -133.698171     2A   -133.654127     3A   -104.848880  
       4A    -14.654236     5A    -14.611982     6A    -11.684283  
       7A    -11.684231     8A    -11.684096     9A    -11.641769  
      10A    -11.641694    11A    -11.641647    12A    -10.574920  
      13A     -8.040986    14A     -8.040901    15A     -8.040759  
      16A     -1.911413    17A     -1.875092    18A     -1.124866  
      19A     -1.120189    20A     -1.119314    21A     -1.109545  
      22A     -1.085062    23A     -1.083662    24A     -1.055238  
      25A     -0.510254    26A     -0.508818    27A     -0.501195  

    Virtual:                                                              

      28A     -0.129213    29A     -0.098501    30A     -0.084948  
      31A     -0.076581    32A     -0.065760    33A     -0.060928  
      34A     -0.056354    35A     -0.054794    36A     -0.045868  
      37A     -0.045177    38A     -0.042939    39A     -0.042451  
      40A     -0.037773    41A     -0.035481    42A     -0.035303  
      43A     -0.034190    44A     -0.031919    45A     -0.030632  
      46A     -0.030313    47A     -0.029706    48A     -0.029598  
      49A     -0.027537    50A     -0.023303    51A     -0.022682  
      52A     -0.020782    53A     -0.017140    54A     -0.016846  
      55A     -0.016522    56A     -0.015209    57A     -0.012455  
      58A     -0.008501    59A     -0.006638    60A     -0.005705  
      61A     -0.004985    62A     -0.002996    63A     -0.001732  
      64A     -0.000639    65A      0.004213    66A      0.011914  
      67A      0.019201    68A      0.020489    69A      0.021385  
      70A      0.026936    71A      0.028067    72A      0.031464  
      73A      0.034114    74A      0.038095    75A      0.045878  
      76A      0.046140    77A      0.049387    78A      0.053064  
      79A      0.054080    80A      0.058045    81A      0.061103  
      82A      0.062654    83A      0.066350    84A      0.076214  
      85A      0.076402    86A      0.081988    87A      0.084150  
      88A      0.087834    89A      0.093427    90A      0.095440  
      91A      0.101326    92A      0.106556    93A      0.129558  
      94A      0.135509    95A      0.136702    96A      0.142354  
      97A      0.148537    98A      0.150762    99A      0.160770  
     100A      0.172468   101A      0.176234   102A      0.203424  
     103A      0.243482   104A      0.253287   105A      0.254358  
     106A      0.258825   107A      0.262995   108A      0.267858  
     109A      0.277611   110A      0.279831   111A      0.282611  
     112A      0.284056   113A      0.290817   114A      0.295241  
     115A      0.300372   116A      0.307104   117A      0.307695  
     118A      0.311264   119A      0.325839   120A      0.328786  
     121A      0.335803   122A      0.349983   123A      0.355004  
     124A      0.362840   125A      0.378661   126A      0.387883  
     127A      0.401102   128A      0.417873   129A      0.430326  
     130A      0.435214   131A      0.440152   132A      0.465285  
     133A      0.500882   134A      0.523085   135A      0.706091  
     136A      0.778166   137A      0.853289   138A      0.926415  
     139A      0.974498   140A      0.975332   141A      0.992368  
     142A      1.015371   143A      1.039955   144A      1.134339  
     145A      1.176874   146A      1.181597   147A      1.184747  
     148A      1.192249   149A      1.216892   150A      1.234801  
     151A      1.263936   152A      1.292196   153A      2.551655  
     154A      2.574661   155A      2.588337   156A      2.612090  
     157A      2.621704   158A      2.741271   159A      2.843525  
     160A      2.890066   161A      3.059734   162A      3.065055  
     163A      3.068869   164A      3.078556   165A      3.094464  
     166A      3.098081   167A      3.130528   168A      5.592395  

    Final Occupation by Irrep:
              A 
    DOCC [    27 ]
    NA   [    27 ]
    NB   [    27 ]

  @DF-RHF Final Energy: -1657.82333412433923

   => Energetics <=

    Nuclear Repulsion Energy =            165.4261773554273987
    One-Electron Energy =               -2608.2043651471849444
    Two-Electron Energy =                 784.9548536674185470
    Total Energy =                      -1657.8233341243392260

Computation Completed


Properties will be evaluated at   0.000000,   0.000000,   0.000000 [a0]

Properties computed using the SCF density matrix


 Multipole Moments:

 ------------------------------------------------------------------------------------
     Multipole            Electronic (a.u.)      Nuclear  (a.u.)        Total (a.u.)
 ------------------------------------------------------------------------------------

 L = 1.  Multiply by 2.5417464519 to convert [e a0] to [Debye]
 Dipole X            :       -108.1967616          113.4683123            5.2715507
 Dipole Y            :        -90.3882066           94.5569329            4.1687263
 Dipole Z            :         -0.0000000            0.0000000           -0.0000000
 Magnitude           :                                                    6.7206790

 ------------------------------------------------------------------------------------

*** tstop() called on moses-razer at Wed Jan  3 21:55:34 2024
Module time:
	user time   =      20.14 seconds =       0.34 minutes
	system time =       2.30 seconds =       0.04 minutes
	total time  =         14 seconds =       0.23 minutes
Total time:
	user time   =      20.14 seconds =       0.34 minutes
	system time =       2.30 seconds =       0.04 minutes
	total time  =         14 seconds =       0.23 minutes

  //>>>>>>>>>>>>>>>>>>>>>>>>>>>>>>>>>>>//
  //            Monomer A HF           //
  //<<<<<<<<<<<<<<<<<<<<<<<<<<<<<<<<<<<//

   => Libint2 <=

    Primary   basis highest AM E, G, H:  5, 4, 3
    Auxiliary basis highest AM E, G, H:  6, 5, 4
    Onebody   basis highest AM E, G, H:  6, 5, 4
    Solid Harmonics ordering:            gaussian

*** tstart() called on moses-razer
*** at Wed Jan  3 21:55:34 2024

   => Loading Basis Set <=

    Name: AUG-CC-PVTZ
    Role: ORBITAL
    Keyword: BASIS
    atoms 1   entry CL         line   988 file /home/kchung25/anaconda3/envs/p415env/share/psi4/basis/aug-cc-pvtz.gbs 
    atoms 2-3 entry K          line  1152 file /home/kchung25/anaconda3/envs/p415env/share/psi4/basis/aug-cc-pvtz.gbs 


         ---------------------------------------------------------
                                   SCF
               by Justin Turney, Rob Parrish, Andy Simmonett
                          and Daniel G. A. Smith
                              RHF Reference
                        6 Threads,  57220 MiB Core
         ---------------------------------------------------------

  ==> Geometry <==

    Molecular point group: c1
    Full point group: Cs

    Geometry (in Angstrom), charge = 0, multiplicity = 1:

       Center              X                  Y                   Z               Mass       
    ------------   -----------------  -----------------  -----------------  -----------------
         CL           0.000000000000     0.000000000000     0.000000000000    34.968852682000
         K            0.000000000000     2.633546000000     0.000000000000    38.963706486400
      Gh(K)           3.160255000000     0.000000000000     0.000000000000    38.963706486400

  Running in c1 symmetry.

  Rotational constants: A =      0.06238  B =      0.04332  C =      0.02557 [cm^-1]
  Rotational constants: A =   1870.14430  B =   1298.71149  C =    766.45264 [MHz]
  Nuclear repulsion =   64.902697369406113

  Charge       = 0
  Multiplicity = 1
  Electrons    = 36
  Nalpha       = 18
  Nbeta        = 18

  ==> Algorithm <==

  SCF Algorithm Type is DF.
  DIIS enabled.
  MOM disabled.
  Fractional occupation disabled.
  Guess Type is SAD.
  Energy threshold   = 1.00e-08
  Density threshold  = 1.00e-08
  Integral threshold = 1.00e-12

  ==> Primary Basis <==

  Basis Set: AUG-CC-PVTZ
    Blend: AUG-CC-PVTZ
    Number of shells: 54
    Number of basis functions: 168
    Number of Cartesian functions: 197
    Spherical Harmonics?: true
    Max angular momentum: 3

   => Loading Basis Set <=

    Name: (AUG-CC-PVTZ AUX)
    Role: JKFIT
    Keyword: DF_BASIS_SCF
    atoms 1   entry CL         line   816 file /home/kchung25/anaconda3/envs/p415env/share/psi4/basis/aug-cc-pvtz-jkfit.gbs 
    atoms 2-3 entry K          line  1152 file /home/kchung25/anaconda3/envs/p415env/share/psi4/basis/def2-universal-jkfit.gbs 

  ==> Integral Setup <==

  ==> DiskDFJK: Density-Fitted J/K Matrices <==

    J tasked:                  Yes
    K tasked:                  Yes
    wK tasked:                  No
    OpenMP threads:              6
    Integrals threads:           6
    Memory [MiB]:            42915
    Algorithm:                Core
    Integral Cache:           LOAD
    Schwarz Cutoff:          1E-12
    Fitting Condition:       1E-10

   => Auxiliary Basis Set <=

  Basis Set: (AUG-CC-PVTZ AUX)
    Blend: AUG-CC-PVTZ-JKFIT + DEF2-UNIVERSAL-JKFIT
    Number of shells: 130
    Number of basis functions: 466
    Number of Cartesian functions: 586
    Spherical Harmonics?: true
    Max angular momentum: 4

  Minimum eigenvalue in the overlap matrix is 1.0993503667E-05.
  Reciprocal condition number of the overlap matrix is 1.3578494617E-06.
    Using symmetric orthogonalization.

  ==> Pre-Iterations <==

  SCF Guess: Superposition of Atomic Densities via on-the-fly atomic UHF (no occupation information).

   -------------------------
    Irrep   Nso     Nmo    
   -------------------------
     A        168     168 
   -------------------------
    Total     168     168
   -------------------------

  ==> Iterations <==

                           Total Energy        Delta E     RMS |[F,P]|

   @DF-RHF iter SAD: -1058.23430948777354   -1.05823e+03   0.00000e+00 
   @DF-RHF iter   1: -1058.70897635352480   -4.74667e-01   1.84715e-03 DIIS/ADIIS
   @DF-RHF iter   2: -1058.76090099961311   -5.19246e-02   8.60925e-04 DIIS/ADIIS
   @DF-RHF iter   3: -1058.76870297633695   -7.80198e-03   5.17220e-05 DIIS
   @DF-RHF iter   4: -1058.76875510088394   -5.21245e-05   9.72359e-06 DIIS
   @DF-RHF iter   5: -1058.76875840074558   -3.29986e-06   2.35722e-06 DIIS
   @DF-RHF iter   6: -1058.76875860069435   -1.99949e-07   7.09605e-07 DIIS
   @DF-RHF iter   7: -1058.76875863188502   -3.11907e-08   1.49574e-07 DIIS
   @DF-RHF iter   8: -1058.76875863333726   -1.45224e-09   2.36217e-08 DIIS
   @DF-RHF iter   9: -1058.76875863336500   -2.77396e-11   5.86404e-09 DIIS
  Energy and wave function converged.


  ==> Post-Iterations <==

    Orbital Energies [Eh]
    ---------------------

    Doubly Occupied:                                                      

       1A   -133.523215     2A   -104.686028     3A    -14.480816  
       4A    -11.510557     5A    -11.510541     6A    -11.510485  
       7A    -10.411746     8A     -7.877876     9A     -7.877671  
      10A     -7.877658    11A     -1.743640    12A     -0.970988  
      13A     -0.953174    14A     -0.953129    15A     -0.905583  
      16A     -0.347949    17A     -0.338934    18A     -0.338907  

    Virtual:                                                              

      19A     -0.013831    20A      0.003891    21A      0.004018  
      22A      0.005076    23A      0.008536    24A      0.012267  
      25A      0.013630    26A      0.014486    27A      0.018738  
      28A      0.019044    29A      0.021310    30A      0.021859  
      31A      0.022222    32A      0.023604    33A      0.023936  
      34A      0.026483    35A      0.026880    36A      0.028599  
      37A      0.032510    38A      0.033172    39A      0.037508  
      40A      0.040582    41A      0.048805    42A      0.049421  
      43A      0.055179    44A      0.057100    45A      0.057337  
      46A      0.065899    47A      0.066175    48A      0.068371  
      49A      0.072070    50A      0.074660    51A      0.076848  
      52A      0.079906    53A      0.081793    54A      0.090867  
      55A      0.091218    56A      0.094877    57A      0.109192  
      58A      0.113583    59A      0.126235    60A      0.126716  
      61A      0.128706    62A      0.130596    63A      0.141936  
      64A      0.142715    65A      0.144760    66A      0.155835  
      67A      0.156002    68A      0.165889    69A      0.167804  
      70A      0.168340    71A      0.171282    72A      0.171390  
      73A      0.191364    74A      0.192397    75A      0.193075  
      76A      0.195132    77A      0.202147    78A      0.202899  
      79A      0.209560    80A      0.215662    81A      0.236143  
      82A      0.238648    83A      0.246973    84A      0.253869  
      85A      0.257256    86A      0.277310    87A      0.279607  
      88A      0.295228    89A      0.298266    90A      0.313375  
      91A      0.324747    92A      0.335491    93A      0.370381  
      94A      0.387356    95A      0.393410    96A      0.396310  
      97A      0.402216    98A      0.412993    99A      0.420696  
     100A      0.422328   101A      0.430501   102A      0.439485  
     103A      0.443136   104A      0.451991   105A      0.474075  
     106A      0.484361   107A      0.485701   108A      0.487110  
     109A      0.490561   110A      0.505861   111A      0.524644  
     112A      0.539283   113A      0.545518   114A      0.563365  
     115A      0.575522   116A      0.587754   117A      0.588271  
     118A      0.610972   119A      0.618493   120A      0.654547  
     121A      0.767853   122A      0.855204   123A      0.922793  
     124A      0.976970   125A      1.090790   126A      1.136373  
     127A      1.147205   128A      1.157131   129A      1.180030  
     130A      1.266407   131A      1.307969   132A      1.335975  
     133A      1.342752   134A      1.345945   135A      1.372238  
     136A      1.387808   137A      1.397514   138A      1.432708  
     139A      1.796422   140A      1.898012   141A      1.933959  
     142A      1.976049   143A      2.002639   144A      2.060721  
     145A      2.103897   146A      2.219496   147A      2.432753  
     148A      2.713169   149A      2.737826   150A      2.747669  
     151A      2.782370   152A      2.788547   153A      2.904786  
     154A      3.004798   155A      3.106960   156A      3.229847  
     157A      3.235653   158A      3.239580   159A      3.242375  
     160A      3.262778   161A      3.276651   162A      3.357566  
     163A      5.755555   164A      9.973611   165A     30.311379  
     166A     30.353574   167A     30.633535   168A    197.334824  

    Final Occupation by Irrep:
              A 
    DOCC [    18 ]
    NA   [    18 ]
    NB   [    18 ]

  @DF-RHF Final Energy: -1058.76875863336500

   => Energetics <=

    Nuclear Repulsion Energy =             64.9026973694061127
    One-Electron Energy =               -1591.7051148338034636
    Two-Electron Energy =                 468.0336588310324260
    Total Energy =                      -1058.7687586333649961

Computation Completed


Properties will be evaluated at   0.000000,   0.000000,   0.000000 [a0]

Properties computed using the SCF density matrix


 Multipole Moments:

 ------------------------------------------------------------------------------------
     Multipole            Electronic (a.u.)      Nuclear  (a.u.)        Total (a.u.)
 ------------------------------------------------------------------------------------

 L = 1.  Multiply by 2.5417464519 to convert [e a0] to [Debye]
 Dipole X            :          0.0006217            0.0000000            0.0006217
 Dipole Y            :        -90.4571270           94.5569329            4.0998059
 Dipole Z            :         -0.0000000            0.0000000           -0.0000000
 Magnitude           :                                                    4.0998060

 ------------------------------------------------------------------------------------

*** tstop() called on moses-razer at Wed Jan  3 21:55:46 2024
Module time:
	user time   =      17.45 seconds =       0.29 minutes
	system time =       2.14 seconds =       0.04 minutes
	total time  =         12 seconds =       0.20 minutes
Total time:
	user time   =      37.61 seconds =       0.63 minutes
	system time =       4.44 seconds =       0.07 minutes
	total time  =         26 seconds =       0.43 minutes

  //>>>>>>>>>>>>>>>>>>>>>>>>>>>>>>>>>>>//
  //            Monomer B HF           //
  //<<<<<<<<<<<<<<<<<<<<<<<<<<<<<<<<<<<//

   => Libint2 <=

    Primary   basis highest AM E, G, H:  5, 4, 3
    Auxiliary basis highest AM E, G, H:  6, 5, 4
    Onebody   basis highest AM E, G, H:  6, 5, 4
    Solid Harmonics ordering:            gaussian

*** tstart() called on moses-razer
*** at Wed Jan  3 21:55:46 2024

   => Loading Basis Set <=

    Name: AUG-CC-PVTZ
    Role: ORBITAL
    Keyword: BASIS
    atoms 1   entry CL         line   988 file /home/kchung25/anaconda3/envs/p415env/share/psi4/basis/aug-cc-pvtz.gbs 
    atoms 2-3 entry K          line  1152 file /home/kchung25/anaconda3/envs/p415env/share/psi4/basis/aug-cc-pvtz.gbs 


         ---------------------------------------------------------
                                   SCF
               by Justin Turney, Rob Parrish, Andy Simmonett
                          and Daniel G. A. Smith
                              RHF Reference
                        6 Threads,  57220 MiB Core
         ---------------------------------------------------------

  ==> Geometry <==

    Molecular point group: c1
    Full point group: Cs

    Geometry (in Angstrom), charge = 1, multiplicity = 1:

       Center              X                  Y                   Z               Mass       
    ------------   -----------------  -----------------  -----------------  -----------------
      Gh(CL)          0.000000000000     0.000000000000     0.000000000000    34.968852682000
      Gh(K)           0.000000000000     2.633546000000     0.000000000000    38.963706486400
         K            3.160255000000     0.000000000000     0.000000000000    38.963706486400

  Running in c1 symmetry.

  Rotational constants: A =      0.06238  B =      0.04332  C =      0.02557 [cm^-1]
  Rotational constants: A =   1870.14430  B =   1298.71149  C =    766.45264 [MHz]
  Nuclear repulsion =    0.000000000000000

  Charge       = 1
  Multiplicity = 1
  Electrons    = 18
  Nalpha       = 9
  Nbeta        = 9

  ==> Algorithm <==

  SCF Algorithm Type is DF.
  DIIS enabled.
  MOM disabled.
  Fractional occupation disabled.
  Guess Type is SAD.
  Energy threshold   = 1.00e-08
  Density threshold  = 1.00e-08
  Integral threshold = 1.00e-12

  ==> Primary Basis <==

  Basis Set: AUG-CC-PVTZ
    Blend: AUG-CC-PVTZ
    Number of shells: 54
    Number of basis functions: 168
    Number of Cartesian functions: 197
    Spherical Harmonics?: true
    Max angular momentum: 3

   => Loading Basis Set <=

    Name: (AUG-CC-PVTZ AUX)
    Role: JKFIT
    Keyword: DF_BASIS_SCF
    atoms 1   entry CL         line   816 file /home/kchung25/anaconda3/envs/p415env/share/psi4/basis/aug-cc-pvtz-jkfit.gbs 
    atoms 2-3 entry K          line  1152 file /home/kchung25/anaconda3/envs/p415env/share/psi4/basis/def2-universal-jkfit.gbs 

  ==> Integral Setup <==

  ==> DiskDFJK: Density-Fitted J/K Matrices <==

    J tasked:                  Yes
    K tasked:                  Yes
    wK tasked:                  No
    OpenMP threads:              6
    Integrals threads:           6
    Memory [MiB]:            42915
    Algorithm:                Core
    Integral Cache:           LOAD
    Schwarz Cutoff:          1E-12
    Fitting Condition:       1E-10

   => Auxiliary Basis Set <=

  Basis Set: (AUG-CC-PVTZ AUX)
    Blend: AUG-CC-PVTZ-JKFIT + DEF2-UNIVERSAL-JKFIT
    Number of shells: 130
    Number of basis functions: 466
    Number of Cartesian functions: 586
    Spherical Harmonics?: true
    Max angular momentum: 4

  Minimum eigenvalue in the overlap matrix is 1.0993503667E-05.
  Reciprocal condition number of the overlap matrix is 1.3578494617E-06.
    Using symmetric orthogonalization.

  ==> Pre-Iterations <==

  SCF Guess: Superposition of Atomic Densities via on-the-fly atomic UHF (no occupation information).

   -------------------------
    Irrep   Nso     Nmo    
   -------------------------
     A        168     168 
   -------------------------
    Total     168     168
   -------------------------

  ==> Iterations <==

                           Total Energy        Delta E     RMS |[F,P]|

   @DF-RHF iter SAD:  -599.05151792165714   -5.99052e+02   0.00000e+00 
   @DF-RHF iter   1:  -599.01748306026354    3.40349e-02   3.69129e-05 DIIS
   @DF-RHF iter   2:  -599.01750795945509   -2.48992e-05   5.07011e-06 DIIS
   @DF-RHF iter   3:  -599.01750854881300   -5.89358e-07   3.96601e-07 DIIS
   @DF-RHF iter   4:  -599.01750855163937   -2.82637e-09   4.97537e-08 DIIS
   @DF-RHF iter   5:  -599.01750855168632   -4.69527e-11   1.06131e-08 DIIS
   @DF-RHF iter   6:  -599.01750855169007   -3.75167e-12   2.50044e-09 DIIS
  Energy and wave function converged.


  ==> Post-Iterations <==

    Orbital Energies [Eh]
    ---------------------

    Doubly Occupied:                                                      

       1A   -133.753566     2A    -14.709057     3A    -11.739122  
       4A    -11.739118     5A    -11.739117     6A     -1.964299  
       7A     -1.170927     8A     -1.170888     9A     -1.170878  

    Virtual:                                                              

      10A     -0.146972    11A     -0.095559    12A     -0.095554  
      13A     -0.095553    14A     -0.060912    15A     -0.057899  
      16A     -0.057875    17A     -0.057836    18A     -0.057771  
      19A     -0.057758    20A     -0.045544    21A     -0.045537  
      22A     -0.045537    23A     -0.032505    24A     -0.032361  
      25A     -0.032342    26A     -0.031295    27A     -0.031264  
      28A     -0.031049    29A     -0.029921    30A     -0.029913  
      31A     -0.029481    32A     -0.028440    33A     -0.028416  
      34A     -0.022732    35A     -0.018716    36A     -0.018604  
      37A     -0.016055    38A     -0.016010    39A     -0.012683  
      40A     -0.009723    41A     -0.009470    42A     -0.005542  
      43A     -0.005002    44A     -0.004913    45A     -0.000619  
      46A      0.007628    47A      0.008305    48A      0.009110  
      49A      0.014241    50A      0.015141    51A      0.016503  
      52A      0.017110    53A      0.017659    54A      0.020557  
      55A      0.021082    56A      0.026035    57A      0.031728  
      58A      0.033214    59A      0.037392    60A      0.039367  
      61A      0.055761    62A      0.061933    63A      0.063395  
      64A      0.068447    65A      0.071094    66A      0.072056  
      67A      0.075968    68A      0.084468    69A      0.090454  
      70A      0.098159    71A      0.099813    72A      0.104426  
      73A      0.107973    74A      0.112375    75A      0.114692  
      76A      0.122183    77A      0.127299    78A      0.144750  
      79A      0.151847    80A      0.159373    81A      0.161135  
      82A      0.168888    83A      0.193803    84A      0.198896  
      85A      0.207316    86A      0.232092    87A      0.234943  
      88A      0.237256    89A      0.240258    90A      0.242413  
      91A      0.252801    92A      0.257556    93A      0.267629  
      94A      0.269501    95A      0.276552    96A      0.311495  
      97A      0.321519    98A      0.324582    99A      0.329048  
     100A      0.335438   101A      0.349175   102A      0.368263  
     103A      0.376883   104A      0.393090   105A      0.407479  
     106A      0.408596   107A      0.429227   108A      0.429272  
     109A      0.456628   110A      0.464813   111A      0.475431  
     112A      0.499381   113A      0.508756   114A      0.535334  
     115A      0.576860   116A      0.601089   117A      0.959400  
     118A      1.128466   119A      1.153141   120A      1.159991  
     121A      1.170825   122A      1.179437   123A      1.203154  
     124A      1.228293   125A      1.228743   126A      1.275062  
     127A      1.333678   128A      1.368203   129A      1.388788  
     130A      1.445783   131A      1.454677   132A      1.482527  
     133A      1.511669   134A      1.745051   135A      1.820424  
     136A      1.867289   137A      1.882939   138A      1.926704  
     139A      2.095070   140A      2.197905   141A      2.245743  
     142A      2.574919   143A      3.781792   144A      3.790225  
     145A      3.807143   146A      3.819621   147A      3.831547  
     148A      3.863619   149A      3.889812   150A      3.894535  
     151A      3.949863   152A      3.971473   153A      4.138984  
     154A      4.576013   155A      4.581390   156A      4.604018  
     157A      4.628778   158A      4.638238   159A      9.972435  
     160A     14.052827   161A     27.644914   162A     27.761083  
     163A     27.804872   164A     30.148511   165A     30.279534  
     166A     30.610948   167A    160.636994   168A    197.409085  

    Final Occupation by Irrep:
              A 
    DOCC [     9 ]
    NA   [     9 ]
    NB   [     9 ]

  @DF-RHF Final Energy:  -599.01750855169007

   => Energetics <=

    Nuclear Repulsion Energy =              0.0000000000000000
    One-Electron Energy =                -819.7210744120421850
    Two-Electron Energy =                 220.7035658603520005
    Total Energy =                       -599.0175085516901845

Computation Completed


Properties will be evaluated at   0.000000,   0.000000,   0.000000 [a0]

Properties computed using the SCF density matrix


 Multipole Moments:

 ------------------------------------------------------------------------------------
     Multipole            Electronic (a.u.)      Nuclear  (a.u.)        Total (a.u.)
 ------------------------------------------------------------------------------------

 L = 1.  Multiply by 2.5417464519 to convert [e a0] to [Debye]
 Dipole X            :       -107.4966605          113.4683123            5.9716518
 Dipole Y            :          0.0001450            0.0000000            0.0001450
 Dipole Z            :          0.0000000            0.0000000            0.0000000
 Magnitude           :                                                    5.9716518

 ------------------------------------------------------------------------------------

*** tstop() called on moses-razer at Wed Jan  3 21:55:58 2024
Module time:
	user time   =      16.17 seconds =       0.27 minutes
	system time =       1.99 seconds =       0.03 minutes
	total time  =         12 seconds =       0.20 minutes
Total time:
	user time   =      53.80 seconds =       0.90 minutes
	system time =       6.43 seconds =       0.11 minutes
	total time  =         38 seconds =       0.63 minutes
  Constructing Basis Sets for SAPT...

   => Loading Basis Set <=

    Name: (AUG-CC-PVTZ AUX)
    Role: RIFIT
    Keyword: DF_BASIS_SAPT
    atoms 1   entry CL         line   742 file /home/kchung25/anaconda3/envs/p415env/share/psi4/basis/aug-cc-pvtz-ri.gbs 
    atoms 2-3 entry K          line  1282 file /home/kchung25/anaconda3/envs/p415env/share/psi4/basis/def2-qzvpp-ri.gbs 

   => Loading Basis Set <=

    Name: (AUG-CC-PVTZ AUX)
    Role: JKFIT
    Keyword: DF_BASIS_ELST
    atoms 1   entry CL         line   816 file /home/kchung25/anaconda3/envs/p415env/share/psi4/basis/aug-cc-pvtz-jkfit.gbs 
    atoms 2-3 entry K          line  1152 file /home/kchung25/anaconda3/envs/p415env/share/psi4/basis/def2-universal-jkfit.gbs 


  //>>>>>>>>>>>>>>>>>>>>>>>>>>>>>>>>>>>//
  //               SAPT2+              //
  //<<<<<<<<<<<<<<<<<<<<<<<<<<<<<<<<<<<//


*** tstart() called on moses-razer
*** at Wed Jan  3 21:55:59 2024

        SAPT2+  
    Ed Hohenstein
     6 June 2009

      Orbital Information
  --------------------------
    NSO        =       168
    NMO        =       168
    NRI        =       545
    NOCC A     =        18
    NOCC B     =         9
    FOCC A     =         0
    FOCC B     =         0
    NVIR A     =       150
    NVIR B     =       159

    Estimated memory usage: 306.8 MB

    Natural Orbital Cutoff:   1.000E-06
    Disp(T3) Truncation:            Yes
    CCD (vv|vv) Truncation:         Yes
    MBPT T2 Truncation:             Yes

    Monomer A: 75 virtual orbitals dropped
    Monomer B: 134 virtual orbitals dropped

    Elst10,r            =    -0.038245446810 [Eh]
    Exch10 (S^2)        =     0.011460588720 [Eh]
    Exch10              =     0.011525733229 [Eh]
    Ind20,r (A<-B)      =    -0.030261362646 [Eh]
    Ind20,r (B<-A)      =    -0.000648105378 [Eh]
    Ind20,r             =    -0.030909468024 [Eh]
    Exch-Ind20,r (A<-B) =     0.020540987289 [Eh]
    Exch-Ind20,r (B<-A) =     0.000052909548 [Eh]
    Exch-Ind20,r        =     0.020593896837 [Eh]
    Disp20              =    -0.002908548392 [Eh]
    Disp20 (NO)         =    -0.002675700015 [Eh]
    Exch-Disp20         =     0.000471372240 [Eh]
    Elst12,r            =    -0.000262198897 [Eh]
    Exch11              =     0.000024793095 [Eh]
    Exch12              =     0.000830161444 [Eh]
    Ind22               =    -0.003377510117 [Eh]
    Disp21              =     0.000536719401 [Eh]
    Disp22 (SDQ)        =    -0.000009160058 [Eh]

    (i =   1 of   9)          1 seconds
    (i =   2 of   9)          1 seconds
    (i =   3 of   9)          2 seconds
    (i =   4 of   9)          2 seconds
    (i =   5 of   9)          3 seconds
    (i =   6 of   9)          4 seconds
    (i =   7 of   9)          4 seconds
    (i =   8 of   9)          5 seconds
    (i =   9 of   9)          5 seconds

    Disp220 (T)         =    -0.000203424906 [Eh]

    (i =   1 of  18)          0 seconds
    (i =   2 of  18)          0 seconds
    (i =   3 of  18)          0 seconds
    (i =   4 of  18)          0 seconds
    (i =   5 of  18)          1 seconds
    (i =   6 of  18)          1 seconds
    (i =   7 of  18)          1 seconds
    (i =   8 of  18)          1 seconds
    (i =   9 of  18)          1 seconds
    (i =  10 of  18)          1 seconds
    (i =  11 of  18)          1 seconds
    (i =  12 of  18)          1 seconds
    (i =  13 of  18)          1 seconds
    (i =  14 of  18)          1 seconds
    (i =  15 of  18)          1 seconds
    (i =  16 of  18)          1 seconds
    (i =  17 of  18)          1 seconds
    (i =  18 of  18)          1 seconds

    Disp202 (T)         =    -0.000075980663 [Eh]

    Disp22 (T)          =    -0.000279405569 [Eh]

    Est. Disp220 (T)    =    -0.000221127623 [Eh]
    Est. Disp202 (T)    =    -0.000082592754 [Eh]

    Est. Disp22 (T)     =    -0.000303720377 [Eh]

    SAPT Results 
  --------------------------------------------------------------------------------------------------------
    Electrostatics                -38.50764571 [mEh]     -24.16391249 [kcal/mol]    -101.10180987 [kJ/mol]
      Elst10,r                    -38.24544681 [mEh]     -23.99938020 [kcal/mol]    -100.41340677 [kJ/mol]
      Elst12,r                     -0.26219890 [mEh]      -0.16453229 [kcal/mol]      -0.68840311 [kJ/mol]

    Exchange                       12.38068777 [mEh]       7.76899887 [kcal/mol]      32.50549125 [kJ/mol]
      Exch10                       11.52573323 [mEh]       7.23250679 [kcal/mol]      30.26080842 [kJ/mol]
      Exch10(S^2)                  11.46058872 [mEh]       7.19162800 [kcal/mol]      30.08977154 [kJ/mol]
      Exch11(S^2)                   0.02479309 [mEh]       0.01555790 [kcal/mol]       0.06509426 [kJ/mol]
      Exch12(S^2)                   0.83016144 [mEh]       0.52093417 [kcal/mol]       2.17958857 [kJ/mol]

    Induction                     -11.47441903 [mEh]      -7.20030665 [kcal/mol]     -30.12608301 [kJ/mol]
      Ind20,r                     -30.90946802 [mEh]     -19.39598401 [kcal/mol]     -81.15279712 [kJ/mol]
      Ind22                        -3.37751012 [mEh]      -2.11941960 [kcal/mol]      -8.86765159 [kJ/mol]
      Exch-Ind20,r                 20.59389684 [mEh]      12.92286537 [kcal/mol]      54.06926870 [kJ/mol]
      Exch-Ind22                    2.25031679 [mEh]       1.41209511 [kcal/mol]       5.90820592 [kJ/mol]
      delta HF,r (2)               -0.03165452 [mEh]      -0.01986351 [kcal/mol]      -0.08310892 [kJ/mol]

    Dispersion                     -2.21333719 [mEh]      -1.38889005 [kcal/mol]      -5.81111598 [kJ/mol]
      Disp20                       -2.90854839 [mEh]      -1.82514167 [kcal/mol]      -7.63639275 [kJ/mol]
      Disp21                        0.53671940 [mEh]       0.33679651 [kcal/mol]       1.40915659 [kJ/mol]
      Disp22 (SDQ)                 -0.00916006 [mEh]      -0.00574802 [kcal/mol]      -0.02404973 [kJ/mol]
      Disp22 (T)                   -0.27940557 [mEh]      -0.17532964 [kcal/mol]      -0.73357922 [kJ/mol]
      Est. Disp22 (T)              -0.30372038 [mEh]      -0.19058741 [kcal/mol]      -0.79741774 [kJ/mol]
      Exch-Disp20                   0.47137224 [mEh]       0.29579055 [kcal/mol]       1.23758765 [kJ/mol]

  Total HF                        -37.06693928 [mEh]     -23.25985556 [kcal/mol]     -97.31923568 [kJ/mol]
  Total SAPT0                     -39.50411544 [mEh]     -24.78920669 [kcal/mol]    -103.71804079 [kJ/mol]
  Total SAPT2                     -40.03855312 [mEh]     -25.12457140 [kcal/mol]    -105.12120673 [kJ/mol]
  Total SAPT2+                    -39.81471415 [mEh]     -24.98411033 [kcal/mol]    -104.53351761 [kJ/mol]

  Special recipe for scaled SAPT0 (see Manual):
    Electrostatics sSAPT0         -38.24544681 [mEh]     -23.99938020 [kcal/mol]    -100.41340677 [kJ/mol]
    Exchange sSAPT0                11.52573323 [mEh]       7.23250679 [kcal/mol]      30.26080842 [kJ/mol]
    Induction sSAPT0               -9.99404501 [mEh]      -6.27135792 [kcal/mol]     -26.23936155 [kJ/mol]
    Dispersion sSAPT0              -2.42909222 [mEh]      -1.52427838 [kcal/mol]      -6.37758076 [kJ/mol]
  Total sSAPT0                    -39.14285081 [mEh]     -24.56250972 [kcal/mol]    -102.76954065 [kJ/mol]
  --------------------------------------------------------------------------------------------------------

*** tstop() called on moses-razer at Wed Jan  3 21:56:49 2024
Module time:
	user time   =     139.49 seconds =       2.32 minutes
	system time =       4.28 seconds =       0.07 minutes
	total time  =         50 seconds =       0.83 minutes
Total time:
	user time   =     193.74 seconds =       3.23 minutes
	system time =      10.71 seconds =       0.18 minutes
	total time  =         89 seconds =       1.48 minutes

    Psi4 stopped on: Wednesday, 03 January 2024 09:56PM
    Psi4 wall time for execution: 0:01:28.74

*** Psi4 exiting successfully. Buy a developer a beer!
