
    -----------------------------------------------------------------------
          Psi4: An Open-Source Ab Initio Electronic Structure Package
                               Psi4 1.9 release

                         Git: Rev {} zzzzzzz 


    D. G. A. Smith, L. A. Burns, A. C. Simmonett, R. M. Parrish,
    M. C. Schieber, R. Galvelis, P. Kraus, H. Kruse, R. Di Remigio,
    A. Alenaizan, A. M. James, S. Lehtola, J. P. Misiewicz, M. Scheurer,
    R. A. Shaw, J. B. Schriber, Y. Xie, Z. L. Glick, D. A. Sirianni,
    J. S. O'Brien, J. M. Waldrop, A. Kumar, E. G. Hohenstein,
    B. P. Pritchard, B. R. Brooks, H. F. Schaefer III, A. Yu. Sokolov,
    K. Patkowski, A. E. DePrince III, U. Bozkaya, R. A. King,
    F. A. Evangelista, J. M. Turney, T. D. Crawford, C. D. Sherrill,
    J. Chem. Phys. 152(18) 184108 (2020). https://doi.org/10.1063/5.0006002

                            Additional Code Authors
    E. T. Seidl, C. L. Janssen, E. F. Valeev, M. L. Leininger,
    J. F. Gonthier, R. M. Richard, H. R. McAlexander, M. Saitow, X. Wang,
    P. Verma, M. H. Lechner, A. Jiang, S. Behnle, A. G. Heide,
    M. F. Herbst, and D. L. Poole

             Previous Authors, Complete List of Code Contributors,
                       and Citations for Specific Modules
    https://github.com/psi4/psi4/blob/master/codemeta.json
    https://github.com/psi4/psi4/graphs/contributors
    http://psicode.org/psi4manual/master/introduction.html#citing-psifour

    -----------------------------------------------------------------------


    Psi4 started on: Wednesday, 03 January 2024 09:52PM

    Process ID: 441055
    Host:       moses-razer
    PSIDATADIR: /home/kchung25/anaconda3/envs/psi4_19/share/psi4
    Memory:     500.0 MiB
    Threads:    6
    
  ==> Input File <==

--------------------------------------------------------------------------
MEMORY 60 GB

molecule dimer {
0 1
Cl     0.000000     0.000000     0.000000
K      0.000000     2.633546     0.000000
--
1 1
K      2.633546     0.000000     0.000000

units ang
no_reorient
no_com
symmetry c1
}

set {
basis        aug-cc-pVTZ
scf_type     df
}

energy("sapt2+")
--------------------------------------------------------------------------

  Memory set to  55.879 GiB by Python driver.

Scratch directory: /scratch/
   => Loading Basis Set <=

    Name: AUG-CC-PVTZ
    Role: ORBITAL
    Keyword: BASIS
    atoms 1   entry CL         line   988 file /home/kchung25/anaconda3/envs/p415env/share/psi4/basis/aug-cc-pvtz.gbs 
    atoms 2-3 entry K          line  1152 file /home/kchung25/anaconda3/envs/p415env/share/psi4/basis/aug-cc-pvtz.gbs 

   => Loading Basis Set <=

    Name: AUG-CC-PVTZ
    Role: ORBITAL
    Keyword: BASIS
    atoms 1   entry CL         line   988 file /home/kchung25/anaconda3/envs/p415env/share/psi4/basis/aug-cc-pvtz.gbs 
    atoms 2-3 entry K          line  1152 file /home/kchung25/anaconda3/envs/p415env/share/psi4/basis/aug-cc-pvtz.gbs 


  //>>>>>>>>>>>>>>>>>>>>>>>>>>>>>>>>>>>//
  //              Dimer HF             //
  //<<<<<<<<<<<<<<<<<<<<<<<<<<<<<<<<<<<//

   => Libint2 <=

    Primary   basis highest AM E, G, H:  5, 4, 3
    Auxiliary basis highest AM E, G, H:  6, 5, 4
    Onebody   basis highest AM E, G, H:  6, 5, 4
    Solid Harmonics ordering:            gaussian

*** tstart() called on moses-razer
*** at Wed Jan  3 21:52:22 2024

   => Loading Basis Set <=

    Name: AUG-CC-PVTZ
    Role: ORBITAL
    Keyword: BASIS
    atoms 1   entry CL         line   988 file /home/kchung25/anaconda3/envs/p415env/share/psi4/basis/aug-cc-pvtz.gbs 
    atoms 2-3 entry K          line  1152 file /home/kchung25/anaconda3/envs/p415env/share/psi4/basis/aug-cc-pvtz.gbs 


         ---------------------------------------------------------
                                   SCF
               by Justin Turney, Rob Parrish, Andy Simmonett
                          and Daniel G. A. Smith
                              RHF Reference
                        6 Threads,  57220 MiB Core
         ---------------------------------------------------------

  ==> Geometry <==

    Molecular point group: c1
    Full point group: D1

    Geometry (in Angstrom), charge = 1, multiplicity = 1:

       Center              X                  Y                   Z               Mass       
    ------------   -----------------  -----------------  -----------------  -----------------
         CL           0.000000000000     0.000000000000     0.000000000000    34.968852682000
         K            0.000000000000     2.633546000000     0.000000000000    38.963706486400
         K            2.633546000000     0.000000000000     0.000000000000    38.963706486400

  Running in c1 symmetry.

  Rotational constants: A =      0.06238  B =      0.06238  C =      0.03119 [cm^-1]
  Rotational constants: A =   1870.14430  B =   1870.14430  C =    935.07215 [MHz]
  Nuclear repulsion =  181.097724804512325

  Charge       = 1
  Multiplicity = 1
  Electrons    = 54
  Nalpha       = 27
  Nbeta        = 27

  ==> Algorithm <==

  SCF Algorithm Type is DF.
  DIIS enabled.
  MOM disabled.
  Fractional occupation disabled.
  Guess Type is SAD.
  Energy threshold   = 1.00e-08
  Density threshold  = 1.00e-08
  Integral threshold = 1.00e-12

  ==> Primary Basis <==

  Basis Set: AUG-CC-PVTZ
    Blend: AUG-CC-PVTZ
    Number of shells: 54
    Number of basis functions: 168
    Number of Cartesian functions: 197
    Spherical Harmonics?: true
    Max angular momentum: 3

   => Loading Basis Set <=

    Name: (AUG-CC-PVTZ AUX)
    Role: JKFIT
    Keyword: DF_BASIS_SCF
    atoms 1   entry CL         line   816 file /home/kchung25/anaconda3/envs/p415env/share/psi4/basis/aug-cc-pvtz-jkfit.gbs 
    atoms 2-3 entry K          line  1152 file /home/kchung25/anaconda3/envs/p415env/share/psi4/basis/def2-universal-jkfit.gbs 

  ==> Integral Setup <==

  ==> DiskDFJK: Density-Fitted J/K Matrices <==

    J tasked:                  Yes
    K tasked:                  Yes
    wK tasked:                  No
    OpenMP threads:              6
    Integrals threads:           6
    Memory [MiB]:            42915
    Algorithm:                Core
    Integral Cache:           SAVE
    Schwarz Cutoff:          1E-12
    Fitting Condition:       1E-10

   => Auxiliary Basis Set <=

  Basis Set: (AUG-CC-PVTZ AUX)
    Blend: AUG-CC-PVTZ-JKFIT + DEF2-UNIVERSAL-JKFIT
    Number of shells: 130
    Number of basis functions: 466
    Number of Cartesian functions: 586
    Spherical Harmonics?: true
    Max angular momentum: 4

  Minimum eigenvalue in the overlap matrix is 7.2994934510E-06.
  Reciprocal condition number of the overlap matrix is 8.8877529509E-07.
    Using symmetric orthogonalization.

  ==> Pre-Iterations <==

  SCF Guess: Superposition of Atomic Densities via on-the-fly atomic UHF (no occupation information).

   -------------------------
    Irrep   Nso     Nmo    
   -------------------------
     A        168     168 
   -------------------------
    Total     168     168
   -------------------------

  ==> Iterations <==

                           Total Energy        Delta E     RMS |[F,P]|

   @DF-RHF iter SAD: -1657.35063797010366   -1.65735e+03   0.00000e+00 
   @DF-RHF iter   1: -1657.75664445957159   -4.06006e-01   1.91866e-03 ADIIS/DIIS
   @DF-RHF iter   2: -1657.81002637425263   -5.33819e-02   8.35975e-04 ADIIS/DIIS
   @DF-RHF iter   3: -1657.81739818526125   -7.37181e-03   4.79463e-05 DIIS
   @DF-RHF iter   4: -1657.81745211886437   -5.39336e-05   1.02273e-05 DIIS
   @DF-RHF iter   5: -1657.81745603916556   -3.92030e-06   2.60274e-06 DIIS
   @DF-RHF iter   6: -1657.81745629309330   -2.53928e-07   8.01527e-07 DIIS
   @DF-RHF iter   7: -1657.81745632635875   -3.32655e-08   1.64671e-07 DIIS
   @DF-RHF iter   8: -1657.81745632790489   -1.54614e-09   3.14367e-08 DIIS
   @DF-RHF iter   9: -1657.81745632795082   -4.59295e-11   7.36830e-09 DIIS
  Energy and wave function converged.


  ==> Post-Iterations <==

    Orbital Energies [Eh]
    ---------------------

    Doubly Occupied:                                                      

       1A   -133.668207     2A   -133.668207     3A   -104.864073  
       4A    -14.626088     5A    -14.626088     6A    -11.655887  
       7A    -11.655887     8A    -11.655797     9A    -11.655797  
      10A    -11.655761    11A    -11.655761    12A    -10.591921  
      13A     -8.057936    14A     -8.057895    15A     -8.057692  
      16A     -1.889525    17A     -1.888851    18A     -1.151212  
      19A     -1.100846    20A     -1.097866    21A     -1.097785  
      22A     -1.097028    23A     -1.096065    24A     -1.062287  
      25A     -0.533405    26A     -0.531696    27A     -0.524592  

    Virtual:                                                              

      28A     -0.128352    29A     -0.096129    30A     -0.085037  
      31A     -0.075910    32A     -0.064606    33A     -0.059992  
      34A     -0.055887    35A     -0.054850    36A     -0.045901  
      37A     -0.044699    38A     -0.042915    39A     -0.042678  
      40A     -0.037783    41A     -0.034760    42A     -0.034735  
      43A     -0.033716    44A     -0.031741    45A     -0.030809  
      46A     -0.030659    47A     -0.030055    48A     -0.029771  
      49A     -0.027650    50A     -0.023747    51A     -0.021956  
      52A     -0.021040    53A     -0.016514    54A     -0.016316  
      55A     -0.015315    56A     -0.014249    57A     -0.011147  
      58A     -0.008997    59A     -0.005836    60A     -0.005679  
      61A     -0.005394    62A     -0.004290    63A     -0.001981  
      64A     -0.001708    65A      0.004220    66A      0.014097  
      67A      0.018957    68A      0.021469    69A      0.024253  
      70A      0.024560    71A      0.026172    72A      0.030283  
      73A      0.036178    74A      0.037057    75A      0.048595  
      76A      0.050348    77A      0.052280    78A      0.052808  
      79A      0.053186    80A      0.059947    81A      0.062278  
      82A      0.066337    83A      0.068179    84A      0.075119  
      85A      0.079430    86A      0.083213    87A      0.083539  
      88A      0.091972    89A      0.095259    90A      0.098372  
      91A      0.104182    92A      0.110704    93A      0.124945  
      94A      0.132782    95A      0.138347    96A      0.148810  
      97A      0.154028    98A      0.161086    99A      0.167877  
     100A      0.181692   101A      0.188501   102A      0.222171  
     103A      0.244455   104A      0.249925   105A      0.252171  
     106A      0.263848   107A      0.265812   108A      0.268526  
     109A      0.280974   110A      0.285194   111A      0.290007  
     112A      0.290099   113A      0.292809   114A      0.297131  
     115A      0.298885   116A      0.301554   117A      0.308533  
     118A      0.328351   119A      0.331733   120A      0.332824  
     121A      0.334341   122A      0.351110   123A      0.366149  
     124A      0.369970   125A      0.376948   126A      0.405966  
     127A      0.409626   128A      0.421897   129A      0.434870  
     130A      0.444288   131A      0.446158   132A      0.472378  
     133A      0.484587   134A      0.502462   135A      0.707231  
     136A      0.794877   137A      0.828888   138A      0.915065  
     139A      0.973410   140A      0.978426   141A      0.991084  
     142A      0.995483   143A      1.073421   144A      1.168348  
     145A      1.169274   146A      1.181668   147A      1.183756  
     148A      1.215927   149A      1.229866   150A      1.234200  
     151A      1.259871   152A      1.452959   153A      2.534860  
     154A      2.568808   155A      2.576061   156A      2.593903  
     157A      2.608735   158A      2.737158   159A      2.820043  
     160A      2.853760   161A      3.052095   162A      3.053533  
     163A      3.064040   164A      3.064221   165A      3.079384  
     166A      3.082323   167A      3.116780   168A      5.620327  

    Final Occupation by Irrep:
              A 
    DOCC [    27 ]
    NA   [    27 ]
    NB   [    27 ]

  @DF-RHF Final Energy: -1657.81745632795082

   => Energetics <=

    Nuclear Repulsion Energy =            181.0977248045123247
    One-Electron Energy =               -2639.3820575297554569
    Two-Electron Energy =                 800.4668763972921397
    Total Energy =                      -1657.8174563279508220

Computation Completed


Properties will be evaluated at   0.000000,   0.000000,   0.000000 [a0]

Properties computed using the SCF density matrix


 Multipole Moments:

 ------------------------------------------------------------------------------------
     Multipole            Electronic (a.u.)      Nuclear  (a.u.)        Total (a.u.)
 ------------------------------------------------------------------------------------

 L = 1.  Multiply by 2.5417464519 to convert [e a0] to [Debye]
 Dipole X            :        -90.3548719           94.5569329            4.2020610
 Dipole Y            :        -90.3548719           94.5569329            4.2020610
 Dipole Z            :          0.0000000            0.0000000            0.0000000
 Magnitude           :                                                    5.9426117

 ------------------------------------------------------------------------------------

*** tstop() called on moses-razer at Wed Jan  3 21:52:35 2024
Module time:
	user time   =      19.98 seconds =       0.33 minutes
	system time =       2.37 seconds =       0.04 minutes
	total time  =         13 seconds =       0.22 minutes
Total time:
	user time   =      19.98 seconds =       0.33 minutes
	system time =       2.37 seconds =       0.04 minutes
	total time  =         13 seconds =       0.22 minutes

  //>>>>>>>>>>>>>>>>>>>>>>>>>>>>>>>>>>>//
  //            Monomer A HF           //
  //<<<<<<<<<<<<<<<<<<<<<<<<<<<<<<<<<<<//

   => Libint2 <=

    Primary   basis highest AM E, G, H:  5, 4, 3
    Auxiliary basis highest AM E, G, H:  6, 5, 4
    Onebody   basis highest AM E, G, H:  6, 5, 4
    Solid Harmonics ordering:            gaussian

*** tstart() called on moses-razer
*** at Wed Jan  3 21:52:35 2024

   => Loading Basis Set <=

    Name: AUG-CC-PVTZ
    Role: ORBITAL
    Keyword: BASIS
    atoms 1   entry CL         line   988 file /home/kchung25/anaconda3/envs/p415env/share/psi4/basis/aug-cc-pvtz.gbs 
    atoms 2-3 entry K          line  1152 file /home/kchung25/anaconda3/envs/p415env/share/psi4/basis/aug-cc-pvtz.gbs 


         ---------------------------------------------------------
                                   SCF
               by Justin Turney, Rob Parrish, Andy Simmonett
                          and Daniel G. A. Smith
                              RHF Reference
                        6 Threads,  57220 MiB Core
         ---------------------------------------------------------

  ==> Geometry <==

    Molecular point group: c1
    Full point group: C1h

    Geometry (in Angstrom), charge = 0, multiplicity = 1:

       Center              X                  Y                   Z               Mass       
    ------------   -----------------  -----------------  -----------------  -----------------
         CL           0.000000000000     0.000000000000     0.000000000000    34.968852682000
         K            0.000000000000     2.633546000000     0.000000000000    38.963706486400
      Gh(K)           2.633546000000     0.000000000000     0.000000000000    38.963706486400

  Running in c1 symmetry.

  Rotational constants: A =      0.06238  B =      0.06238  C =      0.03119 [cm^-1]
  Rotational constants: A =   1870.14430  B =   1870.14430  C =    935.07215 [MHz]
  Nuclear repulsion =   64.902697369406113

  Charge       = 0
  Multiplicity = 1
  Electrons    = 36
  Nalpha       = 18
  Nbeta        = 18

  ==> Algorithm <==

  SCF Algorithm Type is DF.
  DIIS enabled.
  MOM disabled.
  Fractional occupation disabled.
  Guess Type is SAD.
  Energy threshold   = 1.00e-08
  Density threshold  = 1.00e-08
  Integral threshold = 1.00e-12

  ==> Primary Basis <==

  Basis Set: AUG-CC-PVTZ
    Blend: AUG-CC-PVTZ
    Number of shells: 54
    Number of basis functions: 168
    Number of Cartesian functions: 197
    Spherical Harmonics?: true
    Max angular momentum: 3

   => Loading Basis Set <=

    Name: (AUG-CC-PVTZ AUX)
    Role: JKFIT
    Keyword: DF_BASIS_SCF
    atoms 1   entry CL         line   816 file /home/kchung25/anaconda3/envs/p415env/share/psi4/basis/aug-cc-pvtz-jkfit.gbs 
    atoms 2-3 entry K          line  1152 file /home/kchung25/anaconda3/envs/p415env/share/psi4/basis/def2-universal-jkfit.gbs 

  ==> Integral Setup <==

  ==> DiskDFJK: Density-Fitted J/K Matrices <==

    J tasked:                  Yes
    K tasked:                  Yes
    wK tasked:                  No
    OpenMP threads:              6
    Integrals threads:           6
    Memory [MiB]:            42915
    Algorithm:                Core
    Integral Cache:           LOAD
    Schwarz Cutoff:          1E-12
    Fitting Condition:       1E-10

   => Auxiliary Basis Set <=

  Basis Set: (AUG-CC-PVTZ AUX)
    Blend: AUG-CC-PVTZ-JKFIT + DEF2-UNIVERSAL-JKFIT
    Number of shells: 130
    Number of basis functions: 466
    Number of Cartesian functions: 586
    Spherical Harmonics?: true
    Max angular momentum: 4

  Minimum eigenvalue in the overlap matrix is 7.2994934510E-06.
  Reciprocal condition number of the overlap matrix is 8.8877529509E-07.
    Using symmetric orthogonalization.

  ==> Pre-Iterations <==

  SCF Guess: Superposition of Atomic Densities via on-the-fly atomic UHF (no occupation information).

   -------------------------
    Irrep   Nso     Nmo    
   -------------------------
     A        168     168 
   -------------------------
    Total     168     168
   -------------------------

  ==> Iterations <==

                           Total Energy        Delta E     RMS |[F,P]|

   @DF-RHF iter SAD: -1058.23456309204062   -1.05823e+03   0.00000e+00 
   @DF-RHF iter   1: -1058.70896585615060   -4.74403e-01   1.84743e-03 ADIIS/DIIS
   @DF-RHF iter   2: -1058.76090942373844   -5.19436e-02   8.61130e-04 ADIIS/DIIS
   @DF-RHF iter   3: -1058.76871205858311   -7.80263e-03   5.19086e-05 DIIS
   @DF-RHF iter   4: -1058.76876461692336   -5.25583e-05   9.75790e-06 DIIS
   @DF-RHF iter   5: -1058.76876794000782   -3.32308e-06   2.35640e-06 DIIS
   @DF-RHF iter   6: -1058.76876814011712   -2.00109e-07   7.11232e-07 DIIS
   @DF-RHF iter   7: -1058.76876817142397   -3.13069e-08   1.50223e-07 DIIS
   @DF-RHF iter   8: -1058.76876817288849   -1.46451e-09   2.35199e-08 DIIS
   @DF-RHF iter   9: -1058.76876817291713   -2.86491e-11   5.88353e-09 DIIS
  Energy and wave function converged.


  ==> Post-Iterations <==

    Orbital Energies [Eh]
    ---------------------

    Doubly Occupied:                                                      

       1A   -133.523203     2A   -104.686042     3A    -14.480815  
       4A    -11.510552     5A    -11.510539     6A    -11.510489  
       7A    -10.411749     8A     -7.877880     9A     -7.877675  
      10A     -7.877663    11A     -1.743645    12A     -0.970999  
      13A     -0.953178    14A     -0.953135    15A     -0.905589  
      16A     -0.347957    17A     -0.338935    18A     -0.338913  

    Virtual:                                                              

      19A     -0.013831    20A      0.003901    21A      0.003959  
      22A      0.004883    23A      0.008529    24A      0.012310  
      25A      0.013564    26A      0.014597    27A      0.018427  
      28A      0.018781    29A      0.021164    30A      0.022044  
      31A      0.022442    32A      0.023468    33A      0.023847  
      34A      0.026572    35A      0.026981    36A      0.028196  
      37A      0.032599    38A      0.033979    39A      0.037767  
      40A      0.040751    41A      0.050302    42A      0.051099  
      43A      0.055444    44A      0.057003    45A      0.057103  
      46A      0.065936    47A      0.066804    48A      0.068660  
      49A      0.071451    50A      0.074937    51A      0.076872  
      52A      0.080169    53A      0.081681    54A      0.092958  
      55A      0.093138    56A      0.093713    57A      0.110350  
      58A      0.116614    59A      0.127038    60A      0.127629  
      61A      0.130239    62A      0.134054    63A      0.142963  
      64A      0.144023    65A      0.146418    66A      0.153399  
      67A      0.159657    68A      0.168197    69A      0.168986  
      70A      0.169300    71A      0.171369    72A      0.171465  
      73A      0.192258    74A      0.196061    75A      0.198403  
      76A      0.201475    77A      0.203972    78A      0.204792  
      79A      0.212032    80A      0.221241    81A      0.238587  
      82A      0.244520    83A      0.251949    84A      0.259815  
      85A      0.263380    86A      0.285031    87A      0.295790  
      88A      0.305092    89A      0.310978    90A      0.329502  
      91A      0.333653    92A      0.353049    93A      0.375193  
      94A      0.395141    95A      0.397674    96A      0.398098  
      97A      0.411410    98A      0.417082    99A      0.419262  
     100A      0.426365   101A      0.430412   102A      0.443014  
     103A      0.450395   104A      0.453736   105A      0.476305  
     106A      0.494974   107A      0.500796   108A      0.504439  
     109A      0.507148   110A      0.517669   111A      0.519943  
     112A      0.540799   113A      0.555667   114A      0.567083  
     115A      0.573365   116A      0.587647   117A      0.591183  
     118A      0.611952   119A      0.622539   120A      0.642086  
     121A      0.737878   122A      0.861624   123A      0.960717  
     124A      0.986911   125A      1.095193   126A      1.136419  
     127A      1.150126   128A      1.162506   129A      1.187037  
     130A      1.279647   131A      1.300438   132A      1.314021  
     133A      1.330353   134A      1.350098   135A      1.356341  
     136A      1.383442   137A      1.392744   138A      1.494221  
     139A      1.922787   140A      1.974386   141A      2.049378  
     142A      2.054110   143A      2.160084   144A      2.253087  
     145A      2.325930   146A      2.409744   147A      2.585774  
     148A      2.728326   149A      2.749697   150A      2.760158  
     151A      2.804446   152A      2.905001   153A      2.931429  
     154A      3.015475   155A      3.073319   156A      3.242225  
     157A      3.244900   158A      3.249920   159A      3.260105  
     160A      3.323552   161A      3.326977   162A      3.348956  
     163A      5.832982   164A     10.235799   165A     30.343886  
     166A     30.469006   167A     30.844689   168A    197.754506  

    Final Occupation by Irrep:
              A 
    DOCC [    18 ]
    NA   [    18 ]
    NB   [    18 ]

  @DF-RHF Final Energy: -1058.76876817291713

   => Energetics <=

    Nuclear Repulsion Energy =             64.9026973694061127
    One-Electron Energy =               -1591.7050148126550084
    Two-Electron Energy =                 468.0335492703318891
    Total Energy =                      -1058.7687681729171345

Computation Completed


Properties will be evaluated at   0.000000,   0.000000,   0.000000 [a0]

Properties computed using the SCF density matrix


 Multipole Moments:

 ------------------------------------------------------------------------------------
     Multipole            Electronic (a.u.)      Nuclear  (a.u.)        Total (a.u.)
 ------------------------------------------------------------------------------------

 L = 1.  Multiply by 2.5417464519 to convert [e a0] to [Debye]
 Dipole X            :          0.0003410            0.0000000            0.0003410
 Dipole Y            :        -90.4573089           94.5569329            4.0996240
 Dipole Z            :          0.0000000            0.0000000            0.0000000
 Magnitude           :                                                    4.0996240

 ------------------------------------------------------------------------------------

*** tstop() called on moses-razer at Wed Jan  3 21:52:48 2024
Module time:
	user time   =      17.50 seconds =       0.29 minutes
	system time =       2.24 seconds =       0.04 minutes
	total time  =         13 seconds =       0.22 minutes
Total time:
	user time   =      37.51 seconds =       0.63 minutes
	system time =       4.61 seconds =       0.08 minutes
	total time  =         26 seconds =       0.43 minutes

  //>>>>>>>>>>>>>>>>>>>>>>>>>>>>>>>>>>>//
  //            Monomer B HF           //
  //<<<<<<<<<<<<<<<<<<<<<<<<<<<<<<<<<<<//

   => Libint2 <=

    Primary   basis highest AM E, G, H:  5, 4, 3
    Auxiliary basis highest AM E, G, H:  6, 5, 4
    Onebody   basis highest AM E, G, H:  6, 5, 4
    Solid Harmonics ordering:            gaussian

*** tstart() called on moses-razer
*** at Wed Jan  3 21:52:48 2024

   => Loading Basis Set <=

    Name: AUG-CC-PVTZ
    Role: ORBITAL
    Keyword: BASIS
    atoms 1   entry CL         line   988 file /home/kchung25/anaconda3/envs/p415env/share/psi4/basis/aug-cc-pvtz.gbs 
    atoms 2-3 entry K          line  1152 file /home/kchung25/anaconda3/envs/p415env/share/psi4/basis/aug-cc-pvtz.gbs 


         ---------------------------------------------------------
                                   SCF
               by Justin Turney, Rob Parrish, Andy Simmonett
                          and Daniel G. A. Smith
                              RHF Reference
                        6 Threads,  57220 MiB Core
         ---------------------------------------------------------

  ==> Geometry <==

    Molecular point group: c1
    Full point group: C1h

    Geometry (in Angstrom), charge = 1, multiplicity = 1:

       Center              X                  Y                   Z               Mass       
    ------------   -----------------  -----------------  -----------------  -----------------
      Gh(CL)          0.000000000000     0.000000000000     0.000000000000    34.968852682000
      Gh(K)           0.000000000000     2.633546000000     0.000000000000    38.963706486400
         K            2.633546000000     0.000000000000     0.000000000000    38.963706486400

  Running in c1 symmetry.

  Rotational constants: A =      0.06238  B =      0.06238  C =      0.03119 [cm^-1]
  Rotational constants: A =   1870.14430  B =   1870.14430  C =    935.07215 [MHz]
  Nuclear repulsion =    0.000000000000000

  Charge       = 1
  Multiplicity = 1
  Electrons    = 18
  Nalpha       = 9
  Nbeta        = 9

  ==> Algorithm <==

  SCF Algorithm Type is DF.
  DIIS enabled.
  MOM disabled.
  Fractional occupation disabled.
  Guess Type is SAD.
  Energy threshold   = 1.00e-08
  Density threshold  = 1.00e-08
  Integral threshold = 1.00e-12

  ==> Primary Basis <==

  Basis Set: AUG-CC-PVTZ
    Blend: AUG-CC-PVTZ
    Number of shells: 54
    Number of basis functions: 168
    Number of Cartesian functions: 197
    Spherical Harmonics?: true
    Max angular momentum: 3

   => Loading Basis Set <=

    Name: (AUG-CC-PVTZ AUX)
    Role: JKFIT
    Keyword: DF_BASIS_SCF
    atoms 1   entry CL         line   816 file /home/kchung25/anaconda3/envs/p415env/share/psi4/basis/aug-cc-pvtz-jkfit.gbs 
    atoms 2-3 entry K          line  1152 file /home/kchung25/anaconda3/envs/p415env/share/psi4/basis/def2-universal-jkfit.gbs 

  ==> Integral Setup <==

  ==> DiskDFJK: Density-Fitted J/K Matrices <==

    J tasked:                  Yes
    K tasked:                  Yes
    wK tasked:                  No
    OpenMP threads:              6
    Integrals threads:           6
    Memory [MiB]:            42915
    Algorithm:                Core
    Integral Cache:           LOAD
    Schwarz Cutoff:          1E-12
    Fitting Condition:       1E-10

   => Auxiliary Basis Set <=

  Basis Set: (AUG-CC-PVTZ AUX)
    Blend: AUG-CC-PVTZ-JKFIT + DEF2-UNIVERSAL-JKFIT
    Number of shells: 130
    Number of basis functions: 466
    Number of Cartesian functions: 586
    Spherical Harmonics?: true
    Max angular momentum: 4

  Minimum eigenvalue in the overlap matrix is 7.2994934510E-06.
  Reciprocal condition number of the overlap matrix is 8.8877529509E-07.
    Using symmetric orthogonalization.

  ==> Pre-Iterations <==

  SCF Guess: Superposition of Atomic Densities via on-the-fly atomic UHF (no occupation information).

   -------------------------
    Irrep   Nso     Nmo    
   -------------------------
     A        168     168 
   -------------------------
    Total     168     168
   -------------------------

  ==> Iterations <==

                           Total Energy        Delta E     RMS |[F,P]|

   @DF-RHF iter SAD:  -599.05153224338881   -5.99052e+02   0.00000e+00 
   @DF-RHF iter   1:  -599.01747936492472    3.40529e-02   4.25702e-05 DIIS
   @DF-RHF iter   2:  -599.01750902567312   -2.96607e-05   5.64574e-06 DIIS
   @DF-RHF iter   3:  -599.01750974267179   -7.16999e-07   5.21589e-07 DIIS
   @DF-RHF iter   4:  -599.01750974756953   -4.89774e-09   4.73880e-08 DIIS
   @DF-RHF iter   5:  -599.01750974761705   -4.75211e-11   9.59253e-09 DIIS
  Energy and wave function converged.


  ==> Post-Iterations <==

    Orbital Energies [Eh]
    ---------------------

    Doubly Occupied:                                                      

       1A   -133.753437     2A    -14.708954     3A    -11.739022  
       4A    -11.739016     5A    -11.739014     6A     -1.964239  
       7A     -1.170901     8A     -1.170854     9A     -1.170833  

    Virtual:                                                              

      10A     -0.146969    11A     -0.095561    12A     -0.095554  
      13A     -0.095551    14A     -0.060915    15A     -0.057918  
      16A     -0.057884    17A     -0.057863    18A     -0.057796  
      19A     -0.057778    20A     -0.045546    21A     -0.045538  
      22A     -0.045536    23A     -0.032554    24A     -0.032408  
      25A     -0.032388    26A     -0.031300    27A     -0.031272  
      28A     -0.031039    29A     -0.029997    30A     -0.029985  
      31A     -0.029735    32A     -0.028869    33A     -0.028855  
      34A     -0.022931    35A     -0.018543    36A     -0.018434  
      37A     -0.016081    38A     -0.016026    39A     -0.012669  
      40A     -0.009262    41A     -0.008938    42A     -0.005470  
      43A     -0.005343    44A     -0.005290    45A     -0.000681  
      46A      0.005852    47A      0.006508    48A      0.008321  
      49A      0.014005    50A      0.014807    51A      0.014988  
      52A      0.015795    53A      0.016476    54A      0.021622  
      55A      0.022293    56A      0.026191    57A      0.034604  
      58A      0.036221    59A      0.039567    60A      0.041383  
      61A      0.059922    62A      0.063210    63A      0.063216  
      64A      0.067119    65A      0.073039    66A      0.074089  
      67A      0.079067    68A      0.085126    69A      0.088294  
      70A      0.099939    71A      0.101183    72A      0.107499  
      73A      0.109618    74A      0.111146    75A      0.113358  
      76A      0.122093    77A      0.127192    78A      0.153452  
      79A      0.153978    80A      0.157166    81A      0.164804  
      82A      0.173810    83A      0.183277    84A      0.204711  
      85A      0.211486    86A      0.231528    87A      0.239475  
      88A      0.240812    89A      0.244449    90A      0.245894  
      91A      0.251149    92A      0.263926    93A      0.273129  
      94A      0.273340    95A      0.281327    96A      0.314153  
      97A      0.330603    98A      0.332476    99A      0.340655  
     100A      0.344216   101A      0.355520   102A      0.370452  
     103A      0.380846   104A      0.393542   105A      0.403849  
     106A      0.409768   107A      0.416170   108A      0.435809  
     109A      0.436530   110A      0.484412   111A      0.489267  
     112A      0.489483   113A      0.503050   114A      0.506161  
     115A      0.550268   116A      0.604747   117A      1.070568  
     118A      1.113455   119A      1.145940   120A      1.150389  
     121A      1.153799   122A      1.186812   123A      1.208704  
     124A      1.222930   125A      1.269060   126A      1.294250  
     127A      1.322498   128A      1.361071   129A      1.376596  
     130A      1.434011   131A      1.455010   132A      1.458567  
     133A      1.476199   134A      1.742088   135A      1.816948  
     136A      1.875673   137A      1.886571   138A      2.042262  
     139A      2.104075   140A      2.192012   141A      2.266793  
     142A      2.521067   143A      3.761697   144A      3.786018  
     145A      3.787128   146A      3.796649   147A      3.819547  
     148A      3.835963   149A      3.868107   150A      3.874052  
     151A      3.910027   152A      3.939965   153A      4.132212  
     154A      4.540078   155A      4.570516   156A      4.578114  
     157A      4.594962   158A      4.609705   159A     10.042921  
     160A     14.071403   161A     27.629297   162A     27.736174  
     163A     27.764275   164A     30.150774   165A     30.278606  
     166A     30.656484   167A    160.612364   168A    197.560594  

    Final Occupation by Irrep:
              A 
    DOCC [     9 ]
    NA   [     9 ]
    NB   [     9 ]

  @DF-RHF Final Energy:  -599.01750974761705

   => Energetics <=

    Nuclear Repulsion Energy =              0.0000000000000000
    One-Electron Energy =                -819.7224841064190741
    Two-Electron Energy =                 220.7049743588020192
    Total Energy =                       -599.0175097476170549

Computation Completed


Properties will be evaluated at   0.000000,   0.000000,   0.000000 [a0]

Properties computed using the SCF density matrix


 Multipole Moments:

 ------------------------------------------------------------------------------------
     Multipole            Electronic (a.u.)      Nuclear  (a.u.)        Total (a.u.)
 ------------------------------------------------------------------------------------

 L = 1.  Multiply by 2.5417464519 to convert [e a0] to [Debye]
 Dipole X            :        -89.5807123           94.5569329            4.9762206
 Dipole Y            :          0.0000846            0.0000000            0.0000846
 Dipole Z            :          0.0000000            0.0000000            0.0000000
 Magnitude           :                                                    4.9762206

 ------------------------------------------------------------------------------------

*** tstop() called on moses-razer at Wed Jan  3 21:53:00 2024
Module time:
	user time   =      16.14 seconds =       0.27 minutes
	system time =       2.02 seconds =       0.03 minutes
	total time  =         12 seconds =       0.20 minutes
Total time:
	user time   =      53.67 seconds =       0.89 minutes
	system time =       6.63 seconds =       0.11 minutes
	total time  =         38 seconds =       0.63 minutes
  Constructing Basis Sets for SAPT...

   => Loading Basis Set <=

    Name: (AUG-CC-PVTZ AUX)
    Role: RIFIT
    Keyword: DF_BASIS_SAPT
    atoms 1   entry CL         line   742 file /home/kchung25/anaconda3/envs/p415env/share/psi4/basis/aug-cc-pvtz-ri.gbs 
    atoms 2-3 entry K          line  1282 file /home/kchung25/anaconda3/envs/p415env/share/psi4/basis/def2-qzvpp-ri.gbs 

   => Loading Basis Set <=

    Name: (AUG-CC-PVTZ AUX)
    Role: JKFIT
    Keyword: DF_BASIS_ELST
    atoms 1   entry CL         line   816 file /home/kchung25/anaconda3/envs/p415env/share/psi4/basis/aug-cc-pvtz-jkfit.gbs 
    atoms 2-3 entry K          line  1152 file /home/kchung25/anaconda3/envs/p415env/share/psi4/basis/def2-universal-jkfit.gbs 


  //>>>>>>>>>>>>>>>>>>>>>>>>>>>>>>>>>>>//
  //               SAPT2+              //
  //<<<<<<<<<<<<<<<<<<<<<<<<<<<<<<<<<<<//


*** tstart() called on moses-razer
*** at Wed Jan  3 21:53:00 2024

        SAPT2+  
    Ed Hohenstein
     6 June 2009

      Orbital Information
  --------------------------
    NSO        =       168
    NMO        =       168
    NRI        =       545
    NOCC A     =        18
    NOCC B     =         9
    FOCC A     =         0
    FOCC B     =         0
    NVIR A     =       150
    NVIR B     =       159

    Estimated memory usage: 306.8 MB

    Natural Orbital Cutoff:   1.000E-06
    Disp(T3) Truncation:            Yes
    CCD (vv|vv) Truncation:         Yes
    MBPT T2 Truncation:             Yes

    Monomer A: 73 virtual orbitals dropped
    Monomer B: 131 virtual orbitals dropped

    Elst10,r            =    -0.070469600912 [Eh]
    Exch10 (S^2)        =     0.056646381130 [Eh]
    Exch10              =     0.058051354157 [Eh]
    Ind20,r (A<-B)      =    -0.113976029651 [Eh]
    Ind20,r (B<-A)      =    -0.002405328856 [Eh]
    Ind20,r             =    -0.116381358507 [Eh]
    Exch-Ind20,r (A<-B) =     0.095173860205 [Eh]
    Exch-Ind20,r (B<-A) =     0.001200152823 [Eh]
    Exch-Ind20,r        =     0.096374013028 [Eh]
    Disp20              =    -0.008531722703 [Eh]
    Disp20 (NO)         =    -0.007950782299 [Eh]
    Exch-Disp20         =     0.002073530840 [Eh]
    Elst12,r            =    -0.001016645038 [Eh]
    Exch11              =    -0.000326509576 [Eh]
    Exch12              =     0.002125820448 [Eh]
    Ind22               =    -0.010481510597 [Eh]
    Disp21              =     0.001515366664 [Eh]
    Disp22 (SDQ)        =     0.000038348939 [Eh]

    (i =   1 of   9)          1 seconds
    (i =   2 of   9)          2 seconds
    (i =   3 of   9)          3 seconds
    (i =   4 of   9)          3 seconds
    (i =   5 of   9)          4 seconds
    (i =   6 of   9)          5 seconds
    (i =   7 of   9)          5 seconds
    (i =   8 of   9)          6 seconds
    (i =   9 of   9)          7 seconds

    Disp220 (T)         =    -0.000550416004 [Eh]

    (i =   1 of  18)          0 seconds
    (i =   2 of  18)          0 seconds
    (i =   3 of  18)          0 seconds
    (i =   4 of  18)          0 seconds
    (i =   5 of  18)          0 seconds
    (i =   6 of  18)          0 seconds
    (i =   7 of  18)          0 seconds
    (i =   8 of  18)          0 seconds
    (i =   9 of  18)          0 seconds
    (i =  10 of  18)          0 seconds
    (i =  11 of  18)          0 seconds
    (i =  12 of  18)          0 seconds
    (i =  13 of  18)          0 seconds
    (i =  14 of  18)          0 seconds
    (i =  15 of  18)          1 seconds
    (i =  16 of  18)          1 seconds
    (i =  17 of  18)          1 seconds
    (i =  18 of  18)          1 seconds

    Disp202 (T)         =    -0.000224594208 [Eh]

    Disp22 (T)          =    -0.000775010212 [Eh]

    Est. Disp220 (T)    =    -0.000590633292 [Eh]
    Est. Disp202 (T)    =    -0.000241004649 [Eh]

    Est. Disp22 (T)     =    -0.000831637941 [Eh]

    SAPT Results 
  --------------------------------------------------------------------------------------------------------
    Electrostatics                -71.48624595 [mEh]     -44.85829658 [kcal/mol]    -187.68711289 [kJ/mol]
      Elst10,r                    -70.46960091 [mEh]     -44.22034219 [kcal/mol]    -185.01791171 [kJ/mol]
      Elst12,r                     -1.01664504 [mEh]      -0.63795439 [kcal/mol]      -2.66920118 [kJ/mol]

    Exchange                       59.85066503 [mEh]      37.55685932 [kcal/mol]     157.13789938 [kJ/mol]
      Exch10                       58.05135416 [mEh]      36.42777470 [kcal/mol]     152.41380934 [kJ/mol]
      Exch10(S^2)                  56.64638113 [mEh]      35.54614081 [kcal/mol]     148.72505317 [kJ/mol]
      Exch11(S^2)                  -0.32650958 [mEh]      -0.20488785 [kcal/mol]      -0.85725077 [kJ/mol]
      Exch12(S^2)                   2.12582045 [mEh]       1.33397247 [kcal/mol]       5.58134082 [kJ/mol]

    Induction                     -20.56205751 [mEh]     -12.90288589 [kcal/mol]     -53.98567457 [kJ/mol]
      Ind20,r                    -116.38135851 [mEh]     -73.03040503 [kcal/mol]    -305.55921466 [kJ/mol]
      Ind22                       -10.48151060 [mEh]      -6.57724720 [kcal/mol]     -27.51920228 [kJ/mol]
      Exch-Ind20,r                 96.37401303 [mEh]      60.47560620 [kcal/mol]     253.02993634 [kJ/mol]
      Exch-Ind22                    8.67961374 [mEh]       5.44653985 [kcal/mol]      22.78832275 [kJ/mol]
      delta HF,r (2)                1.24718482 [mEh]       0.78262029 [kcal/mol]       3.27448329 [kJ/mol]

    Dispersion                     -5.73611420 [mEh]      -3.59946600 [kcal/mol]     -15.06016576 [kJ/mol]
      Disp20                       -8.53172270 [mEh]      -5.35373682 [kcal/mol]     -22.40003487 [kJ/mol]
      Disp21                        1.51536666 [mEh]       0.95090694 [kcal/mol]       3.97859463 [kJ/mol]
      Disp22 (SDQ)                  0.03834894 [mEh]       0.02406432 [kcal/mol]       0.10068513 [kJ/mol]
      Disp22 (T)                   -0.77501021 [mEh]      -0.48632625 [kcal/mol]      -2.03478903 [kJ/mol]
      Est. Disp22 (T)              -0.83163794 [mEh]      -0.52186069 [kcal/mol]      -2.18346511 [kJ/mol]
      Exch-Disp20                   2.07353084 [mEh]       1.30116025 [kcal/mol]       5.44405447 [kJ/mol]

  Total HF                        -31.17840742 [mEh]     -19.56474603 [kcal/mol]     -81.85889739 [kJ/mol]
  Total SAPT0                     -37.63659928 [mEh]     -23.61732261 [kcal/mol]     -98.81487779 [kJ/mol]
  Total SAPT2                     -38.65583030 [mEh]     -24.25689973 [kcal/mol]    -101.49086847 [kJ/mol]
  Total SAPT2+                    -37.93375264 [mEh]     -23.80378915 [kcal/mol]     -99.59505382 [kJ/mol]

  Special recipe for scaled SAPT0 (see Manual):
    Electrostatics sSAPT0         -70.46960091 [mEh]     -44.22034219 [kcal/mol]    -185.01791171 [kJ/mol]
    Exchange sSAPT0                58.05135416 [mEh]      36.42777470 [kcal/mol]     152.41380934 [kJ/mol]
    Induction sSAPT0              -11.40987717 [mEh]      -7.15980602 [kcal/mol]     -29.95662838 [kJ/mol]
    Dispersion sSAPT0              -6.30004716 [mEh]      -3.95333928 [kcal/mol]     -16.54077154 [kJ/mol]
  Total sSAPT0                    -30.12817109 [mEh]     -18.90571278 [kcal/mol]     -79.10150229 [kJ/mol]
  --------------------------------------------------------------------------------------------------------

*** tstop() called on moses-razer at Wed Jan  3 21:53:52 2024
Module time:
	user time   =     146.75 seconds =       2.45 minutes
	system time =       4.30 seconds =       0.07 minutes
	total time  =         52 seconds =       0.87 minutes
Total time:
	user time   =     200.87 seconds =       3.35 minutes
	system time =      10.94 seconds =       0.18 minutes
	total time  =         90 seconds =       1.50 minutes

    Psi4 stopped on: Wednesday, 03 January 2024 09:53PM
    Psi4 wall time for execution: 0:01:29.47

*** Psi4 exiting successfully. Buy a developer a beer!
