
    -----------------------------------------------------------------------
          Psi4: An Open-Source Ab Initio Electronic Structure Package
                               Psi4 1.9 release

                         Git: Rev {} zzzzzzz 


    D. G. A. Smith, L. A. Burns, A. C. Simmonett, R. M. Parrish,
    M. C. Schieber, R. Galvelis, P. Kraus, H. Kruse, R. Di Remigio,
    A. Alenaizan, A. M. James, S. Lehtola, J. P. Misiewicz, M. Scheurer,
    R. A. Shaw, J. B. Schriber, Y. Xie, Z. L. Glick, D. A. Sirianni,
    J. S. O'Brien, J. M. Waldrop, A. Kumar, E. G. Hohenstein,
    B. P. Pritchard, B. R. Brooks, H. F. Schaefer III, A. Yu. Sokolov,
    K. Patkowski, A. E. DePrince III, U. Bozkaya, R. A. King,
    F. A. Evangelista, J. M. Turney, T. D. Crawford, C. D. Sherrill,
    J. Chem. Phys. 152(18) 184108 (2020). https://doi.org/10.1063/5.0006002

                            Additional Code Authors
    E. T. Seidl, C. L. Janssen, E. F. Valeev, M. L. Leininger,
    J. F. Gonthier, R. M. Richard, H. R. McAlexander, M. Saitow, X. Wang,
    P. Verma, M. H. Lechner, A. Jiang, S. Behnle, A. G. Heide,
    M. F. Herbst, and D. L. Poole

             Previous Authors, Complete List of Code Contributors,
                       and Citations for Specific Modules
    https://github.com/psi4/psi4/blob/master/codemeta.json
    https://github.com/psi4/psi4/graphs/contributors
    http://psicode.org/psi4manual/master/introduction.html#citing-psifour

    -----------------------------------------------------------------------


    Psi4 started on: Wednesday, 03 January 2024 10:15PM

    Process ID: 441910
    Host:       moses-razer
    PSIDATADIR: /home/kchung25/anaconda3/envs/psi4_19/share/psi4
    Memory:     500.0 MiB
    Threads:    6
    
  ==> Input File <==

--------------------------------------------------------------------------
MEMORY 60 GB

molecule dimer {
0 1
Br     0.000000     0.000000     0.000000
K      0.000000     2.788700     0.000000
--
1 1
K      3.625310     0.000000     0.000000

units ang
no_reorient
no_com
symmetry c1
}

set {
basis        aug-cc-pVTZ
scf_type     df
}

energy("sapt2+")
--------------------------------------------------------------------------

  Memory set to  55.879 GiB by Python driver.

Scratch directory: /scratch/
   => Loading Basis Set <=

    Name: AUG-CC-PVTZ
    Role: ORBITAL
    Keyword: BASIS
    atoms 1   entry BR         line  4564 file /home/kchung25/anaconda3/envs/p415env/share/psi4/basis/aug-cc-pvtz.gbs 
    atoms 2-3 entry K          line  1152 file /home/kchung25/anaconda3/envs/p415env/share/psi4/basis/aug-cc-pvtz.gbs 

   => Loading Basis Set <=

    Name: AUG-CC-PVTZ
    Role: ORBITAL
    Keyword: BASIS
    atoms 1   entry BR         line  4564 file /home/kchung25/anaconda3/envs/p415env/share/psi4/basis/aug-cc-pvtz.gbs 
    atoms 2-3 entry K          line  1152 file /home/kchung25/anaconda3/envs/p415env/share/psi4/basis/aug-cc-pvtz.gbs 


  //>>>>>>>>>>>>>>>>>>>>>>>>>>>>>>>>>>>//
  //              Dimer HF             //
  //<<<<<<<<<<<<<<<<<<<<<<<<<<<<<<<<<<<//

   => Libint2 <=

    Primary   basis highest AM E, G, H:  5, 4, 3
    Auxiliary basis highest AM E, G, H:  6, 5, 4
    Onebody   basis highest AM E, G, H:  6, 5, 4
    Solid Harmonics ordering:            gaussian

*** tstart() called on moses-razer
*** at Wed Jan  3 22:15:52 2024

   => Loading Basis Set <=

    Name: AUG-CC-PVTZ
    Role: ORBITAL
    Keyword: BASIS
    atoms 1   entry BR         line  4564 file /home/kchung25/anaconda3/envs/p415env/share/psi4/basis/aug-cc-pvtz.gbs 
    atoms 2-3 entry K          line  1152 file /home/kchung25/anaconda3/envs/p415env/share/psi4/basis/aug-cc-pvtz.gbs 


         ---------------------------------------------------------
                                   SCF
               by Justin Turney, Rob Parrish, Andy Simmonett
                          and Daniel G. A. Smith
                              RHF Reference
                        6 Threads,  57220 MiB Core
         ---------------------------------------------------------

  ==> Geometry <==

    Molecular point group: c1
    Full point group: Cs

    Geometry (in Angstrom), charge = 1, multiplicity = 1:

       Center              X                  Y                   Z               Mass       
    ------------   -----------------  -----------------  -----------------  -----------------
         BR           0.000000000000     0.000000000000     0.000000000000    78.918337600000
         K            0.000000000000     2.788700000000     0.000000000000    38.963706486400
         K            3.625310000000     0.000000000000     0.000000000000    38.963706486400

  Running in c1 symmetry.

  Rotational constants: A =      0.05563  B =      0.03292  C =      0.02068 [cm^-1]
  Rotational constants: A =   1667.83600  B =    986.88520  C =    620.01338 [MHz]
  Nuclear repulsion =  265.023918194761222

  Charge       = 1
  Multiplicity = 1
  Electrons    = 72
  Nalpha       = 36
  Nbeta        = 36

  ==> Algorithm <==

  SCF Algorithm Type is DF.
  DIIS enabled.
  MOM disabled.
  Fractional occupation disabled.
  Guess Type is SAD.
  Energy threshold   = 1.00e-08
  Density threshold  = 1.00e-08
  Integral threshold = 1.00e-12

  ==> Primary Basis <==

  Basis Set: AUG-CC-PVTZ
    Blend: AUG-CC-PVTZ
    Number of shells: 57
    Number of basis functions: 177
    Number of Cartesian functions: 207
    Spherical Harmonics?: true
    Max angular momentum: 3

   => Loading Basis Set <=

    Name: (AUG-CC-PVTZ AUX)
    Role: JKFIT
    Keyword: DF_BASIS_SCF
    atoms 1   entry BR         line  1492 file /home/kchung25/anaconda3/envs/p415env/share/psi4/basis/aug-cc-pvtz-jkfit.gbs 
    atoms 2-3 entry K          line  1152 file /home/kchung25/anaconda3/envs/p415env/share/psi4/basis/def2-universal-jkfit.gbs 

  ==> Integral Setup <==

  ==> DiskDFJK: Density-Fitted J/K Matrices <==

    J tasked:                  Yes
    K tasked:                  Yes
    wK tasked:                  No
    OpenMP threads:              6
    Integrals threads:           6
    Memory [MiB]:            42915
    Algorithm:                Core
    Integral Cache:           SAVE
    Schwarz Cutoff:          1E-12
    Fitting Condition:       1E-10

   => Auxiliary Basis Set <=

  Basis Set: (AUG-CC-PVTZ AUX)
    Blend: AUG-CC-PVTZ-JKFIT + DEF2-UNIVERSAL-JKFIT
    Number of shells: 146
    Number of basis functions: 568
    Number of Cartesian functions: 735
    Spherical Harmonics?: true
    Max angular momentum: 4

  Minimum eigenvalue in the overlap matrix is 1.9246978404E-05.
  Reciprocal condition number of the overlap matrix is 2.3571769351E-06.
    Using symmetric orthogonalization.

  ==> Pre-Iterations <==

  SCF Guess: Superposition of Atomic Densities via on-the-fly atomic UHF (no occupation information).

   -------------------------
    Irrep   Nso     Nmo    
   -------------------------
     A        177     177 
   -------------------------
    Total     177     177
   -------------------------

  ==> Iterations <==

                           Total Energy        Delta E     RMS |[F,P]|

   @DF-RHF iter SAD: -3768.60952471500195   -3.76861e+03   0.00000e+00 
   @DF-RHF iter   1: -3770.49816003719570   -1.88864e+00   5.97551e-03 ADIIS/DIIS
   @DF-RHF iter   2: -3770.70782178656145   -2.09662e-01   3.22573e-03 ADIIS/DIIS
   @DF-RHF iter   3: -3770.77028250797594   -6.24607e-02   6.29073e-05 DIIS
   @DF-RHF iter   4: -3770.77036926376604   -8.67558e-05   1.73101e-05 DIIS
   @DF-RHF iter   5: -3770.77037817263636   -8.90887e-06   5.43866e-06 DIIS
   @DF-RHF iter   6: -3770.77037943617506   -1.26354e-06   1.41267e-06 DIIS
   @DF-RHF iter   7: -3770.77037959566724   -1.59492e-07   2.81013e-07 DIIS
   @DF-RHF iter   8: -3770.77037960240887   -6.74163e-09   6.11676e-08 DIIS
   @DF-RHF iter   9: -3770.77037960267489   -2.66027e-10   1.36946e-08 DIIS
   @DF-RHF iter  10: -3770.77037960268626   -1.13687e-11   4.30589e-09 DIIS
  Energy and wave function converged.


  ==> Post-Iterations <==

    Orbital Energies [Eh]
    ---------------------

    Doubly Occupied:                                                      

       1A   -490.038712     2A   -133.707914     3A   -133.650321  
       4A    -65.179324     5A    -58.533851     6A    -58.533725  
       7A    -58.533671     8A    -14.663711     9A    -14.608093  
      10A    -11.693774    11A    -11.693740    12A    -11.693641  
      13A    -11.637852    14A    -11.637794    15A    -11.637784  
      16A     -9.852148    17A     -7.459920    18A     -7.459485  
      19A     -7.459245    20A     -3.201700    21A     -3.201430  
      22A     -3.201382    23A     -3.200626    24A     -3.200581  
      25A     -1.919960    26A     -1.870769    27A     -1.128264  
      28A     -1.127483    29A     -1.124732    30A     -1.087398  
      31A     -1.080198    32A     -1.079147    33A     -1.004010  
      34A     -0.470176    35A     -0.467373    36A     -0.460102  

    Virtual:                                                              

      37A     -0.128017    38A     -0.099348    39A     -0.083616  
      40A     -0.077055    41A     -0.066329    42A     -0.061237  
      43A     -0.056388    44A     -0.054173    45A     -0.046722  
      46A     -0.044546    47A     -0.042683    48A     -0.042445  
      49A     -0.037709    50A     -0.036046    51A     -0.035468  
      52A     -0.034542    53A     -0.031892    54A     -0.030330  
      55A     -0.030303    56A     -0.029381    57A     -0.028998  
      58A     -0.027145    59A     -0.023216    60A     -0.022841  
      61A     -0.020783    62A     -0.017965    63A     -0.017231  
      64A     -0.016841    65A     -0.016193    66A     -0.013554  
      67A     -0.008203    68A     -0.006638    69A     -0.006020  
      70A     -0.004709    71A     -0.001792    72A     -0.001060  
      73A     -0.000265    74A      0.004218    75A      0.010030  
      76A      0.015870    77A      0.017720    78A      0.021867  
      79A      0.029087    80A      0.029166    81A      0.031095  
      82A      0.032823    83A      0.041644    84A      0.042874  
      85A      0.043725    86A      0.044922    87A      0.051235  
      88A      0.053907    89A      0.055693    90A      0.055763  
      91A      0.060765    92A      0.062760    93A      0.071937  
      94A      0.074824    95A      0.078800    96A      0.081575  
      97A      0.085014    98A      0.086482    99A      0.091811  
     100A      0.096476   101A      0.103784   102A      0.110667  
     103A      0.120070   104A      0.128009   105A      0.132207  
     106A      0.133042   107A      0.133798   108A      0.151773  
     109A      0.159771   110A      0.170864   111A      0.177786  
     112A      0.192091   113A      0.236098   114A      0.242483  
     115A      0.247204   116A      0.256496   117A      0.260719  
     118A      0.262142   119A      0.265545   120A      0.269559  
     121A      0.271384   122A      0.278097   123A      0.284413  
     124A      0.290059   125A      0.297245   126A      0.300166  
     127A      0.308772   128A      0.311091   129A      0.314324  
     130A      0.321971   131A      0.336024   132A      0.340679  
     133A      0.344888   134A      0.354306   135A      0.362325  
     136A      0.366218   137A      0.380167   138A      0.382011  
     139A      0.388080   140A      0.397267   141A      0.405673  
     142A      0.443753   143A      0.454543   144A      0.568881  
     145A      0.619306   146A      0.689255   147A      0.765122  
     148A      0.798798   149A      0.810428   150A      0.827127  
     151A      0.845776   152A      0.919469   153A      0.950691  
     154A      0.958563   155A      0.966531   156A      0.980298  
     157A      0.984138   158A      1.013571   159A      1.036559  
     160A      1.083247   161A      1.146374   162A      2.174928  
     163A      2.252233   164A      2.276303   165A      2.281711  
     166A      2.287727   167A      2.292825   168A      2.307477  
     169A      2.311974   170A      2.320386   171A      2.351492  
     172A      2.363546   173A      2.366451   174A      2.407358  
     175A      2.421265   176A      2.457537   177A      4.028445  

    Final Occupation by Irrep:
              A 
    DOCC [    36 ]
    NA   [    36 ]
    NB   [    36 ]

  @DF-RHF Final Energy: -3770.77037960268626

   => Energetics <=

    Nuclear Repulsion Energy =            265.0239181947612224
    One-Electron Energy =               -5754.5885265393953887
    Two-Electron Energy =                1718.7942287419482454
    Total Energy =                      -3770.7703796026862619

Computation Completed


Properties will be evaluated at   0.000000,   0.000000,   0.000000 [a0]

Properties computed using the SCF density matrix


 Multipole Moments:

 ------------------------------------------------------------------------------------
     Multipole            Electronic (a.u.)      Nuclear  (a.u.)        Total (a.u.)
 ------------------------------------------------------------------------------------

 L = 1.  Multiply by 2.5417464519 to convert [e a0] to [Debye]
 Dipole X            :       -124.0902434          130.1660174            6.0757739
 Dipole Y            :        -95.7962121          100.1277057            4.3314935
 Dipole Z            :         -0.0000000            0.0000000           -0.0000000
 Magnitude           :                                                    7.4616932

 ------------------------------------------------------------------------------------

*** tstop() called on moses-razer at Wed Jan  3 22:16:10 2024
Module time:
	user time   =      26.74 seconds =       0.45 minutes
	system time =       2.89 seconds =       0.05 minutes
	total time  =         18 seconds =       0.30 minutes
Total time:
	user time   =      26.74 seconds =       0.45 minutes
	system time =       2.89 seconds =       0.05 minutes
	total time  =         18 seconds =       0.30 minutes

  //>>>>>>>>>>>>>>>>>>>>>>>>>>>>>>>>>>>//
  //            Monomer A HF           //
  //<<<<<<<<<<<<<<<<<<<<<<<<<<<<<<<<<<<//

   => Libint2 <=

    Primary   basis highest AM E, G, H:  5, 4, 3
    Auxiliary basis highest AM E, G, H:  6, 5, 4
    Onebody   basis highest AM E, G, H:  6, 5, 4
    Solid Harmonics ordering:            gaussian

*** tstart() called on moses-razer
*** at Wed Jan  3 22:16:10 2024

   => Loading Basis Set <=

    Name: AUG-CC-PVTZ
    Role: ORBITAL
    Keyword: BASIS
    atoms 1   entry BR         line  4564 file /home/kchung25/anaconda3/envs/p415env/share/psi4/basis/aug-cc-pvtz.gbs 
    atoms 2-3 entry K          line  1152 file /home/kchung25/anaconda3/envs/p415env/share/psi4/basis/aug-cc-pvtz.gbs 


         ---------------------------------------------------------
                                   SCF
               by Justin Turney, Rob Parrish, Andy Simmonett
                          and Daniel G. A. Smith
                              RHF Reference
                        6 Threads,  57220 MiB Core
         ---------------------------------------------------------

  ==> Geometry <==

    Molecular point group: c1
    Full point group: Cs

    Geometry (in Angstrom), charge = 0, multiplicity = 1:

       Center              X                  Y                   Z               Mass       
    ------------   -----------------  -----------------  -----------------  -----------------
         BR           0.000000000000     0.000000000000     0.000000000000    78.918337600000
         K            0.000000000000     2.788700000000     0.000000000000    38.963706486400
      Gh(K)           3.625310000000     0.000000000000     0.000000000000    38.963706486400

  Running in c1 symmetry.

  Rotational constants: A =      0.05563  B =      0.03292  C =      0.02068 [cm^-1]
  Rotational constants: A =   1667.83600  B =    986.88520  C =    620.01338 [MHz]
  Nuclear repulsion =  126.188849677466209

  Charge       = 0
  Multiplicity = 1
  Electrons    = 54
  Nalpha       = 27
  Nbeta        = 27

  ==> Algorithm <==

  SCF Algorithm Type is DF.
  DIIS enabled.
  MOM disabled.
  Fractional occupation disabled.
  Guess Type is SAD.
  Energy threshold   = 1.00e-08
  Density threshold  = 1.00e-08
  Integral threshold = 1.00e-12

  ==> Primary Basis <==

  Basis Set: AUG-CC-PVTZ
    Blend: AUG-CC-PVTZ
    Number of shells: 57
    Number of basis functions: 177
    Number of Cartesian functions: 207
    Spherical Harmonics?: true
    Max angular momentum: 3

   => Loading Basis Set <=

    Name: (AUG-CC-PVTZ AUX)
    Role: JKFIT
    Keyword: DF_BASIS_SCF
    atoms 1   entry BR         line  1492 file /home/kchung25/anaconda3/envs/p415env/share/psi4/basis/aug-cc-pvtz-jkfit.gbs 
    atoms 2-3 entry K          line  1152 file /home/kchung25/anaconda3/envs/p415env/share/psi4/basis/def2-universal-jkfit.gbs 

  ==> Integral Setup <==

  ==> DiskDFJK: Density-Fitted J/K Matrices <==

    J tasked:                  Yes
    K tasked:                  Yes
    wK tasked:                  No
    OpenMP threads:              6
    Integrals threads:           6
    Memory [MiB]:            42915
    Algorithm:                Core
    Integral Cache:           LOAD
    Schwarz Cutoff:          1E-12
    Fitting Condition:       1E-10

   => Auxiliary Basis Set <=

  Basis Set: (AUG-CC-PVTZ AUX)
    Blend: AUG-CC-PVTZ-JKFIT + DEF2-UNIVERSAL-JKFIT
    Number of shells: 146
    Number of basis functions: 568
    Number of Cartesian functions: 735
    Spherical Harmonics?: true
    Max angular momentum: 4

  Minimum eigenvalue in the overlap matrix is 1.9246978404E-05.
  Reciprocal condition number of the overlap matrix is 2.3571769351E-06.
    Using symmetric orthogonalization.

  ==> Pre-Iterations <==

  SCF Guess: Superposition of Atomic Densities via on-the-fly atomic UHF (no occupation information).

   -------------------------
    Irrep   Nso     Nmo    
   -------------------------
     A        177     177 
   -------------------------
    Total     177     177
   -------------------------

  ==> Iterations <==

                           Total Energy        Delta E     RMS |[F,P]|

   @DF-RHF iter SAD: -3169.53441506168156   -3.16953e+03   0.00000e+00 
   @DF-RHF iter   1: -3171.44546678098732   -1.91105e+00   5.99283e-03 ADIIS/DIIS
   @DF-RHF iter   2: -3171.65672628430593   -2.11260e-01   3.24610e-03 ADIIS/DIIS
   @DF-RHF iter   3: -3171.72012329960080   -6.33970e-02   5.69812e-05 DIIS
   @DF-RHF iter   4: -3171.72018633130392   -6.30317e-05   1.38473e-05 DIIS
   @DF-RHF iter   5: -3171.72019119492188   -4.86362e-06   3.62561e-06 DIIS
   @DF-RHF iter   6: -3171.72019160633317   -4.11411e-07   7.97426e-07 DIIS
   @DF-RHF iter   7: -3171.72019164608218   -3.97490e-08   1.07888e-07 DIIS
   @DF-RHF iter   8: -3171.72019164694302   -8.60837e-10   1.88062e-08 DIIS
   @DF-RHF iter   9: -3171.72019164697258   -2.95586e-11   3.41164e-09 DIIS
  Energy and wave function converged.


  ==> Post-Iterations <==

    Orbital Energies [Eh]
    ---------------------

    Doubly Occupied:                                                      

       1A   -489.892459     2A   -133.531866     3A    -65.033093  
       4A    -58.387546     5A    -58.387545     6A    -58.387491  
       7A    -14.489474     8A    -11.519189     9A    -11.519175  
      10A    -11.519162    11A     -9.705920    12A     -7.313506  
      13A     -7.313274    14A     -7.313272    15A     -3.055015  
      16A     -3.054937    17A     -3.054934    18A     -3.054898  
      19A     -3.054894    20A     -1.752007    21A     -0.965792  
      22A     -0.961087    23A     -0.961051    24A     -0.860432  
      25A     -0.326752    26A     -0.316323    27A     -0.316298  

    Virtual:                                                              

      28A     -0.015296    29A      0.003481    30A      0.003657  
      31A      0.004664    32A      0.008609    33A      0.012466  
      34A      0.013392    35A      0.014467    36A      0.018758  
      37A      0.019016    38A      0.020939    39A      0.021597  
      40A      0.021894    41A      0.023643    42A      0.023872  
      43A      0.026509    44A      0.026779    45A      0.028850  
      46A      0.031791    47A      0.032563    48A      0.036812  
      49A      0.039596    50A      0.046953    51A      0.047530  
      52A      0.055697    53A      0.056047    54A      0.056414  
      55A      0.064064    56A      0.065571    57A      0.068095  
      58A      0.072525    59A      0.073368    60A      0.076044  
      61A      0.079088    62A      0.080443    63A      0.087834  
      64A      0.089734    65A      0.094493    66A      0.102413  
      67A      0.111642    68A      0.122248    69A      0.122806  
      70A      0.128880    71A      0.130112    72A      0.138226  
      73A      0.139532    74A      0.142840    75A      0.151343  
      76A      0.154375    77A      0.157585    78A      0.161975  
      79A      0.164606    80A      0.166282    81A      0.169544  
      82A      0.181190    83A      0.184510    84A      0.189267  
      85A      0.190539    86A      0.193934    87A      0.201388  
      88A      0.201950    89A      0.205848    90A      0.216070  
      91A      0.218423    92A      0.222461    93A      0.242933  
      94A      0.252669    95A      0.261639    96A      0.265040  
      97A      0.276373    98A      0.281054    99A      0.284365  
     100A      0.304035   101A      0.316230   102A      0.338888  
     103A      0.344503   104A      0.361544   105A      0.387334  
     106A      0.387924   107A      0.398912   108A      0.404699  
     109A      0.405951   110A      0.409261   111A      0.418986  
     112A      0.419606   113A      0.426815   114A      0.444860  
     115A      0.453805   116A      0.459644   117A      0.462006  
     118A      0.481753   119A      0.482707   120A      0.490304  
     121A      0.498560   122A      0.503834   123A      0.508069  
     124A      0.529676   125A      0.536627   126A      0.548749  
     127A      0.556683   128A      0.558050   129A      0.596014  
     130A      0.692916   131A      0.703572   132A      0.753196  
     133A      0.833107   134A      0.902810   135A      0.941958  
     136A      0.947325   137A      0.971808   138A      0.990447  
     139A      1.084967   140A      1.101875   141A      1.102299  
     142A      1.108055   143A      1.127749   144A      1.156960  
     145A      1.173880   146A      1.206648   147A      1.263028  
     148A      1.749062   149A      1.879271   150A      1.907237  
     151A      1.947642   152A      1.958472   153A      2.013469  
     154A      2.053170   155A      2.142181   156A      2.212600  
     157A      2.317763   158A      2.402045   159A      2.418973  
     160A      2.431006   161A      2.436255   162A      2.439201  
     163A      2.455302   164A      2.458872   165A      2.475570  
     166A      2.504541   167A      2.509816   168A      2.520579  
     169A      2.549173   170A      2.570241   171A      2.702336  
     172A      4.176217   173A      9.949834   174A     30.284584  
     175A     30.326019   176A     30.564242   177A    197.286285  

    Final Occupation by Irrep:
              A 
    DOCC [    27 ]
    NA   [    27 ]
    NB   [    27 ]

  @DF-RHF Final Energy: -3171.72019164697258

   => Energetics <=

    Nuclear Repulsion Energy =            126.1888496774662087
    One-Electron Energy =               -4663.7232953309357981
    Two-Electron Energy =                1365.8142540064970945
    Total Energy =                      -3171.7201916469721255

Computation Completed


Properties will be evaluated at   0.000000,   0.000000,   0.000000 [a0]

Properties computed using the SCF density matrix


 Multipole Moments:

 ------------------------------------------------------------------------------------
     Multipole            Electronic (a.u.)      Nuclear  (a.u.)        Total (a.u.)
 ------------------------------------------------------------------------------------

 L = 1.  Multiply by 2.5417464519 to convert [e a0] to [Debye]
 Dipole X            :          0.0005196            0.0000000            0.0005196
 Dipole Y            :        -95.8604367          100.1277057            4.2672689
 Dipole Z            :         -0.0000000            0.0000000           -0.0000000
 Magnitude           :                                                    4.2672690

 ------------------------------------------------------------------------------------

*** tstop() called on moses-razer at Wed Jan  3 22:16:26 2024
Module time:
	user time   =      23.27 seconds =       0.39 minutes
	system time =       2.58 seconds =       0.04 minutes
	total time  =         16 seconds =       0.27 minutes
Total time:
	user time   =      50.03 seconds =       0.83 minutes
	system time =       5.47 seconds =       0.09 minutes
	total time  =         34 seconds =       0.57 minutes

  //>>>>>>>>>>>>>>>>>>>>>>>>>>>>>>>>>>>//
  //            Monomer B HF           //
  //<<<<<<<<<<<<<<<<<<<<<<<<<<<<<<<<<<<//

   => Libint2 <=

    Primary   basis highest AM E, G, H:  5, 4, 3
    Auxiliary basis highest AM E, G, H:  6, 5, 4
    Onebody   basis highest AM E, G, H:  6, 5, 4
    Solid Harmonics ordering:            gaussian

*** tstart() called on moses-razer
*** at Wed Jan  3 22:16:26 2024

   => Loading Basis Set <=

    Name: AUG-CC-PVTZ
    Role: ORBITAL
    Keyword: BASIS
    atoms 1   entry BR         line  4564 file /home/kchung25/anaconda3/envs/p415env/share/psi4/basis/aug-cc-pvtz.gbs 
    atoms 2-3 entry K          line  1152 file /home/kchung25/anaconda3/envs/p415env/share/psi4/basis/aug-cc-pvtz.gbs 


         ---------------------------------------------------------
                                   SCF
               by Justin Turney, Rob Parrish, Andy Simmonett
                          and Daniel G. A. Smith
                              RHF Reference
                        6 Threads,  57220 MiB Core
         ---------------------------------------------------------

  ==> Geometry <==

    Molecular point group: c1
    Full point group: Cs

    Geometry (in Angstrom), charge = 1, multiplicity = 1:

       Center              X                  Y                   Z               Mass       
    ------------   -----------------  -----------------  -----------------  -----------------
      Gh(BR)          0.000000000000     0.000000000000     0.000000000000    78.918337600000
      Gh(K)           0.000000000000     2.788700000000     0.000000000000    38.963706486400
         K            3.625310000000     0.000000000000     0.000000000000    38.963706486400

  Running in c1 symmetry.

  Rotational constants: A =      0.05563  B =      0.03292  C =      0.02068 [cm^-1]
  Rotational constants: A =   1667.83600  B =    986.88520  C =    620.01338 [MHz]
  Nuclear repulsion =    0.000000000000000

  Charge       = 1
  Multiplicity = 1
  Electrons    = 18
  Nalpha       = 9
  Nbeta        = 9

  ==> Algorithm <==

  SCF Algorithm Type is DF.
  DIIS enabled.
  MOM disabled.
  Fractional occupation disabled.
  Guess Type is SAD.
  Energy threshold   = 1.00e-08
  Density threshold  = 1.00e-08
  Integral threshold = 1.00e-12

  ==> Primary Basis <==

  Basis Set: AUG-CC-PVTZ
    Blend: AUG-CC-PVTZ
    Number of shells: 57
    Number of basis functions: 177
    Number of Cartesian functions: 207
    Spherical Harmonics?: true
    Max angular momentum: 3

   => Loading Basis Set <=

    Name: (AUG-CC-PVTZ AUX)
    Role: JKFIT
    Keyword: DF_BASIS_SCF
    atoms 1   entry BR         line  1492 file /home/kchung25/anaconda3/envs/p415env/share/psi4/basis/aug-cc-pvtz-jkfit.gbs 
    atoms 2-3 entry K          line  1152 file /home/kchung25/anaconda3/envs/p415env/share/psi4/basis/def2-universal-jkfit.gbs 

  ==> Integral Setup <==

  ==> DiskDFJK: Density-Fitted J/K Matrices <==

    J tasked:                  Yes
    K tasked:                  Yes
    wK tasked:                  No
    OpenMP threads:              6
    Integrals threads:           6
    Memory [MiB]:            42915
    Algorithm:                Core
    Integral Cache:           LOAD
    Schwarz Cutoff:          1E-12
    Fitting Condition:       1E-10

   => Auxiliary Basis Set <=

  Basis Set: (AUG-CC-PVTZ AUX)
    Blend: AUG-CC-PVTZ-JKFIT + DEF2-UNIVERSAL-JKFIT
    Number of shells: 146
    Number of basis functions: 568
    Number of Cartesian functions: 735
    Spherical Harmonics?: true
    Max angular momentum: 4

  Minimum eigenvalue in the overlap matrix is 1.9246978404E-05.
  Reciprocal condition number of the overlap matrix is 2.3571769351E-06.
    Using symmetric orthogonalization.

  ==> Pre-Iterations <==

  SCF Guess: Superposition of Atomic Densities via on-the-fly atomic UHF (no occupation information).

   -------------------------
    Irrep   Nso     Nmo    
   -------------------------
     A        177     177 
   -------------------------
    Total     177     177
   -------------------------

  ==> Iterations <==

                           Total Energy        Delta E     RMS |[F,P]|

   @DF-RHF iter SAD:  -599.05151991919365   -5.99052e+02   0.00000e+00 
   @DF-RHF iter   1:  -599.01748403517502    3.40359e-02   3.36805e-05 DIIS
   @DF-RHF iter   2:  -599.01750745491063   -2.34197e-05   4.72460e-06 DIIS
   @DF-RHF iter   3:  -599.01750801612661   -5.61216e-07   3.38237e-07 DIIS
   @DF-RHF iter   4:  -599.01750801843264   -2.30602e-09   4.48837e-08 DIIS
   @DF-RHF iter   5:  -599.01750801847652   -4.38831e-11   1.01859e-08 DIIS
   @DF-RHF iter   6:  -599.01750801847959   -3.06954e-12   2.23508e-09 DIIS
  Energy and wave function converged.


  ==> Post-Iterations <==

    Orbital Energies [Eh]
    ---------------------

    Doubly Occupied:                                                      

       1A   -133.753639     2A    -14.709115     3A    -11.739180  
       4A    -11.739176     5A    -11.739175     6A     -1.964326  
       7A     -1.170946     8A     -1.170910     9A     -1.170902  

    Virtual:                                                              

      10A     -0.146973    11A     -0.095559    12A     -0.095554  
      13A     -0.095553    14A     -0.060908    15A     -0.057897  
      16A     -0.057878    17A     -0.057822    18A     -0.057754  
      19A     -0.057742    20A     -0.045543    21A     -0.045537  
      22A     -0.045536    23A     -0.032442    24A     -0.032314  
      25A     -0.032280    26A     -0.031298    27A     -0.031269  
      28A     -0.031080    29A     -0.029825    30A     -0.029795  
      31A     -0.029050    32A     -0.027922    33A     -0.027863  
      34A     -0.022698    35A     -0.019008    36A     -0.018788  
      37A     -0.015950    38A     -0.015893    39A     -0.012458  
      40A     -0.010229    41A     -0.009962    42A     -0.005978  
      43A     -0.004663    44A     -0.004254    45A     -0.000810  
      46A      0.008425    47A      0.009891    48A      0.011164  
      49A      0.012603    50A      0.014333    51A      0.016403  
      52A      0.017482    53A      0.017808    54A      0.019210  
      55A      0.019485    56A      0.026676    57A      0.027433  
      58A      0.030432    59A      0.034256    60A      0.036091  
      61A      0.051133    62A      0.055668    63A      0.058882  
      64A      0.067103    65A      0.068339    66A      0.069375  
      67A      0.074108    68A      0.081661    69A      0.083915  
      70A      0.089495    71A      0.099639    72A      0.099814  
      73A      0.104756    74A      0.111562    75A      0.116088  
      76A      0.120402    77A      0.123232    78A      0.127652  
      79A      0.147805    80A      0.153736    81A      0.154583  
      82A      0.159341    83A      0.180079    84A      0.193123  
      85A      0.201696    86A      0.215842    87A      0.219305  
      88A      0.228062    89A      0.231010    90A      0.238904  
      91A      0.241110    92A      0.247416    93A      0.251527  
      94A      0.259024    95A      0.267938    96A      0.279620  
      97A      0.283771    98A      0.287353    99A      0.298789  
     100A      0.299255   101A      0.311369   102A      0.343675  
     103A      0.351685   104A      0.366702   105A      0.375003  
     106A      0.376864   107A      0.387402   108A      0.399818  
     109A      0.410431   110A      0.415935   111A      0.418643  
     112A      0.436009   113A      0.453673   114A      0.464224  
     115A      0.475337   116A      0.573173   117A      0.881827  
     118A      0.906055   119A      0.929206   120A      0.948868  
     121A      0.949204   122A      0.965915   123A      0.972660  
     124A      0.989846   125A      0.998982   126A      1.019462  
     127A      1.024801   128A      1.052415   129A      1.099418  
     130A      1.104640   131A      1.125963   132A      1.147558  
     133A      1.191347   134A      1.742990   135A      1.784692  
     136A      1.814249   137A      1.868714   138A      1.900126  
     139A      2.005404   140A      2.097935   141A      2.173154  
     142A      2.404568   143A      2.780867   144A      2.867267  
     145A      2.876185   146A      3.023218   147A      3.029850  
     148A      3.032061   149A      3.043782   150A      3.063894  
     151A      3.103268   152A      3.119769   153A      3.145768  
     154A      3.224225   155A      3.252102   156A      3.262746  
     157A      3.275531   158A      3.357387   159A      9.539294  
     160A      9.983106   161A     13.376699   162A     13.472111  
     163A     13.489454   164A     26.057336   165A     26.059795  
     166A     26.078381   167A     26.100147   168A     26.117810  
     169A     30.148469   170A     30.245597   171A     30.513336  
     172A     45.452853   173A    138.363603   174A    138.501960  
     175A    138.544434   176A    197.414407   177A    708.825422  

    Final Occupation by Irrep:
              A 
    DOCC [     9 ]
    NA   [     9 ]
    NB   [     9 ]

  @DF-RHF Final Energy:  -599.01750801847959

   => Energetics <=

    Nuclear Repulsion Energy =              0.0000000000000000
    One-Electron Energy =                -819.7202763625440411
    Two-Electron Energy =                 220.7027683440644523
    Total Energy =                       -599.0175080184795888

Computation Completed


Properties will be evaluated at   0.000000,   0.000000,   0.000000 [a0]

Properties computed using the SCF density matrix


 Multipole Moments:

 ------------------------------------------------------------------------------------
     Multipole            Electronic (a.u.)      Nuclear  (a.u.)        Total (a.u.)
 ------------------------------------------------------------------------------------

 L = 1.  Multiply by 2.5417464519 to convert [e a0] to [Debye]
 Dipole X            :       -123.3155471          130.1660174            6.8504703
 Dipole Y            :          0.0000873            0.0000000            0.0000873
 Dipole Z            :         -0.0000000            0.0000000           -0.0000000
 Magnitude           :                                                    6.8504703

 ------------------------------------------------------------------------------------

*** tstop() called on moses-razer at Wed Jan  3 22:16:42 2024
Module time:
	user time   =      19.98 seconds =       0.33 minutes
	system time =       2.04 seconds =       0.03 minutes
	total time  =         16 seconds =       0.27 minutes
Total time:
	user time   =      70.03 seconds =       1.17 minutes
	system time =       7.52 seconds =       0.13 minutes
	total time  =         50 seconds =       0.83 minutes
  Constructing Basis Sets for SAPT...

   => Loading Basis Set <=

    Name: (AUG-CC-PVTZ AUX)
    Role: RIFIT
    Keyword: DF_BASIS_SAPT
    atoms 1   entry BR         line  1248 file /home/kchung25/anaconda3/envs/p415env/share/psi4/basis/aug-cc-pvtz-ri.gbs 
    atoms 2-3 entry K          line  1282 file /home/kchung25/anaconda3/envs/p415env/share/psi4/basis/def2-qzvpp-ri.gbs 

   => Loading Basis Set <=

    Name: (AUG-CC-PVTZ AUX)
    Role: JKFIT
    Keyword: DF_BASIS_ELST
    atoms 1   entry BR         line  1492 file /home/kchung25/anaconda3/envs/p415env/share/psi4/basis/aug-cc-pvtz-jkfit.gbs 
    atoms 2-3 entry K          line  1152 file /home/kchung25/anaconda3/envs/p415env/share/psi4/basis/def2-universal-jkfit.gbs 


  //>>>>>>>>>>>>>>>>>>>>>>>>>>>>>>>>>>>//
  //               SAPT2+              //
  //<<<<<<<<<<<<<<<<<<<<<<<<<<<<<<<<<<<//


*** tstart() called on moses-razer
*** at Wed Jan  3 22:16:42 2024

        SAPT2+  
    Ed Hohenstein
     6 June 2009

      Orbital Information
  --------------------------
    NSO        =       177
    NMO        =       177
    NRI        =       589
    NOCC A     =        27
    NOCC B     =         9
    FOCC A     =         0
    FOCC B     =         0
    NVIR A     =       150
    NVIR B     =       168

    Estimated memory usage: 626.8 MB

    Natural Orbital Cutoff:   1.000E-06
    Disp(T3) Truncation:            Yes
    CCD (vv|vv) Truncation:         Yes
    MBPT T2 Truncation:             Yes

    Monomer A: 75 virtual orbitals dropped
    Monomer B: 143 virtual orbitals dropped

    Elst10,r            =    -0.028637207819 [Eh]
    Exch10 (S^2)        =     0.004640170007 [Eh]
    Exch10              =     0.004651397496 [Eh]
    Ind20,r (A<-B)      =    -0.017723463960 [Eh]
    Ind20,r (B<-A)      =    -0.000325182548 [Eh]
    Ind20,r             =    -0.018048646508 [Eh]
    Exch-Ind20,r (A<-B) =     0.009423631674 [Eh]
    Exch-Ind20,r (B<-A) =     0.000010281961 [Eh]
    Exch-Ind20,r        =     0.009433913635 [Eh]
    Disp20              =    -0.001676462821 [Eh]
    Disp20 (NO)         =    -0.001535679523 [Eh]
    Exch-Disp20         =     0.000207173312 [Eh]
    Elst12,r            =     0.000032867587 [Eh]
    Exch11              =     0.000016758570 [Eh]
    Exch12              =     0.000343529729 [Eh]
    Ind22               =    -0.001718476761 [Eh]
    Disp21              =     0.000331087298 [Eh]
    Disp22 (SDQ)        =    -0.000018175851 [Eh]

    (i =   1 of   9)          1 seconds
    (i =   2 of   9)          3 seconds
    (i =   3 of   9)          5 seconds
    (i =   4 of   9)          6 seconds
    (i =   5 of   9)          8 seconds
    (i =   6 of   9)          9 seconds
    (i =   7 of   9)         11 seconds
    (i =   8 of   9)         12 seconds
    (i =   9 of   9)         14 seconds

    Disp220 (T)         =    -0.000112568318 [Eh]

    (i =   1 of  27)          0 seconds
    (i =   2 of  27)          0 seconds
    (i =   3 of  27)          0 seconds
    (i =   4 of  27)          0 seconds
    (i =   5 of  27)          0 seconds
    (i =   6 of  27)          0 seconds
    (i =   7 of  27)          0 seconds
    (i =   8 of  27)          0 seconds
    (i =   9 of  27)          0 seconds
    (i =  10 of  27)          0 seconds
    (i =  11 of  27)          0 seconds
    (i =  12 of  27)          0 seconds
    (i =  13 of  27)          0 seconds
    (i =  14 of  27)          0 seconds
    (i =  15 of  27)          0 seconds
    (i =  16 of  27)          0 seconds
    (i =  17 of  27)          0 seconds
    (i =  18 of  27)          1 seconds
    (i =  19 of  27)          1 seconds
    (i =  20 of  27)          1 seconds
    (i =  21 of  27)          1 seconds
    (i =  22 of  27)          1 seconds
    (i =  23 of  27)          1 seconds
    (i =  24 of  27)          1 seconds
    (i =  25 of  27)          1 seconds
    (i =  26 of  27)          1 seconds
    (i =  27 of  27)          1 seconds

    Disp202 (T)         =    -0.000045608262 [Eh]

    Disp22 (T)          =    -0.000158176581 [Eh]

    Est. Disp220 (T)    =    -0.000122888010 [Eh]
    Est. Disp202 (T)    =    -0.000049789396 [Eh]

    Est. Disp22 (T)     =    -0.000172677406 [Eh]

    SAPT Results 
  --------------------------------------------------------------------------------------------------------
    Electrostatics                -28.60434023 [mEh]     -17.94949449 [kcal/mol]     -75.10068493 [kJ/mol]
      Elst10,r                    -28.63720782 [mEh]     -17.97011921 [kcal/mol]     -75.18697877 [kJ/mol]
      Elst12,r                      0.03286759 [mEh]       0.02062472 [kcal/mol]       0.08629384 [kJ/mol]

    Exchange                        5.01168579 [mEh]       3.14488032 [kcal/mol]      13.15817924 [kJ/mol]
      Exch10                        4.65139750 [mEh]       2.91879600 [kcal/mol]      12.21224244 [kJ/mol]
      Exch10(S^2)                   4.64017001 [mEh]       2.91175064 [kcal/mol]      12.18276468 [kJ/mol]
      Exch11(S^2)                   0.01675857 [mEh]       0.01051616 [kcal/mol]       0.04399962 [kJ/mol]
      Exch12(S^2)                   0.34352973 [mEh]       0.21556816 [kcal/mol]       0.90193718 [kJ/mol]

    Induction                      -9.51436671 [mEh]      -5.97035525 [kcal/mol]     -24.97996636 [kJ/mol]
      Ind20,r                     -18.04864651 [mEh]     -11.32569667 [kcal/mol]     -47.38671488 [kJ/mol]
      Ind22                        -1.71847676 [mEh]      -1.07836045 [kcal/mol]      -4.51186011 [kJ/mol]
      Exch-Ind20,r                  9.43391364 [mEh]       5.91987018 [kcal/mol]      24.76873684 [kJ/mol]
      Exch-Ind22                    0.89823696 [mEh]       0.56365220 [kcal/mol]       2.35832081 [kJ/mol]
      delta HF,r (2)               -0.07939404 [mEh]      -0.04982051 [kcal/mol]      -0.20844902 [kJ/mol]

    Dispersion                     -1.32905547 [mEh]      -0.83399490 [kcal/mol]      -3.48943465 [kJ/mol]
      Disp20                       -1.67646282 [mEh]      -1.05199630 [kcal/mol]      -4.40155253 [kJ/mol]
      Disp21                        0.33108730 [mEh]       0.20776042 [kcal/mol]       0.86926958 [kJ/mol]
      Disp22 (SDQ)                 -0.01817585 [mEh]      -0.01140552 [kcal/mol]      -0.04772069 [kJ/mol]
      Disp22 (T)                   -0.15817658 [mEh]      -0.09925730 [kcal/mol]      -0.41529256 [kJ/mol]
      Est. Disp22 (T)              -0.17267741 [mEh]      -0.10835671 [kcal/mol]      -0.45336447 [kJ/mol]
      Exch-Disp20                   0.20717331 [mEh]       0.13000322 [kcal/mol]       0.54393346 [kJ/mol]

  Total HF                        -32.67993723 [mEh]     -20.50697022 [kcal/mol]     -85.80116339 [kJ/mol]
  Total SAPT0                     -34.14922674 [mEh]     -21.42896330 [kcal/mol]     -89.65878246 [kJ/mol]
  Total SAPT2                     -34.57631066 [mEh]     -21.69696251 [kcal/mol]     -90.78009113 [kJ/mol]
  Total SAPT2+                    -34.43607662 [mEh]     -21.60896432 [kcal/mol]     -90.41190670 [kJ/mol]

  Special recipe for scaled SAPT0 (see Manual):
    Electrostatics sSAPT0         -28.63720782 [mEh]     -17.97011921 [kcal/mol]     -75.18697877 [kJ/mol]
    Exchange sSAPT0                 4.65139750 [mEh]       2.91879600 [kcal/mol]      12.21224244 [kJ/mol]
    Induction sSAPT0               -8.62548137 [mEh]      -5.41257128 [kcal/mol]     -22.64619823 [kJ/mol]
    Dispersion sSAPT0              -1.46778202 [mEh]      -0.92104712 [kcal/mol]      -3.85366116 [kJ/mol]
  Total sSAPT0                    -34.07907372 [mEh]     -21.38494161 [kcal/mol]     -89.47459572 [kJ/mol]
  --------------------------------------------------------------------------------------------------------

*** tstop() called on moses-razer at Wed Jan  3 22:18:04 2024
Module time:
	user time   =     262.64 seconds =       4.38 minutes
	system time =       6.69 seconds =       0.11 minutes
	total time  =         82 seconds =       1.37 minutes
Total time:
	user time   =     333.12 seconds =       5.55 minutes
	system time =      14.21 seconds =       0.24 minutes
	total time  =        132 seconds =       2.20 minutes

    Psi4 stopped on: Wednesday, 03 January 2024 10:18PM
    Psi4 wall time for execution: 0:02:12.02

*** Psi4 exiting successfully. Buy a developer a beer!
