
    -----------------------------------------------------------------------
          Psi4: An Open-Source Ab Initio Electronic Structure Package
                               Psi4 1.9 release

                         Git: Rev {} zzzzzzz 


    D. G. A. Smith, L. A. Burns, A. C. Simmonett, R. M. Parrish,
    M. C. Schieber, R. Galvelis, P. Kraus, H. Kruse, R. Di Remigio,
    A. Alenaizan, A. M. James, S. Lehtola, J. P. Misiewicz, M. Scheurer,
    R. A. Shaw, J. B. Schriber, Y. Xie, Z. L. Glick, D. A. Sirianni,
    J. S. O'Brien, J. M. Waldrop, A. Kumar, E. G. Hohenstein,
    B. P. Pritchard, B. R. Brooks, H. F. Schaefer III, A. Yu. Sokolov,
    K. Patkowski, A. E. DePrince III, U. Bozkaya, R. A. King,
    F. A. Evangelista, J. M. Turney, T. D. Crawford, C. D. Sherrill,
    J. Chem. Phys. 152(18) 184108 (2020). https://doi.org/10.1063/5.0006002

                            Additional Code Authors
    E. T. Seidl, C. L. Janssen, E. F. Valeev, M. L. Leininger,
    J. F. Gonthier, R. M. Richard, H. R. McAlexander, M. Saitow, X. Wang,
    P. Verma, M. H. Lechner, A. Jiang, S. Behnle, A. G. Heide,
    M. F. Herbst, and D. L. Poole

             Previous Authors, Complete List of Code Contributors,
                       and Citations for Specific Modules
    https://github.com/psi4/psi4/blob/master/codemeta.json
    https://github.com/psi4/psi4/graphs/contributors
    http://psicode.org/psi4manual/master/introduction.html#citing-psifour

    -----------------------------------------------------------------------


    Psi4 started on: Wednesday, 03 January 2024 11:12PM

    Process ID: 449167
    Host:       moses-razer
    PSIDATADIR: /home/kchung25/anaconda3/envs/psi4_19/share/psi4
    Memory:     500.0 MiB
    Threads:    6
    
  ==> Input File <==

--------------------------------------------------------------------------
MEMORY 60 GB

molecule dimer {
1 1
Li     0.000000     0.000000     0.000000
--
1 1
Li     3.040000     0.000000     0.000000

units ang
no_reorient
no_com
symmetry c1
}

set {
basis        aug-cc-pVTZ
scf_type     df
}

energy("sapt2+")
--------------------------------------------------------------------------

  Memory set to  55.879 GiB by Python driver.

Scratch directory: /scratch/
   => Loading Basis Set <=

    Name: AUG-CC-PVTZ
    Role: ORBITAL
    Keyword: BASIS
    atoms 1-2 entry LI         line    85 file /home/kchung25/anaconda3/envs/p415env/share/psi4/basis/aug-cc-pvtz.gbs 

   => Loading Basis Set <=

    Name: AUG-CC-PVTZ
    Role: ORBITAL
    Keyword: BASIS
    atoms 1-2 entry LI         line    85 file /home/kchung25/anaconda3/envs/p415env/share/psi4/basis/aug-cc-pvtz.gbs 


  //>>>>>>>>>>>>>>>>>>>>>>>>>>>>>>>>>>>//
  //              Dimer HF             //
  //<<<<<<<<<<<<<<<<<<<<<<<<<<<<<<<<<<<//

   => Libint2 <=

    Primary   basis highest AM E, G, H:  5, 4, 3
    Auxiliary basis highest AM E, G, H:  6, 5, 4
    Onebody   basis highest AM E, G, H:  6, 5, 4
    Solid Harmonics ordering:            gaussian

*** tstart() called on moses-razer
*** at Wed Jan  3 23:12:41 2024

   => Loading Basis Set <=

    Name: AUG-CC-PVTZ
    Role: ORBITAL
    Keyword: BASIS
    atoms 1-2 entry LI         line    85 file /home/kchung25/anaconda3/envs/p415env/share/psi4/basis/aug-cc-pvtz.gbs 


         ---------------------------------------------------------
                                   SCF
               by Justin Turney, Rob Parrish, Andy Simmonett
                          and Daniel G. A. Smith
                              RHF Reference
                        6 Threads,  57220 MiB Core
         ---------------------------------------------------------

  ==> Geometry <==

    Molecular point group: c1
    Full point group: C_inf_v

    Geometry (in Angstrom), charge = 2, multiplicity = 1:

       Center              X                  Y                   Z               Mass       
    ------------   -----------------  -----------------  -----------------  -----------------
         LI           0.000000000000     0.000000000000     0.000000000000     7.016003436600
         LI           3.040000000000     0.000000000000     0.000000000000     7.016003436600

  Running in c1 symmetry.

  Rotational constants: A = ************  B =      0.25999  C =      0.25999 [cm^-1]
  Rotational constants: A = ************  B =   7794.35602  C =   7794.35602 [MHz]
  Nuclear repulsion =    1.566643057904605

  Charge       = 2
  Multiplicity = 1
  Electrons    = 4
  Nalpha       = 2
  Nbeta        = 2

  ==> Algorithm <==

  SCF Algorithm Type is DF.
  DIIS enabled.
  MOM disabled.
  Fractional occupation disabled.
  Guess Type is SAD.
  Energy threshold   = 1.00e-08
  Density threshold  = 1.00e-08
  Integral threshold = 1.00e-12

  ==> Primary Basis <==

  Basis Set: AUG-CC-PVTZ
    Blend: AUG-CC-PVTZ
    Number of shells: 28
    Number of basis functions: 92
    Number of Cartesian functions: 110
    Spherical Harmonics?: true
    Max angular momentum: 3

   => Loading Basis Set <=

    Name: (AUG-CC-PVTZ AUX)
    Role: JKFIT
    Keyword: DF_BASIS_SCF
    atoms 1-2 entry LI         line    54 file /home/kchung25/anaconda3/envs/p415env/share/psi4/basis/def2-universal-jkfit.gbs 

  ==> Integral Setup <==

  ==> DiskDFJK: Density-Fitted J/K Matrices <==

    J tasked:                  Yes
    K tasked:                  Yes
    wK tasked:                  No
    OpenMP threads:              6
    Integrals threads:           6
    Memory [MiB]:            42915
    Algorithm:                Core
    Integral Cache:           SAVE
    Schwarz Cutoff:          1E-12
    Fitting Condition:       1E-10

   => Auxiliary Basis Set <=

  Basis Set: (AUG-CC-PVTZ AUX)
    Blend: DEF2-UNIVERSAL-JKFIT
    Number of shells: 34
    Number of basis functions: 102
    Number of Cartesian functions: 120
    Spherical Harmonics?: true
    Max angular momentum: 3

  Minimum eigenvalue in the overlap matrix is 9.4826893523E-05.
  Reciprocal condition number of the overlap matrix is 1.4833174879E-05.
    Using symmetric orthogonalization.

  ==> Pre-Iterations <==

  SCF Guess: Superposition of Atomic Densities via on-the-fly atomic UHF (no occupation information).

   -------------------------
    Irrep   Nso     Nmo    
   -------------------------
     A         92      92 
   -------------------------
    Total      92      92
   -------------------------

  ==> Iterations <==

                           Total Energy        Delta E     RMS |[F,P]|

   @DF-RHF iter SAD:   -14.64243292658983   -1.46424e+01   0.00000e+00 
   @DF-RHF iter   1:   -14.29876436047529    3.43669e-01   1.35305e-04 ADIIS/DIIS
   @DF-RHF iter   2:   -14.29882341262988   -5.90522e-05   1.86523e-05 DIIS
   @DF-RHF iter   3:   -14.29882459171758   -1.17909e-06   7.24708e-07 DIIS
   @DF-RHF iter   4:   -14.29882459348140   -1.76382e-09   3.38774e-08 DIIS
   @DF-RHF iter   5:   -14.29882459348550   -4.10871e-12   7.88124e-10 DIIS
  Energy and wave function converged.


  ==> Post-Iterations <==

    Orbital Energies [Eh]
    ---------------------

    Doubly Occupied:                                                      

       1A     -2.966411     2A     -2.966337  

    Virtual:                                                              

       3A     -0.416619     4A     -0.307671     5A     -0.307671  
       6A     -0.303341     7A     -0.273743     8A     -0.235091  
       9A     -0.235091    10A     -0.186059    11A     -0.174166  
      12A     -0.174166    13A     -0.165136    14A     -0.159685  
      15A     -0.159685    16A     -0.141011    17A     -0.136575  
      18A     -0.128446    19A     -0.128446    20A     -0.127316  
      21A     -0.127316    22A     -0.112002    23A     -0.112002  
      24A     -0.103657    25A     -0.096131    26A     -0.096131  
      27A     -0.088316    28A     -0.083270    29A     -0.081991  
      30A     -0.077196    31A     -0.077196    32A     -0.047679  
      33A     -0.042720    34A     -0.042720    35A     -0.033331  
      36A     -0.028156    37A     -0.028156    38A     -0.026719  
      39A     -0.026719    40A     -0.003319    41A     -0.003319  
      42A      0.010186    43A      0.020797    44A      0.026644  
      45A      0.026644    46A      0.036788    47A      0.036788  
      48A      0.042917    49A      0.042917    50A      0.076419  
      51A      0.079991    52A      0.079991    53A      0.082656  
      54A      0.082656    55A      0.084255    56A      0.124954  
      57A      0.124954    58A      0.126083    59A      0.126083  
      60A      0.127226    61A      0.135658    62A      0.135658  
      63A      0.231867    64A      0.279824    65A      0.279824  
      66A      0.334224    67A      0.334224    68A      0.335017  
      69A      0.335017    70A      0.357961    71A      0.367560  
      72A      0.367560    73A      0.370505    74A      0.418213  
      75A      0.418213    76A      0.423554    77A      0.423554  
      78A      0.438738    79A      0.438738    80A      0.469492  
      81A      0.469492    82A      0.471277    83A      0.482047  
      84A      0.501746    85A      0.501746    86A      0.508138  
      87A      0.508138    88A      0.586689    89A      0.586689  
      90A      0.594338    91A      2.341602    92A      2.864847  

    Final Occupation by Irrep:
              A 
    DOCC [     2 ]
    NA   [     2 ]
    NB   [     2 ]

  @DF-RHF Final Energy:   -14.29882459348550

   => Energetics <=

    Nuclear Repulsion Energy =              1.5666430579046053
    One-Electron Energy =                 -19.8654394158255378
    Two-Electron Energy =                   3.9999717644354287
    Total Energy =                        -14.2988245934855023

Computation Completed


Properties will be evaluated at   0.000000,   0.000000,   0.000000 [a0]

Properties computed using the SCF density matrix


 Multipole Moments:

 ------------------------------------------------------------------------------------
     Multipole            Electronic (a.u.)      Nuclear  (a.u.)        Total (a.u.)
 ------------------------------------------------------------------------------------

 L = 1.  Multiply by 2.5417464519 to convert [e a0] to [Debye]
 Dipole X            :        -11.4895348           17.2343023            5.7447674
 Dipole Y            :          0.0000000            0.0000000            0.0000000
 Dipole Z            :         -0.0000000            0.0000000           -0.0000000
 Magnitude           :                                                    5.7447674

 ------------------------------------------------------------------------------------

*** tstop() called on moses-razer at Wed Jan  3 23:12:41 2024
Module time:
	user time   =       2.31 seconds =       0.04 minutes
	system time =       0.16 seconds =       0.00 minutes
	total time  =          0 seconds =       0.00 minutes
Total time:
	user time   =       2.31 seconds =       0.04 minutes
	system time =       0.16 seconds =       0.00 minutes
	total time  =          0 seconds =       0.00 minutes

  //>>>>>>>>>>>>>>>>>>>>>>>>>>>>>>>>>>>//
  //            Monomer A HF           //
  //<<<<<<<<<<<<<<<<<<<<<<<<<<<<<<<<<<<//

   => Libint2 <=

    Primary   basis highest AM E, G, H:  5, 4, 3
    Auxiliary basis highest AM E, G, H:  6, 5, 4
    Onebody   basis highest AM E, G, H:  6, 5, 4
    Solid Harmonics ordering:            gaussian

*** tstart() called on moses-razer
*** at Wed Jan  3 23:12:41 2024

   => Loading Basis Set <=

    Name: AUG-CC-PVTZ
    Role: ORBITAL
    Keyword: BASIS
    atoms 1-2 entry LI         line    85 file /home/kchung25/anaconda3/envs/p415env/share/psi4/basis/aug-cc-pvtz.gbs 


         ---------------------------------------------------------
                                   SCF
               by Justin Turney, Rob Parrish, Andy Simmonett
                          and Daniel G. A. Smith
                              RHF Reference
                        6 Threads,  57220 MiB Core
         ---------------------------------------------------------

  ==> Geometry <==

    Molecular point group: c1
    Full point group: C_inf_v

    Geometry (in Angstrom), charge = 1, multiplicity = 1:

       Center              X                  Y                   Z               Mass       
    ------------   -----------------  -----------------  -----------------  -----------------
         LI           0.000000000000     0.000000000000     0.000000000000     7.016003436600
      Gh(LI)          3.040000000000     0.000000000000     0.000000000000     7.016003436600

  Running in c1 symmetry.

  Rotational constants: A = ************  B =      0.25999  C =      0.25999 [cm^-1]
  Rotational constants: A = ************  B =   7794.35602  C =   7794.35602 [MHz]
  Nuclear repulsion =    0.000000000000000

  Charge       = 1
  Multiplicity = 1
  Electrons    = 2
  Nalpha       = 1
  Nbeta        = 1

  ==> Algorithm <==

  SCF Algorithm Type is DF.
  DIIS enabled.
  MOM disabled.
  Fractional occupation disabled.
  Guess Type is SAD.
  Energy threshold   = 1.00e-08
  Density threshold  = 1.00e-08
  Integral threshold = 1.00e-12

  ==> Primary Basis <==

  Basis Set: AUG-CC-PVTZ
    Blend: AUG-CC-PVTZ
    Number of shells: 28
    Number of basis functions: 92
    Number of Cartesian functions: 110
    Spherical Harmonics?: true
    Max angular momentum: 3

   => Loading Basis Set <=

    Name: (AUG-CC-PVTZ AUX)
    Role: JKFIT
    Keyword: DF_BASIS_SCF
    atoms 1-2 entry LI         line    54 file /home/kchung25/anaconda3/envs/p415env/share/psi4/basis/def2-universal-jkfit.gbs 

  ==> Integral Setup <==

  ==> DiskDFJK: Density-Fitted J/K Matrices <==

    J tasked:                  Yes
    K tasked:                  Yes
    wK tasked:                  No
    OpenMP threads:              6
    Integrals threads:           6
    Memory [MiB]:            42915
    Algorithm:                Core
    Integral Cache:           LOAD
    Schwarz Cutoff:          1E-12
    Fitting Condition:       1E-10

   => Auxiliary Basis Set <=

  Basis Set: (AUG-CC-PVTZ AUX)
    Blend: DEF2-UNIVERSAL-JKFIT
    Number of shells: 34
    Number of basis functions: 102
    Number of Cartesian functions: 120
    Spherical Harmonics?: true
    Max angular momentum: 3

  Minimum eigenvalue in the overlap matrix is 9.4826893523E-05.
  Reciprocal condition number of the overlap matrix is 1.4833174879E-05.
    Using symmetric orthogonalization.

  ==> Pre-Iterations <==

  SCF Guess: Superposition of Atomic Densities via on-the-fly atomic UHF (no occupation information).

   -------------------------
    Irrep   Nso     Nmo    
   -------------------------
     A         92      92 
   -------------------------
    Total      92      92
   -------------------------

  ==> Iterations <==

                           Total Energy        Delta E     RMS |[F,P]|

   @DF-RHF iter SAD:    -7.31443104618066   -7.31443e+00   0.00000e+00 
   @DF-RHF iter   1:    -7.23638113640672    7.80499e-02   2.46822e-05 DIIS
   @DF-RHF iter   2:    -7.23638298939796   -1.85299e-06   2.70894e-06 DIIS
   @DF-RHF iter   3:    -7.23638301559422   -2.61963e-08   1.18413e-07 DIIS
   @DF-RHF iter   4:    -7.23638301563587   -4.16520e-11   4.19067e-10 DIIS
  Energy and wave function converged.


  ==> Post-Iterations <==

    Orbital Energies [Eh]
    ---------------------

    Doubly Occupied:                                                      

       1A     -2.792370  

    Virtual:                                                              

       2A     -0.196298     3A     -0.128599     4A     -0.128595  
       5A     -0.128595     6A     -0.073684     7A     -0.056624  
       8A     -0.056362     9A     -0.056362    10A     -0.052704  
      11A     -0.052704    12A     -0.052613    13A     -0.032624  
      14A     -0.032624    15A     -0.029125    16A     -0.025877  
      17A     -0.021432    18A     -0.021432    19A     -0.003967  
      20A     -0.003967    21A     -0.002000    22A      0.002893  
      23A      0.015326    24A      0.015326    25A      0.017240  
      26A      0.028199    27A      0.028199    28A      0.053433  
      29A      0.069803    30A      0.069803    31A      0.084310  
      32A      0.096712    33A      0.096712    34A      0.112454  
      35A      0.121720    36A      0.121720    37A      0.130419  
      38A      0.130419    39A      0.158140    40A      0.163897  
      41A      0.163897    42A      0.165116    43A      0.165116  
      44A      0.192409    45A      0.204046    46A      0.204046  
      47A      0.208034    48A      0.208034    49A      0.234261  
      50A      0.236957    51A      0.236957    52A      0.273190  
      53A      0.282366    54A      0.282366    55A      0.287229  
      56A      0.287229    57A      0.295434    58A      0.295434  
      59A      0.300442    60A      0.413036    61A      0.413036  
      62A      0.446621    63A      0.533991    64A      0.533991  
      65A      0.535999    66A      0.535999    67A      0.555716  
      68A      0.555716    69A      0.571488    70A      0.580609  
      71A      0.580609    72A      0.592893    73A      0.601008  
      74A      0.601008    75A      0.672725    76A      0.672725  
      77A      0.721262    78A      0.721262    79A      0.735109  
      80A      0.741506    81A      0.741506    82A      0.799829  
      83A      0.799829    84A      0.816958    85A      0.816958  
      86A      0.882545    87A      0.889703    88A      0.889703  
      89A      1.037061    90A      1.294691    91A      2.790928  
      92A     10.159303  

    Final Occupation by Irrep:
              A 
    DOCC [     1 ]
    NA   [     1 ]
    NB   [     1 ]

  @DF-RHF Final Energy:    -7.23638301563587

   => Energetics <=

    Nuclear Repulsion Energy =              0.0000000000000000
    One-Electron Energy =                  -8.8880256841940160
    Two-Electron Energy =                   1.6516426685581429
    Total Energy =                         -7.2363830156358731

Computation Completed


Properties will be evaluated at   0.000000,   0.000000,   0.000000 [a0]

Properties computed using the SCF density matrix


 Multipole Moments:

 ------------------------------------------------------------------------------------
     Multipole            Electronic (a.u.)      Nuclear  (a.u.)        Total (a.u.)
 ------------------------------------------------------------------------------------

 L = 1.  Multiply by 2.5417464519 to convert [e a0] to [Debye]
 Dipole X            :          0.0000612            0.0000000            0.0000612
 Dipole Y            :          0.0000000            0.0000000            0.0000000
 Dipole Z            :          0.0000000            0.0000000            0.0000000
 Magnitude           :                                                    0.0000612

 ------------------------------------------------------------------------------------

*** tstop() called on moses-razer at Wed Jan  3 23:12:41 2024
Module time:
	user time   =       1.80 seconds =       0.03 minutes
	system time =       0.02 seconds =       0.00 minutes
	total time  =          0 seconds =       0.00 minutes
Total time:
	user time   =       4.13 seconds =       0.07 minutes
	system time =       0.18 seconds =       0.00 minutes
	total time  =          0 seconds =       0.00 minutes

  //>>>>>>>>>>>>>>>>>>>>>>>>>>>>>>>>>>>//
  //            Monomer B HF           //
  //<<<<<<<<<<<<<<<<<<<<<<<<<<<<<<<<<<<//

   => Libint2 <=

    Primary   basis highest AM E, G, H:  5, 4, 3
    Auxiliary basis highest AM E, G, H:  6, 5, 4
    Onebody   basis highest AM E, G, H:  6, 5, 4
    Solid Harmonics ordering:            gaussian

*** tstart() called on moses-razer
*** at Wed Jan  3 23:12:41 2024

   => Loading Basis Set <=

    Name: AUG-CC-PVTZ
    Role: ORBITAL
    Keyword: BASIS
    atoms 1-2 entry LI         line    85 file /home/kchung25/anaconda3/envs/p415env/share/psi4/basis/aug-cc-pvtz.gbs 


         ---------------------------------------------------------
                                   SCF
               by Justin Turney, Rob Parrish, Andy Simmonett
                          and Daniel G. A. Smith
                              RHF Reference
                        6 Threads,  57220 MiB Core
         ---------------------------------------------------------

  ==> Geometry <==

    Molecular point group: c1
    Full point group: C_inf_v

    Geometry (in Angstrom), charge = 1, multiplicity = 1:

       Center              X                  Y                   Z               Mass       
    ------------   -----------------  -----------------  -----------------  -----------------
      Gh(LI)          0.000000000000     0.000000000000     0.000000000000     7.016003436600
         LI           3.040000000000     0.000000000000     0.000000000000     7.016003436600

  Running in c1 symmetry.

  Rotational constants: A = ************  B =      0.25999  C =      0.25999 [cm^-1]
  Rotational constants: A = ************  B =   7794.35602  C =   7794.35602 [MHz]
  Nuclear repulsion =    0.000000000000000

  Charge       = 1
  Multiplicity = 1
  Electrons    = 2
  Nalpha       = 1
  Nbeta        = 1

  ==> Algorithm <==

  SCF Algorithm Type is DF.
  DIIS enabled.
  MOM disabled.
  Fractional occupation disabled.
  Guess Type is SAD.
  Energy threshold   = 1.00e-08
  Density threshold  = 1.00e-08
  Integral threshold = 1.00e-12

  ==> Primary Basis <==

  Basis Set: AUG-CC-PVTZ
    Blend: AUG-CC-PVTZ
    Number of shells: 28
    Number of basis functions: 92
    Number of Cartesian functions: 110
    Spherical Harmonics?: true
    Max angular momentum: 3

   => Loading Basis Set <=

    Name: (AUG-CC-PVTZ AUX)
    Role: JKFIT
    Keyword: DF_BASIS_SCF
    atoms 1-2 entry LI         line    54 file /home/kchung25/anaconda3/envs/p415env/share/psi4/basis/def2-universal-jkfit.gbs 

  ==> Integral Setup <==

  ==> DiskDFJK: Density-Fitted J/K Matrices <==

    J tasked:                  Yes
    K tasked:                  Yes
    wK tasked:                  No
    OpenMP threads:              6
    Integrals threads:           6
    Memory [MiB]:            42915
    Algorithm:                Core
    Integral Cache:           LOAD
    Schwarz Cutoff:          1E-12
    Fitting Condition:       1E-10

   => Auxiliary Basis Set <=

  Basis Set: (AUG-CC-PVTZ AUX)
    Blend: DEF2-UNIVERSAL-JKFIT
    Number of shells: 34
    Number of basis functions: 102
    Number of Cartesian functions: 120
    Spherical Harmonics?: true
    Max angular momentum: 3

  Minimum eigenvalue in the overlap matrix is 9.4826893523E-05.
  Reciprocal condition number of the overlap matrix is 1.4833174879E-05.
    Using symmetric orthogonalization.

  ==> Pre-Iterations <==

  SCF Guess: Superposition of Atomic Densities via on-the-fly atomic UHF (no occupation information).

   -------------------------
    Irrep   Nso     Nmo    
   -------------------------
     A         92      92 
   -------------------------
    Total      92      92
   -------------------------

  ==> Iterations <==

                           Total Energy        Delta E     RMS |[F,P]|

   @DF-RHF iter SAD:    -7.31443104618062   -7.31443e+00   0.00000e+00 
   @DF-RHF iter   1:    -7.23638113640667    7.80499e-02   2.46822e-05 DIIS
   @DF-RHF iter   2:    -7.23638298939792   -1.85299e-06   2.70894e-06 DIIS
   @DF-RHF iter   3:    -7.23638301559417   -2.61963e-08   1.18413e-07 DIIS
   @DF-RHF iter   4:    -7.23638301563583   -4.16556e-11   4.19067e-10 DIIS
  Energy and wave function converged.


  ==> Post-Iterations <==

    Orbital Energies [Eh]
    ---------------------

    Doubly Occupied:                                                      

       1A     -2.792370  

    Virtual:                                                              

       2A     -0.196298     3A     -0.128599     4A     -0.128595  
       5A     -0.128595     6A     -0.073684     7A     -0.056624  
       8A     -0.056362     9A     -0.056362    10A     -0.052704  
      11A     -0.052704    12A     -0.052613    13A     -0.032624  
      14A     -0.032624    15A     -0.029125    16A     -0.025877  
      17A     -0.021432    18A     -0.021432    19A     -0.003967  
      20A     -0.003967    21A     -0.002000    22A      0.002893  
      23A      0.015326    24A      0.015326    25A      0.017240  
      26A      0.028199    27A      0.028199    28A      0.053433  
      29A      0.069803    30A      0.069803    31A      0.084310  
      32A      0.096712    33A      0.096712    34A      0.112454  
      35A      0.121720    36A      0.121720    37A      0.130419  
      38A      0.130419    39A      0.158140    40A      0.163897  
      41A      0.163897    42A      0.165116    43A      0.165116  
      44A      0.192409    45A      0.204046    46A      0.204046  
      47A      0.208034    48A      0.208034    49A      0.234261  
      50A      0.236957    51A      0.236957    52A      0.273190  
      53A      0.282366    54A      0.282366    55A      0.287229  
      56A      0.287229    57A      0.295434    58A      0.295434  
      59A      0.300442    60A      0.413036    61A      0.413036  
      62A      0.446621    63A      0.533991    64A      0.533991  
      65A      0.535999    66A      0.535999    67A      0.555716  
      68A      0.555716    69A      0.571488    70A      0.580609  
      71A      0.580609    72A      0.592893    73A      0.601008  
      74A      0.601008    75A      0.672725    76A      0.672725  
      77A      0.721262    78A      0.721262    79A      0.735109  
      80A      0.741506    81A      0.741506    82A      0.799829  
      83A      0.799829    84A      0.816958    85A      0.816958  
      86A      0.882545    87A      0.889703    88A      0.889703  
      89A      1.037061    90A      1.294691    91A      2.790928  
      92A     10.159303  

    Final Occupation by Irrep:
              A 
    DOCC [     1 ]
    NA   [     1 ]
    NB   [     1 ]

  @DF-RHF Final Energy:    -7.23638301563583

   => Energetics <=

    Nuclear Repulsion Energy =              0.0000000000000000
    One-Electron Energy =                  -8.8880256841939644
    Two-Electron Energy =                   1.6516426685581371
    Total Energy =                         -7.2363830156358269

Computation Completed


Properties will be evaluated at   0.000000,   0.000000,   0.000000 [a0]

Properties computed using the SCF density matrix


 Multipole Moments:

 ------------------------------------------------------------------------------------
     Multipole            Electronic (a.u.)      Nuclear  (a.u.)        Total (a.u.)
 ------------------------------------------------------------------------------------

 L = 1.  Multiply by 2.5417464519 to convert [e a0] to [Debye]
 Dipole X            :        -11.4895961           17.2343023            5.7447062
 Dipole Y            :          0.0000000            0.0000000            0.0000000
 Dipole Z            :         -0.0000000            0.0000000           -0.0000000
 Magnitude           :                                                    5.7447062

 ------------------------------------------------------------------------------------

*** tstop() called on moses-razer at Wed Jan  3 23:12:42 2024
Module time:
	user time   =       1.82 seconds =       0.03 minutes
	system time =       0.03 seconds =       0.00 minutes
	total time  =          1 seconds =       0.02 minutes
Total time:
	user time   =       5.98 seconds =       0.10 minutes
	system time =       0.21 seconds =       0.00 minutes
	total time  =          1 seconds =       0.02 minutes
  Constructing Basis Sets for SAPT...

   => Loading Basis Set <=

    Name: (AUG-CC-PVTZ AUX)
    Role: RIFIT
    Keyword: DF_BASIS_SAPT
    atoms 1-2 entry LI         line    90 file /home/kchung25/anaconda3/envs/p415env/share/psi4/basis/def2-qzvpp-ri.gbs 

   => Loading Basis Set <=

    Name: (AUG-CC-PVTZ AUX)
    Role: JKFIT
    Keyword: DF_BASIS_ELST
    atoms 1-2 entry LI         line    54 file /home/kchung25/anaconda3/envs/p415env/share/psi4/basis/def2-universal-jkfit.gbs 


  //>>>>>>>>>>>>>>>>>>>>>>>>>>>>>>>>>>>//
  //               SAPT2+              //
  //<<<<<<<<<<<<<<<<<<<<<<<<<<<<<<<<<<<//


*** tstart() called on moses-razer
*** at Wed Jan  3 23:12:42 2024

        SAPT2+  
    Ed Hohenstein
     6 June 2009

      Orbital Information
  --------------------------
    NSO        =        92
    NMO        =        92
    NRI        =       202
    NOCC A     =         1
    NOCC B     =         1
    FOCC A     =         0
    FOCC B     =         0
    NVIR A     =        91
    NVIR B     =        91

    Estimated memory usage: 13.6 MB

    Natural Orbital Cutoff:   1.000E-06
    Disp(T3) Truncation:            Yes
    CCD (vv|vv) Truncation:         Yes
    MBPT T2 Truncation:             Yes

    Monomer A: 86 virtual orbitals dropped
    Monomer B: 86 virtual orbitals dropped

    Elst10,r            =     0.174075382353 [Eh]
    Exch10 (S^2)        =     0.000000005180 [Eh]
    Exch10              =     0.000000005180 [Eh]
    Ind20,r (A<-B)      =    -0.000066724600 [Eh]
    Ind20,r (B<-A)      =    -0.000066724600 [Eh]
    Ind20,r             =    -0.000133449200 [Eh]
    Exch-Ind20,r (A<-B) =     0.000000000546 [Eh]
    Exch-Ind20,r (B<-A) =     0.000000000546 [Eh]
    Exch-Ind20,r        =     0.000000001093 [Eh]
    Disp20              =    -0.000000907926 [Eh]
    Disp20 (NO)         =    -0.000000799004 [Eh]
    Exch-Disp20         =    -0.000000000352 [Eh]
    Elst12,r            =    -0.000003429944 [Eh]
    Exch11              =     0.000000000478 [Eh]
    Exch12              =    -0.000000410258 [Eh]
    Ind22               =    -0.000004050248 [Eh]
    Disp21              =    -0.000000134032 [Eh]
    Disp22 (SDQ)        =    -0.000000040337 [Eh]

    (i =   1 of   1)          0 seconds

    Disp220 (T)         =    -0.000000010602 [Eh]

    (i =   1 of   1)          0 seconds

    Disp202 (T)         =    -0.000000010602 [Eh]

    Disp22 (T)          =    -0.000000021203 [Eh]

    Est. Disp220 (T)    =    -0.000000012047 [Eh]
    Est. Disp202 (T)    =    -0.000000012047 [Eh]

    Est. Disp22 (T)     =    -0.000000024094 [Eh]

    SAPT Results 
  --------------------------------------------------------------------------------------------------------
    Electrostatics                174.07195241 [mEh]     109.23179926 [kcal/mol]     457.02584808 [kJ/mol]
      Elst10,r                    174.07538235 [mEh]     109.23395158 [kcal/mol]     457.03485340 [kJ/mol]
      Elst12,r                     -0.00342994 [mEh]      -0.00215232 [kcal/mol]      -0.00900532 [kJ/mol]

    Exchange                       -0.00040460 [mEh]      -0.00025389 [kcal/mol]      -0.00106228 [kJ/mol]
      Exch10                        0.00000518 [mEh]       0.00000325 [kcal/mol]       0.00001360 [kJ/mol]
      Exch10(S^2)                   0.00000518 [mEh]       0.00000325 [kcal/mol]       0.00001360 [kJ/mol]
      Exch11(S^2)                   0.00000048 [mEh]       0.00000030 [kcal/mol]       0.00000126 [kJ/mol]
      Exch12(S^2)                  -0.00041026 [mEh]      -0.00025744 [kcal/mol]      -0.00107713 [kJ/mol]

    Induction                      -0.13799996 [mEh]      -0.08659628 [kcal/mol]      -0.36231885 [kJ/mol]
      Ind20,r                      -0.13344920 [mEh]      -0.08374064 [kcal/mol]      -0.35037083 [kJ/mol]
      Ind22                        -0.00405025 [mEh]      -0.00254157 [kcal/mol]      -0.01063392 [kJ/mol]
      Exch-Ind20,r                  0.00000109 [mEh]       0.00000069 [kcal/mol]       0.00000287 [kJ/mol]
      Exch-Ind22                    0.00000003 [mEh]       0.00000002 [kcal/mol]       0.00000009 [kJ/mol]
      delta HF,r (2)               -0.00050164 [mEh]      -0.00031478 [kcal/mol]      -0.00131705 [kJ/mol]

    Dispersion                     -0.00110674 [mEh]      -0.00069449 [kcal/mol]      -0.00290574 [kJ/mol]
      Disp20                       -0.00090793 [mEh]      -0.00056973 [kcal/mol]      -0.00238376 [kJ/mol]
      Disp21                       -0.00013403 [mEh]      -0.00008411 [kcal/mol]      -0.00035190 [kJ/mol]
      Disp22 (SDQ)                 -0.00004034 [mEh]      -0.00002531 [kcal/mol]      -0.00010590 [kJ/mol]
      Disp22 (T)                   -0.00002120 [mEh]      -0.00001331 [kcal/mol]      -0.00005567 [kJ/mol]
      Est. Disp22 (T)              -0.00002409 [mEh]      -0.00001512 [kcal/mol]      -0.00006326 [kJ/mol]
      Exch-Disp20                  -0.00000035 [mEh]      -0.00000022 [kcal/mol]      -0.00000092 [kJ/mol]

  Total HF                        173.94143779 [mEh]     109.14990009 [kcal/mol]     456.68318199 [kJ/mol]
  Total SAPT0                     173.94052951 [mEh]     109.14933014 [kcal/mol]     456.68079731 [kJ/mol]
  Total SAPT2                     173.93263957 [mEh]     109.14437913 [kcal/mol]     456.66008228 [kJ/mol]
  Total SAPT2+                    173.93244111 [mEh]     109.14425459 [kcal/mol]     456.65956122 [kJ/mol]

  Special recipe for scaled SAPT0 (see Manual):
    Electrostatics sSAPT0         174.07538235 [mEh]     109.23395158 [kcal/mol]     457.03485340 [kJ/mol]
    Exchange sSAPT0                 0.00000518 [mEh]       0.00000325 [kcal/mol]       0.00001360 [kJ/mol]
    Induction sSAPT0               -0.13394975 [mEh]      -0.08405473 [kcal/mol]      -0.35168501 [kJ/mol]
    Dispersion sSAPT0              -0.00090828 [mEh]      -0.00056995 [kcal/mol]      -0.00238468 [kJ/mol]
  Total sSAPT0                    173.94052951 [mEh]     109.14933014 [kcal/mol]     456.68079731 [kJ/mol]
  --------------------------------------------------------------------------------------------------------

*** tstop() called on moses-razer at Wed Jan  3 23:12:42 2024
Module time:
	user time   =       3.03 seconds =       0.05 minutes
	system time =       0.17 seconds =       0.00 minutes
	total time  =          0 seconds =       0.00 minutes
Total time:
	user time   =       9.44 seconds =       0.16 minutes
	system time =       0.39 seconds =       0.01 minutes
	total time  =          1 seconds =       0.02 minutes

    Psi4 stopped on: Wednesday, 03 January 2024 11:12PM
    Psi4 wall time for execution: 0:00:01.78

*** Psi4 exiting successfully. Buy a developer a beer!
