
    -----------------------------------------------------------------------
          Psi4: An Open-Source Ab Initio Electronic Structure Package
                               Psi4 1.9 release

                         Git: Rev {} zzzzzzz 


    D. G. A. Smith, L. A. Burns, A. C. Simmonett, R. M. Parrish,
    M. C. Schieber, R. Galvelis, P. Kraus, H. Kruse, R. Di Remigio,
    A. Alenaizan, A. M. James, S. Lehtola, J. P. Misiewicz, M. Scheurer,
    R. A. Shaw, J. B. Schriber, Y. Xie, Z. L. Glick, D. A. Sirianni,
    J. S. O'Brien, J. M. Waldrop, A. Kumar, E. G. Hohenstein,
    B. P. Pritchard, B. R. Brooks, H. F. Schaefer III, A. Yu. Sokolov,
    K. Patkowski, A. E. DePrince III, U. Bozkaya, R. A. King,
    F. A. Evangelista, J. M. Turney, T. D. Crawford, C. D. Sherrill,
    J. Chem. Phys. 152(18) 184108 (2020). https://doi.org/10.1063/5.0006002

                            Additional Code Authors
    E. T. Seidl, C. L. Janssen, E. F. Valeev, M. L. Leininger,
    J. F. Gonthier, R. M. Richard, H. R. McAlexander, M. Saitow, X. Wang,
    P. Verma, M. H. Lechner, A. Jiang, S. Behnle, A. G. Heide,
    M. F. Herbst, and D. L. Poole

             Previous Authors, Complete List of Code Contributors,
                       and Citations for Specific Modules
    https://github.com/psi4/psi4/blob/master/codemeta.json
    https://github.com/psi4/psi4/graphs/contributors
    http://psicode.org/psi4manual/master/introduction.html#citing-psifour

    -----------------------------------------------------------------------


    Psi4 started on: Wednesday, 03 January 2024 11:12PM

    Process ID: 449209
    Host:       moses-razer
    PSIDATADIR: /home/kchung25/anaconda3/envs/psi4_19/share/psi4
    Memory:     500.0 MiB
    Threads:    6
    
  ==> Input File <==

--------------------------------------------------------------------------
MEMORY 60 GB

molecule dimer {
1 1
Li     0.000000     0.000000     0.000000
--
1 1
Na     2.314000     0.000000     0.000000

units ang
no_reorient
no_com
symmetry c1
}

set {
basis        aug-cc-pVTZ
scf_type     df
}

energy("sapt2+")
--------------------------------------------------------------------------

  Memory set to  55.879 GiB by Python driver.

Scratch directory: /scratch/
   => Loading Basis Set <=

    Name: AUG-CC-PVTZ
    Role: ORBITAL
    Keyword: BASIS
    atoms 1 entry LI         line    85 file /home/kchung25/anaconda3/envs/p415env/share/psi4/basis/aug-cc-pvtz.gbs 
    atoms 2 entry NA         line   469 file /home/kchung25/anaconda3/envs/p415env/share/psi4/basis/aug-cc-pvtz.gbs 

   => Loading Basis Set <=

    Name: AUG-CC-PVTZ
    Role: ORBITAL
    Keyword: BASIS
    atoms 1 entry LI         line    85 file /home/kchung25/anaconda3/envs/p415env/share/psi4/basis/aug-cc-pvtz.gbs 
    atoms 2 entry NA         line   469 file /home/kchung25/anaconda3/envs/p415env/share/psi4/basis/aug-cc-pvtz.gbs 


  //>>>>>>>>>>>>>>>>>>>>>>>>>>>>>>>>>>>//
  //              Dimer HF             //
  //<<<<<<<<<<<<<<<<<<<<<<<<<<<<<<<<<<<//

   => Libint2 <=

    Primary   basis highest AM E, G, H:  5, 4, 3
    Auxiliary basis highest AM E, G, H:  6, 5, 4
    Onebody   basis highest AM E, G, H:  6, 5, 4
    Solid Harmonics ordering:            gaussian

*** tstart() called on moses-razer
*** at Wed Jan  3 23:12:59 2024

   => Loading Basis Set <=

    Name: AUG-CC-PVTZ
    Role: ORBITAL
    Keyword: BASIS
    atoms 1 entry LI         line    85 file /home/kchung25/anaconda3/envs/p415env/share/psi4/basis/aug-cc-pvtz.gbs 
    atoms 2 entry NA         line   469 file /home/kchung25/anaconda3/envs/p415env/share/psi4/basis/aug-cc-pvtz.gbs 


         ---------------------------------------------------------
                                   SCF
               by Justin Turney, Rob Parrish, Andy Simmonett
                          and Daniel G. A. Smith
                              RHF Reference
                        6 Threads,  57220 MiB Core
         ---------------------------------------------------------

  ==> Geometry <==

    Molecular point group: c1
    Full point group: C_inf_v

    Geometry (in Angstrom), charge = 2, multiplicity = 1:

       Center              X                  Y                   Z               Mass       
    ------------   -----------------  -----------------  -----------------  -----------------
         LI           0.000000000000     0.000000000000     0.000000000000     7.016003436600
         NA           2.314000000000     0.000000000000     0.000000000000    22.989769282000

  Running in c1 symmetry.

  Rotational constants: A = ************  B =      0.13694  C =      0.13694 [cm^-1]
  Rotational constants: A = ************  B =   4105.40377  C =   4105.40377 [MHz]
  Nuclear repulsion =    7.546606720877269

  Charge       = 2
  Multiplicity = 1
  Electrons    = 12
  Nalpha       = 6
  Nbeta        = 6

  ==> Algorithm <==

  SCF Algorithm Type is DF.
  DIIS enabled.
  MOM disabled.
  Fractional occupation disabled.
  Guess Type is SAD.
  Energy threshold   = 1.00e-08
  Density threshold  = 1.00e-08
  Integral threshold = 1.00e-12

  ==> Primary Basis <==

  Basis Set: AUG-CC-PVTZ
    Blend: AUG-CC-PVTZ
    Number of shells: 30
    Number of basis functions: 96
    Number of Cartesian functions: 114
    Spherical Harmonics?: true
    Max angular momentum: 3

   => Loading Basis Set <=

    Name: (AUG-CC-PVTZ AUX)
    Role: JKFIT
    Keyword: DF_BASIS_SCF
    atoms 1 entry LI         line    54 file /home/kchung25/anaconda3/envs/p415env/share/psi4/basis/def2-universal-jkfit.gbs 
    atoms 2 entry NA         line   498 file /home/kchung25/anaconda3/envs/p415env/share/psi4/basis/def2-universal-jkfit.gbs 

  ==> Integral Setup <==

  ==> DiskDFJK: Density-Fitted J/K Matrices <==

    J tasked:                  Yes
    K tasked:                  Yes
    wK tasked:                  No
    OpenMP threads:              6
    Integrals threads:           6
    Memory [MiB]:            42915
    Algorithm:                Core
    Integral Cache:           SAVE
    Schwarz Cutoff:          1E-12
    Fitting Condition:       1E-10

   => Auxiliary Basis Set <=

  Basis Set: (AUG-CC-PVTZ AUX)
    Blend: DEF2-UNIVERSAL-JKFIT
    Number of shells: 51
    Number of basis functions: 163
    Number of Cartesian functions: 197
    Spherical Harmonics?: true
    Max angular momentum: 4

  Minimum eigenvalue in the overlap matrix is 7.8250655358E-05.
  Reciprocal condition number of the overlap matrix is 1.2531851750E-05.
    Using symmetric orthogonalization.

  ==> Pre-Iterations <==

  SCF Guess: Superposition of Atomic Densities via on-the-fly atomic UHF (no occupation information).

   -------------------------
    Irrep   Nso     Nmo    
   -------------------------
     A         96      96 
   -------------------------
    Total      96      96
   -------------------------

  ==> Iterations <==

                           Total Energy        Delta E     RMS |[F,P]|

   @DF-RHF iter SAD:  -169.06231723327798   -1.69062e+02   0.00000e+00 
   @DF-RHF iter   1:  -168.68440231583645    3.77915e-01   2.15005e-04 ADIIS/DIIS
   @DF-RHF iter   2:  -168.68459899301072   -1.96677e-04   3.35082e-05 DIIS
   @DF-RHF iter   3:  -168.68460395724503   -4.96423e-06   3.37071e-06 DIIS
   @DF-RHF iter   4:  -168.68460401742195   -6.01769e-08   5.18965e-07 DIIS
   @DF-RHF iter   5:  -168.68460401895894   -1.53699e-09   2.85181e-08 DIIS
   @DF-RHF iter   6:  -168.68460401896266   -3.72324e-12   1.63878e-09 DIIS
  Energy and wave function converged.


  ==> Post-Iterations <==

    Orbital Energies [Eh]
    ---------------------

    Doubly Occupied:                                                      

       1A    -40.992901     2A     -3.304416     3A     -3.019846  
       4A     -2.030011     5A     -2.025628     6A     -2.025628  

    Virtual:                                                              

       7A     -0.424649     8A     -0.326207     9A     -0.326207  
      10A     -0.306463    11A     -0.258594    12A     -0.217730  
      13A     -0.217730    14A     -0.190546    15A     -0.190546  
      16A     -0.190431    17A     -0.166309    18A     -0.166309  
      19A     -0.152322    20A     -0.145089    21A     -0.130258  
      22A     -0.130258    23A     -0.128230    24A     -0.119984  
      25A     -0.119984    26A     -0.115586    27A     -0.115586  
      28A     -0.109007    29A     -0.099840    30A     -0.099840  
      31A     -0.091154    32A     -0.088543    33A     -0.082442  
      34A     -0.082442    35A     -0.073937    36A     -0.073937  
      37A     -0.068925    38A     -0.056611    39A     -0.056611  
      40A     -0.052693    41A     -0.050929    42A     -0.050929  
      43A     -0.038569    44A     -0.013292    45A     -0.013292  
      46A     -0.012007    47A     -0.008998    48A     -0.008998  
      49A      0.006406    50A      0.009049    51A      0.009049  
      52A      0.028768    53A      0.028768    54A      0.037515  
      55A      0.037515    56A      0.050705    57A      0.053666  
      58A      0.053666    59A      0.074104    60A      0.074104  
      61A      0.075338    62A      0.118759    63A      0.131499  
      64A      0.131499    65A      0.155037    66A      0.155037  
      67A      0.190593    68A      0.190593    69A      0.207587  
      70A      0.244872    71A      0.244872    72A      0.260813  
      73A      0.260813    74A      0.267263    75A      0.300512  
      76A      0.300512    77A      0.332677    78A      0.332677  
      79A      0.333483    80A      0.385388    81A      0.387825  
      82A      0.387825    83A      0.407133    84A      0.407133  
      85A      0.420818    86A      0.420818    87A      0.471780  
      88A      0.471780    89A      0.505697    90A      0.535975  
      91A      0.535975    92A      0.601594    93A      0.601594  
      94A      0.892807    95A      1.726510    96A      2.792643  

    Final Occupation by Irrep:
              A 
    DOCC [     6 ]
    NA   [     6 ]
    NB   [     6 ]

  @DF-RHF Final Energy:  -168.68460401896266

   => Energetics <=

    Nuclear Repulsion Energy =              7.5466067208772687
    One-Electron Energy =                -245.6655637267889460
    Two-Electron Energy =                  69.4343529869490084
    Total Energy =                       -168.6846040189626592

Computation Completed


Properties will be evaluated at   0.000000,   0.000000,   0.000000 [a0]

Properties computed using the SCF density matrix


 Multipole Moments:

 ------------------------------------------------------------------------------------
     Multipole            Electronic (a.u.)      Nuclear  (a.u.)        Total (a.u.)
 ------------------------------------------------------------------------------------

 L = 1.  Multiply by 2.5417464519 to convert [e a0] to [Debye]
 Dipole X            :        -43.7129925           48.1010888            4.3880963
 Dipole Y            :          0.0000000            0.0000000            0.0000000
 Dipole Z            :         -0.0000000            0.0000000           -0.0000000
 Magnitude           :                                                    4.3880963

 ------------------------------------------------------------------------------------

*** tstop() called on moses-razer at Wed Jan  3 23:13:01 2024
Module time:
	user time   =       4.58 seconds =       0.08 minutes
	system time =       0.61 seconds =       0.01 minutes
	total time  =          2 seconds =       0.03 minutes
Total time:
	user time   =       4.58 seconds =       0.08 minutes
	system time =       0.61 seconds =       0.01 minutes
	total time  =          2 seconds =       0.03 minutes

  //>>>>>>>>>>>>>>>>>>>>>>>>>>>>>>>>>>>//
  //            Monomer A HF           //
  //<<<<<<<<<<<<<<<<<<<<<<<<<<<<<<<<<<<//

   => Libint2 <=

    Primary   basis highest AM E, G, H:  5, 4, 3
    Auxiliary basis highest AM E, G, H:  6, 5, 4
    Onebody   basis highest AM E, G, H:  6, 5, 4
    Solid Harmonics ordering:            gaussian

*** tstart() called on moses-razer
*** at Wed Jan  3 23:13:01 2024

   => Loading Basis Set <=

    Name: AUG-CC-PVTZ
    Role: ORBITAL
    Keyword: BASIS
    atoms 1 entry LI         line    85 file /home/kchung25/anaconda3/envs/p415env/share/psi4/basis/aug-cc-pvtz.gbs 
    atoms 2 entry NA         line   469 file /home/kchung25/anaconda3/envs/p415env/share/psi4/basis/aug-cc-pvtz.gbs 


         ---------------------------------------------------------
                                   SCF
               by Justin Turney, Rob Parrish, Andy Simmonett
                          and Daniel G. A. Smith
                              RHF Reference
                        6 Threads,  57220 MiB Core
         ---------------------------------------------------------

  ==> Geometry <==

    Molecular point group: c1
    Full point group: C_inf_v

    Geometry (in Angstrom), charge = 1, multiplicity = 1:

       Center              X                  Y                   Z               Mass       
    ------------   -----------------  -----------------  -----------------  -----------------
         LI           0.000000000000     0.000000000000     0.000000000000     7.016003436600
      Gh(NA)          2.314000000000     0.000000000000     0.000000000000    22.989769282000

  Running in c1 symmetry.

  Rotational constants: A = ************  B =      0.13694  C =      0.13694 [cm^-1]
  Rotational constants: A = ************  B =   4105.40377  C =   4105.40377 [MHz]
  Nuclear repulsion =    0.000000000000000

  Charge       = 1
  Multiplicity = 1
  Electrons    = 2
  Nalpha       = 1
  Nbeta        = 1

  ==> Algorithm <==

  SCF Algorithm Type is DF.
  DIIS enabled.
  MOM disabled.
  Fractional occupation disabled.
  Guess Type is SAD.
  Energy threshold   = 1.00e-08
  Density threshold  = 1.00e-08
  Integral threshold = 1.00e-12

  ==> Primary Basis <==

  Basis Set: AUG-CC-PVTZ
    Blend: AUG-CC-PVTZ
    Number of shells: 30
    Number of basis functions: 96
    Number of Cartesian functions: 114
    Spherical Harmonics?: true
    Max angular momentum: 3

   => Loading Basis Set <=

    Name: (AUG-CC-PVTZ AUX)
    Role: JKFIT
    Keyword: DF_BASIS_SCF
    atoms 1 entry LI         line    54 file /home/kchung25/anaconda3/envs/p415env/share/psi4/basis/def2-universal-jkfit.gbs 
    atoms 2 entry NA         line   498 file /home/kchung25/anaconda3/envs/p415env/share/psi4/basis/def2-universal-jkfit.gbs 

  ==> Integral Setup <==

  ==> DiskDFJK: Density-Fitted J/K Matrices <==

    J tasked:                  Yes
    K tasked:                  Yes
    wK tasked:                  No
    OpenMP threads:              6
    Integrals threads:           6
    Memory [MiB]:            42915
    Algorithm:                Core
    Integral Cache:           LOAD
    Schwarz Cutoff:          1E-12
    Fitting Condition:       1E-10

   => Auxiliary Basis Set <=

  Basis Set: (AUG-CC-PVTZ AUX)
    Blend: DEF2-UNIVERSAL-JKFIT
    Number of shells: 51
    Number of basis functions: 163
    Number of Cartesian functions: 197
    Spherical Harmonics?: true
    Max angular momentum: 4

  Minimum eigenvalue in the overlap matrix is 7.8250655358E-05.
  Reciprocal condition number of the overlap matrix is 1.2531851750E-05.
    Using symmetric orthogonalization.

  ==> Pre-Iterations <==

  SCF Guess: Superposition of Atomic Densities via on-the-fly atomic UHF (no occupation information).

   -------------------------
    Irrep   Nso     Nmo    
   -------------------------
     A         96      96 
   -------------------------
    Total      96      96
   -------------------------

  ==> Iterations <==

                           Total Energy        Delta E     RMS |[F,P]|

   @DF-RHF iter SAD:    -7.31416116590428   -7.31416e+00   0.00000e+00 
   @DF-RHF iter   1:    -7.23638121445282    7.77800e-02   2.34268e-05 DIIS
   @DF-RHF iter   2:    -7.23638305135905   -1.83691e-06   2.63662e-06 DIIS
   @DF-RHF iter   3:    -7.23638307844461   -2.70856e-08   1.22472e-07 DIIS
   @DF-RHF iter   4:    -7.23638307849185   -4.72360e-11   5.48719e-10 DIIS
  Energy and wave function converged.


  ==> Post-Iterations <==

    Orbital Energies [Eh]
    ---------------------

    Doubly Occupied:                                                      

       1A     -2.792374  

    Virtual:                                                              

       2A     -0.196299     3A     -0.128600     4A     -0.128598  
       5A     -0.128598     6A     -0.073766     7A     -0.056594  
       8A     -0.056415     9A     -0.056415    10A     -0.054611  
      11A     -0.054611    12A     -0.054604    13A     -0.043141  
      14A     -0.043141    15A     -0.034331    16A     -0.023845  
      17A     -0.023845    18A     -0.021624    19A     -0.017589  
      20A     -0.009207    21A     -0.009207    22A     -0.001639  
      23A     -0.000631    24A     -0.000631    25A      0.006497  
      26A      0.006497    27A      0.013048    28A      0.032048  
      29A      0.033011    30A      0.033011    31A      0.062602  
      32A      0.062602    33A      0.065553    34A      0.085941  
      35A      0.099147    36A      0.099147    37A      0.113243  
      38A      0.113243    39A      0.141497    40A      0.154089  
      41A      0.154089    42A      0.163579    43A      0.163579  
      44A      0.166337    45A      0.166337    46A      0.177574  
      47A      0.181518    48A      0.181518    49A      0.189464  
      50A      0.189464    51A      0.190061    52A      0.198359  
      53A      0.198359    54A      0.232546    55A      0.236645  
      56A      0.236645    57A      0.266601    58A      0.279457  
      59A      0.279457    60A      0.318372    61A      0.318372  
      62A      0.419048    63A      0.460672    64A      0.460672  
      65A      0.473026    66A      0.496666    67A      0.496666  
      68A      0.521366    69A      0.521366    70A      0.556650  
      71A      0.556650    72A      0.579617    73A      0.584360  
      74A      0.584360    75A      0.587437    76A      0.587437  
      77A      0.604402    78A      0.604402    79A      0.615423  
      80A      0.630696    81A      0.630696    82A      0.688620  
      83A      0.688620    84A      0.695324    85A      0.765522  
      86A      0.765522    87A      0.861539    88A      0.861539  
      89A      0.887106    90A      1.292462    91A      3.007667  
      92A      4.381600    93A      6.172803    94A      6.172803  
      95A      6.457868    96A     64.346687  

    Final Occupation by Irrep:
              A 
    DOCC [     1 ]
    NA   [     1 ]
    NB   [     1 ]

  @DF-RHF Final Energy:    -7.23638307849185

   => Energetics <=

    Nuclear Repulsion Energy =              0.0000000000000000
    One-Electron Energy =                  -8.8880190687940157
    Two-Electron Energy =                   1.6516359903021676
    Total Energy =                         -7.2363830784918477

Computation Completed


Properties will be evaluated at   0.000000,   0.000000,   0.000000 [a0]

Properties computed using the SCF density matrix


 Multipole Moments:

 ------------------------------------------------------------------------------------
     Multipole            Electronic (a.u.)      Nuclear  (a.u.)        Total (a.u.)
 ------------------------------------------------------------------------------------

 L = 1.  Multiply by 2.5417464519 to convert [e a0] to [Debye]
 Dipole X            :          0.0000598            0.0000000            0.0000598
 Dipole Y            :          0.0000000            0.0000000            0.0000000
 Dipole Z            :         -0.0000000            0.0000000           -0.0000000
 Magnitude           :                                                    0.0000598

 ------------------------------------------------------------------------------------

*** tstop() called on moses-razer at Wed Jan  3 23:13:01 2024
Module time:
	user time   =       2.39 seconds =       0.04 minutes
	system time =       0.22 seconds =       0.00 minutes
	total time  =          0 seconds =       0.00 minutes
Total time:
	user time   =       6.99 seconds =       0.12 minutes
	system time =       0.84 seconds =       0.01 minutes
	total time  =          2 seconds =       0.03 minutes

  //>>>>>>>>>>>>>>>>>>>>>>>>>>>>>>>>>>>//
  //            Monomer B HF           //
  //<<<<<<<<<<<<<<<<<<<<<<<<<<<<<<<<<<<//

   => Libint2 <=

    Primary   basis highest AM E, G, H:  5, 4, 3
    Auxiliary basis highest AM E, G, H:  6, 5, 4
    Onebody   basis highest AM E, G, H:  6, 5, 4
    Solid Harmonics ordering:            gaussian

*** tstart() called on moses-razer
*** at Wed Jan  3 23:13:01 2024

   => Loading Basis Set <=

    Name: AUG-CC-PVTZ
    Role: ORBITAL
    Keyword: BASIS
    atoms 1 entry LI         line    85 file /home/kchung25/anaconda3/envs/p415env/share/psi4/basis/aug-cc-pvtz.gbs 
    atoms 2 entry NA         line   469 file /home/kchung25/anaconda3/envs/p415env/share/psi4/basis/aug-cc-pvtz.gbs 


         ---------------------------------------------------------
                                   SCF
               by Justin Turney, Rob Parrish, Andy Simmonett
                          and Daniel G. A. Smith
                              RHF Reference
                        6 Threads,  57220 MiB Core
         ---------------------------------------------------------

  ==> Geometry <==

    Molecular point group: c1
    Full point group: C_inf_v

    Geometry (in Angstrom), charge = 1, multiplicity = 1:

       Center              X                  Y                   Z               Mass       
    ------------   -----------------  -----------------  -----------------  -----------------
      Gh(LI)          0.000000000000     0.000000000000     0.000000000000     7.016003436600
         NA           2.314000000000     0.000000000000     0.000000000000    22.989769282000

  Running in c1 symmetry.

  Rotational constants: A = ************  B =      0.13694  C =      0.13694 [cm^-1]
  Rotational constants: A = ************  B =   4105.40377  C =   4105.40377 [MHz]
  Nuclear repulsion =    0.000000000000000

  Charge       = 1
  Multiplicity = 1
  Electrons    = 10
  Nalpha       = 5
  Nbeta        = 5

  ==> Algorithm <==

  SCF Algorithm Type is DF.
  DIIS enabled.
  MOM disabled.
  Fractional occupation disabled.
  Guess Type is SAD.
  Energy threshold   = 1.00e-08
  Density threshold  = 1.00e-08
  Integral threshold = 1.00e-12

  ==> Primary Basis <==

  Basis Set: AUG-CC-PVTZ
    Blend: AUG-CC-PVTZ
    Number of shells: 30
    Number of basis functions: 96
    Number of Cartesian functions: 114
    Spherical Harmonics?: true
    Max angular momentum: 3

   => Loading Basis Set <=

    Name: (AUG-CC-PVTZ AUX)
    Role: JKFIT
    Keyword: DF_BASIS_SCF
    atoms 1 entry LI         line    54 file /home/kchung25/anaconda3/envs/p415env/share/psi4/basis/def2-universal-jkfit.gbs 
    atoms 2 entry NA         line   498 file /home/kchung25/anaconda3/envs/p415env/share/psi4/basis/def2-universal-jkfit.gbs 

  ==> Integral Setup <==

  ==> DiskDFJK: Density-Fitted J/K Matrices <==

    J tasked:                  Yes
    K tasked:                  Yes
    wK tasked:                  No
    OpenMP threads:              6
    Integrals threads:           6
    Memory [MiB]:            42915
    Algorithm:                Core
    Integral Cache:           LOAD
    Schwarz Cutoff:          1E-12
    Fitting Condition:       1E-10

   => Auxiliary Basis Set <=

  Basis Set: (AUG-CC-PVTZ AUX)
    Blend: DEF2-UNIVERSAL-JKFIT
    Number of shells: 51
    Number of basis functions: 163
    Number of Cartesian functions: 197
    Spherical Harmonics?: true
    Max angular momentum: 4

  Minimum eigenvalue in the overlap matrix is 7.8250655358E-05.
  Reciprocal condition number of the overlap matrix is 1.2531851750E-05.
    Using symmetric orthogonalization.

  ==> Pre-Iterations <==

  SCF Guess: Superposition of Atomic Densities via on-the-fly atomic UHF (no occupation information).

   -------------------------
    Irrep   Nso     Nmo    
   -------------------------
     A         96      96 
   -------------------------
    Total      96      96
   -------------------------

  ==> Iterations <==

                           Total Energy        Delta E     RMS |[F,P]|

   @DF-RHF iter SAD:  -161.74561325082075   -1.61746e+02   0.00000e+00 
   @DF-RHF iter   1:  -161.67603939669115    6.95739e-02   6.14274e-05 DIIS
   @DF-RHF iter   2:  -161.67605717339453   -1.77767e-05   1.20299e-05 DIIS
   @DF-RHF iter   3:  -161.67605763946611   -4.66072e-07   4.36174e-07 DIIS
   @DF-RHF iter   4:  -161.67605764017279   -7.06677e-10   3.52845e-08 DIIS
   @DF-RHF iter   5:  -161.67605764017742   -4.63274e-12   2.03883e-09 DIIS
  Energy and wave function converged.


  ==> Post-Iterations <==

    Orbital Energies [Eh]
    ---------------------

    Doubly Occupied:                                                      

       1A    -40.761723     2A     -3.074357     3A     -1.797671  
       4A     -1.797590     5A     -1.797590  

    Virtual:                                                              

       6A     -0.181819     7A     -0.109442     8A     -0.109434  
       9A     -0.109434    10A     -0.070058    11A     -0.055117  
      12A     -0.055117    13A     -0.054950    14A     -0.050327  
      15A     -0.050327    16A     -0.049687    17A     -0.049068  
      18A     -0.049068    19A     -0.032498    20A     -0.023835  
      21A     -0.022729    22A     -0.022729    23A     -0.015139  
      24A     -0.010484    25A     -0.010484    26A     -0.005133  
      27A     -0.001541    28A     -0.001541    29A      0.024905  
      30A      0.024905    31A      0.028673    32A      0.037085  
      33A      0.061344    34A      0.061344    35A      0.061699  
      36A      0.061699    37A      0.078196    38A      0.080756  
      39A      0.080756    40A      0.088603    41A      0.102961  
      42A      0.102961    43A      0.116366    44A      0.116366  
      45A      0.139528    46A      0.139528    47A      0.140263  
      48A      0.158504    49A      0.158504    50A      0.176741  
      51A      0.203203    52A      0.203203    53A      0.225436  
      54A      0.230192    55A      0.230192    56A      0.244450  
      57A      0.244450    58A      0.253245    59A      0.285607  
      60A      0.285607    61A      0.295290    62A      0.295290  
      63A      0.296179    64A      0.374276    65A      0.374276  
      66A      0.380463    67A      0.390012    68A      0.390012  
      69A      0.449581    70A      0.449581    71A      0.456260  
      72A      0.469232    73A      0.469232    74A      0.490751  
      75A      0.490751    76A      0.535755    77A      0.535755  
      78A      0.588880    79A      0.663482    80A      0.663482  
      81A      0.696706    82A      0.696706    83A      0.715304  
      84A      0.758315    85A      0.758315    86A      0.808659  
      87A      0.808659    88A      0.823969    89A      0.823969  
      90A      0.824714    91A      1.064903    92A      1.064903  
      93A      1.377058    94A      1.604078    95A      2.063685  
      96A     10.406981  

    Final Occupation by Irrep:
              A 
    DOCC [     5 ]
    NA   [     5 ]
    NB   [     5 ]

  @DF-RHF Final Energy:  -161.67605764017742

   => Energetics <=

    Nuclear Repulsion Energy =              0.0000000000000000
    One-Electron Energy =                -224.8942553037245489
    Two-Electron Energy =                  63.2181976635471230
    Total Energy =                       -161.6760576401774188

Computation Completed


Properties will be evaluated at   0.000000,   0.000000,   0.000000 [a0]

Properties computed using the SCF density matrix


 Multipole Moments:

 ------------------------------------------------------------------------------------
     Multipole            Electronic (a.u.)      Nuclear  (a.u.)        Total (a.u.)
 ------------------------------------------------------------------------------------

 L = 1.  Multiply by 2.5417464519 to convert [e a0] to [Debye]
 Dipole X            :        -43.7289196           48.1010888            4.3721692
 Dipole Y            :          0.0000000            0.0000000            0.0000000
 Dipole Z            :          0.0000000            0.0000000            0.0000000
 Magnitude           :                                                    4.3721692

 ------------------------------------------------------------------------------------

*** tstop() called on moses-razer at Wed Jan  3 23:13:02 2024
Module time:
	user time   =       3.56 seconds =       0.06 minutes
	system time =       0.53 seconds =       0.01 minutes
	total time  =          1 seconds =       0.02 minutes
Total time:
	user time   =      10.57 seconds =       0.18 minutes
	system time =       1.38 seconds =       0.02 minutes
	total time  =          3 seconds =       0.05 minutes
  Constructing Basis Sets for SAPT...

   => Loading Basis Set <=

    Name: (AUG-CC-PVTZ AUX)
    Role: RIFIT
    Keyword: DF_BASIS_SAPT
    atoms 1 entry LI         line    90 file /home/kchung25/anaconda3/envs/p415env/share/psi4/basis/def2-qzvpp-ri.gbs 
    atoms 2 entry NA         line   610 file /home/kchung25/anaconda3/envs/p415env/share/psi4/basis/def2-qzvpp-ri.gbs 

   => Loading Basis Set <=

    Name: (AUG-CC-PVTZ AUX)
    Role: JKFIT
    Keyword: DF_BASIS_ELST
    atoms 1 entry LI         line    54 file /home/kchung25/anaconda3/envs/p415env/share/psi4/basis/def2-universal-jkfit.gbs 
    atoms 2 entry NA         line   498 file /home/kchung25/anaconda3/envs/p415env/share/psi4/basis/def2-universal-jkfit.gbs 


  //>>>>>>>>>>>>>>>>>>>>>>>>>>>>>>>>>>>//
  //               SAPT2+              //
  //<<<<<<<<<<<<<<<<<<<<<<<<<<<<<<<<<<<//


*** tstart() called on moses-razer
*** at Wed Jan  3 23:13:02 2024

        SAPT2+  
    Ed Hohenstein
     6 June 2009

      Orbital Information
  --------------------------
    NSO        =        96
    NMO        =        96
    NRI        =       267
    NOCC A     =         1
    NOCC B     =         5
    FOCC A     =         0
    FOCC B     =         0
    NVIR A     =        95
    NVIR B     =        91

    Estimated memory usage: 24.7 MB

    Natural Orbital Cutoff:   1.000E-06
    Disp(T3) Truncation:            Yes
    CCD (vv|vv) Truncation:         Yes
    MBPT T2 Truncation:             Yes

    Monomer A: 90 virtual orbitals dropped
    Monomer B: 80 virtual orbitals dropped

    Elst10,r            =     0.228729178265 [Eh]
    Exch10 (S^2)        =     0.000055695022 [Eh]
    Exch10              =     0.000055696042 [Eh]
    Ind20,r (A<-B)      =    -0.000237693270 [Eh]
    Ind20,r (B<-A)      =    -0.000708605942 [Eh]
    Ind20,r             =    -0.000946299212 [Eh]
    Exch-Ind20,r (A<-B) =     0.000001860976 [Eh]
    Exch-Ind20,r (B<-A) =     0.000016608490 [Eh]
    Exch-Ind20,r        =     0.000018469466 [Eh]
    Disp20              =    -0.000018538489 [Eh]
    Disp20 (NO)         =    -0.000014664512 [Eh]
    Exch-Disp20         =     0.000000101380 [Eh]
    Elst12,r            =    -0.000089046225 [Eh]
    Exch11              =    -0.000000039557 [Eh]
    Exch12              =     0.000006987442 [Eh]
    Ind22               =    -0.000064908259 [Eh]
    Disp21              =    -0.000002926471 [Eh]
    Disp22 (SDQ)        =    -0.000001531187 [Eh]

    (i =   1 of   5)          0 seconds
    (i =   2 of   5)          0 seconds
    (i =   3 of   5)          0 seconds
    (i =   4 of   5)          0 seconds
    (i =   5 of   5)          0 seconds

    Disp220 (T)         =    -0.000000198229 [Eh]

    (i =   1 of   1)          0 seconds

    Disp202 (T)         =    -0.000000350541 [Eh]

    Disp22 (T)          =    -0.000000548770 [Eh]

    Est. Disp220 (T)    =    -0.000000250596 [Eh]
    Est. Disp202 (T)    =    -0.000000443145 [Eh]

    Est. Disp22 (T)     =    -0.000000693741 [Eh]

    SAPT Results 
  --------------------------------------------------------------------------------------------------------
    Electrostatics                228.64013204 [mEh]     143.47384894 [kcal/mol]     600.29458397 [kJ/mol]
      Elst10,r                    228.72917827 [mEh]     143.52972629 [kcal/mol]     600.52837480 [kJ/mol]
      Elst12,r                     -0.08904622 [mEh]      -0.05587735 [kcal/mol]      -0.23379083 [kJ/mol]

    Exchange                        0.06264393 [mEh]       0.03930966 [kcal/mol]       0.16447161 [kJ/mol]
      Exch10                        0.05569604 [mEh]       0.03494979 [kcal/mol]       0.14622994 [kJ/mol]
      Exch10(S^2)                   0.05569502 [mEh]       0.03494915 [kcal/mol]       0.14622726 [kJ/mol]
      Exch11(S^2)                  -0.00003956 [mEh]      -0.00002482 [kcal/mol]      -0.00010386 [kJ/mol]
      Exch12(S^2)                   0.00698744 [mEh]       0.00438469 [kcal/mol]       0.01834553 [kJ/mol]

    Induction                      -1.01181601 [mEh]      -0.63492413 [kcal/mol]      -2.65652256 [kJ/mol]
      Ind20,r                      -0.94629921 [mEh]      -0.59381172 [kcal/mol]      -2.48450824 [kJ/mol]
      Ind22                        -0.06490826 [mEh]      -0.04073055 [kcal/mol]      -0.17041661 [kJ/mol]
      Exch-Ind20,r                  0.01846947 [mEh]       0.01158976 [kcal/mol]       0.04849158 [kJ/mol]
      Exch-Ind22                    0.00126685 [mEh]       0.00079496 [kcal/mol]       0.00332612 [kJ/mol]
      delta HF,r (2)               -0.02034486 [mEh]      -0.01276659 [kcal/mol]      -0.05341541 [kJ/mol]

    Dispersion                     -0.02358851 [mEh]      -0.01480201 [kcal/mol]      -0.06193162 [kJ/mol]
      Disp20                       -0.01853849 [mEh]      -0.01163308 [kcal/mol]      -0.04867280 [kJ/mol]
      Disp21                       -0.00292647 [mEh]      -0.00183639 [kcal/mol]      -0.00768345 [kJ/mol]
      Disp22 (SDQ)                 -0.00153119 [mEh]      -0.00096083 [kcal/mol]      -0.00402013 [kJ/mol]
      Disp22 (T)                   -0.00054877 [mEh]      -0.00034436 [kcal/mol]      -0.00144080 [kJ/mol]
      Est. Disp22 (T)              -0.00069374 [mEh]      -0.00043533 [kcal/mol]      -0.00182142 [kJ/mol]
      Exch-Disp20                   0.00010138 [mEh]       0.00006362 [kcal/mol]       0.00026617 [kJ/mol]

  Total HF                        227.83669971 [mEh]     142.96968754 [kcal/mol]     598.18517267 [kJ/mol]
  Total SAPT0                     227.81826260 [mEh]     142.95811808 [kcal/mol]     598.13676604 [kJ/mol]
  Total SAPT2                     227.67252285 [mEh]     142.86666501 [kcal/mol]     597.75412639 [kJ/mol]
  Total SAPT2+                    227.66737145 [mEh]     142.86343246 [kcal/mol]     597.74060140 [kJ/mol]

  Special recipe for scaled SAPT0 (see Manual):
    Electrostatics sSAPT0         228.72917827 [mEh]     143.52972629 [kcal/mol]     600.52837480 [kJ/mol]
    Exchange sSAPT0                 0.05569604 [mEh]       0.03494979 [kcal/mol]       0.14622994 [kJ/mol]
    Induction sSAPT0               -0.94817359 [mEh]      -0.59498791 [kcal/mol]      -2.48942941 [kJ/mol]
    Dispersion sSAPT0              -0.01843710 [mEh]      -0.01156946 [kcal/mol]      -0.04840661 [kJ/mol]
  Total sSAPT0                    227.81826362 [mEh]     142.95811872 [kcal/mol]     598.13676872 [kJ/mol]
  --------------------------------------------------------------------------------------------------------

*** tstop() called on moses-razer at Wed Jan  3 23:13:04 2024
Module time:
	user time   =       5.43 seconds =       0.09 minutes
	system time =       0.44 seconds =       0.01 minutes
	total time  =          2 seconds =       0.03 minutes
Total time:
	user time   =      16.43 seconds =       0.27 minutes
	system time =       1.83 seconds =       0.03 minutes
	total time  =          5 seconds =       0.08 minutes

    Psi4 stopped on: Wednesday, 03 January 2024 11:13PM
    Psi4 wall time for execution: 0:00:05.01

*** Psi4 exiting successfully. Buy a developer a beer!
