
    -----------------------------------------------------------------------
          Psi4: An Open-Source Ab Initio Electronic Structure Package
                               Psi4 1.9 release

                         Git: Rev {} zzzzzzz 


    D. G. A. Smith, L. A. Burns, A. C. Simmonett, R. M. Parrish,
    M. C. Schieber, R. Galvelis, P. Kraus, H. Kruse, R. Di Remigio,
    A. Alenaizan, A. M. James, S. Lehtola, J. P. Misiewicz, M. Scheurer,
    R. A. Shaw, J. B. Schriber, Y. Xie, Z. L. Glick, D. A. Sirianni,
    J. S. O'Brien, J. M. Waldrop, A. Kumar, E. G. Hohenstein,
    B. P. Pritchard, B. R. Brooks, H. F. Schaefer III, A. Yu. Sokolov,
    K. Patkowski, A. E. DePrince III, U. Bozkaya, R. A. King,
    F. A. Evangelista, J. M. Turney, T. D. Crawford, C. D. Sherrill,
    J. Chem. Phys. 152(18) 184108 (2020). https://doi.org/10.1063/5.0006002

                            Additional Code Authors
    E. T. Seidl, C. L. Janssen, E. F. Valeev, M. L. Leininger,
    J. F. Gonthier, R. M. Richard, H. R. McAlexander, M. Saitow, X. Wang,
    P. Verma, M. H. Lechner, A. Jiang, S. Behnle, A. G. Heide,
    M. F. Herbst, and D. L. Poole

             Previous Authors, Complete List of Code Contributors,
                       and Citations for Specific Modules
    https://github.com/psi4/psi4/blob/master/codemeta.json
    https://github.com/psi4/psi4/graphs/contributors
    http://psicode.org/psi4manual/master/introduction.html#citing-psifour

    -----------------------------------------------------------------------


    Psi4 started on: Wednesday, 03 January 2024 11:13PM

    Process ID: 449252
    Host:       moses-razer
    PSIDATADIR: /home/kchung25/anaconda3/envs/psi4_19/share/psi4
    Memory:     500.0 MiB
    Threads:    6
    
  ==> Input File <==

--------------------------------------------------------------------------
MEMORY 60 GB

molecule dimer {
1 1
Li     0.000000     0.000000     0.000000
--
1 1
K      2.140000     0.000000     0.000000

units ang
no_reorient
no_com
symmetry c1
}

set {
basis        aug-cc-pVTZ
scf_type     df
}

energy("sapt2+")
--------------------------------------------------------------------------

  Memory set to  55.879 GiB by Python driver.

Scratch directory: /scratch/
   => Loading Basis Set <=

    Name: AUG-CC-PVTZ
    Role: ORBITAL
    Keyword: BASIS
    atoms 1 entry LI         line    85 file /home/kchung25/anaconda3/envs/p415env/share/psi4/basis/aug-cc-pvtz.gbs 
    atoms 2 entry K          line  1152 file /home/kchung25/anaconda3/envs/p415env/share/psi4/basis/aug-cc-pvtz.gbs 

   => Loading Basis Set <=

    Name: AUG-CC-PVTZ
    Role: ORBITAL
    Keyword: BASIS
    atoms 1 entry LI         line    85 file /home/kchung25/anaconda3/envs/p415env/share/psi4/basis/aug-cc-pvtz.gbs 
    atoms 2 entry K          line  1152 file /home/kchung25/anaconda3/envs/p415env/share/psi4/basis/aug-cc-pvtz.gbs 


  //>>>>>>>>>>>>>>>>>>>>>>>>>>>>>>>>>>>//
  //              Dimer HF             //
  //<<<<<<<<<<<<<<<<<<<<<<<<<<<<<<<<<<<//

   => Libint2 <=

    Primary   basis highest AM E, G, H:  5, 4, 3
    Auxiliary basis highest AM E, G, H:  6, 5, 4
    Onebody   basis highest AM E, G, H:  6, 5, 4
    Solid Harmonics ordering:            gaussian

*** tstart() called on moses-razer
*** at Wed Jan  3 23:13:21 2024

   => Loading Basis Set <=

    Name: AUG-CC-PVTZ
    Role: ORBITAL
    Keyword: BASIS
    atoms 1 entry LI         line    85 file /home/kchung25/anaconda3/envs/p415env/share/psi4/basis/aug-cc-pvtz.gbs 
    atoms 2 entry K          line  1152 file /home/kchung25/anaconda3/envs/p415env/share/psi4/basis/aug-cc-pvtz.gbs 


         ---------------------------------------------------------
                                   SCF
               by Justin Turney, Rob Parrish, Andy Simmonett
                          and Daniel G. A. Smith
                              RHF Reference
                        6 Threads,  57220 MiB Core
         ---------------------------------------------------------

  ==> Geometry <==

    Molecular point group: c1
    Full point group: C_inf_v

    Geometry (in Angstrom), charge = 2, multiplicity = 1:

       Center              X                  Y                   Z               Mass       
    ------------   -----------------  -----------------  -----------------  -----------------
         LI           0.000000000000     0.000000000000     0.000000000000     7.016003436600
         K            2.140000000000     0.000000000000     0.000000000000    38.963706486400

  Running in c1 symmetry.

  Rotational constants: A = ************  B =      0.09447  C =      0.09447 [cm^-1]
  Rotational constants: A = ************  B =   2832.23568  C =   2832.23568 [MHz]
  Nuclear repulsion =   14.094907013172897

  Charge       = 2
  Multiplicity = 1
  Electrons    = 20
  Nalpha       = 10
  Nbeta        = 10

  ==> Algorithm <==

  SCF Algorithm Type is DF.
  DIIS enabled.
  MOM disabled.
  Fractional occupation disabled.
  Guess Type is SAD.
  Energy threshold   = 1.00e-08
  Density threshold  = 1.00e-08
  Integral threshold = 1.00e-12

  ==> Primary Basis <==

  Basis Set: AUG-CC-PVTZ
    Blend: AUG-CC-PVTZ
    Number of shells: 33
    Number of basis functions: 105
    Number of Cartesian functions: 124
    Spherical Harmonics?: true
    Max angular momentum: 3

   => Loading Basis Set <=

    Name: (AUG-CC-PVTZ AUX)
    Role: JKFIT
    Keyword: DF_BASIS_SCF
    atoms 1 entry LI         line    54 file /home/kchung25/anaconda3/envs/p415env/share/psi4/basis/def2-universal-jkfit.gbs 
    atoms 2 entry K          line  1152 file /home/kchung25/anaconda3/envs/p415env/share/psi4/basis/def2-universal-jkfit.gbs 

  ==> Integral Setup <==

  ==> DiskDFJK: Density-Fitted J/K Matrices <==

    J tasked:                  Yes
    K tasked:                  Yes
    wK tasked:                  No
    OpenMP threads:              6
    Integrals threads:           6
    Memory [MiB]:            42915
    Algorithm:                Core
    Integral Cache:           SAVE
    Schwarz Cutoff:          1E-12
    Fitting Condition:       1E-10

   => Auxiliary Basis Set <=

  Basis Set: (AUG-CC-PVTZ AUX)
    Blend: DEF2-UNIVERSAL-JKFIT
    Number of shells: 61
    Number of basis functions: 211
    Number of Cartesian functions: 263
    Spherical Harmonics?: true
    Max angular momentum: 4

  Minimum eigenvalue in the overlap matrix is 4.6595371139E-05.
  Reciprocal condition number of the overlap matrix is 6.8776029783E-06.
    Using symmetric orthogonalization.

  ==> Pre-Iterations <==

  SCF Guess: Superposition of Atomic Densities via on-the-fly atomic UHF (no occupation information).

   -------------------------
    Irrep   Nso     Nmo    
   -------------------------
     A        105     105 
   -------------------------
    Total     105     105
   -------------------------

  ==> Iterations <==

                           Total Energy        Delta E     RMS |[F,P]|

   @DF-RHF iter SAD:  -606.37124207699173   -6.06371e+02   0.00000e+00 
   @DF-RHF iter   1:  -606.01265765048299    3.58584e-01   3.23304e-04 ADIIS/DIIS
   @DF-RHF iter   2:  -606.01350739746886   -8.49747e-04   6.74123e-05 DIIS
   @DF-RHF iter   3:  -606.01354738782607   -3.99904e-05   1.10245e-05 DIIS
   @DF-RHF iter   4:  -606.01354836981625   -9.81990e-07   2.65236e-06 DIIS
   @DF-RHF iter   5:  -606.01354845240064   -8.25844e-08   5.32868e-07 DIIS
   @DF-RHF iter   6:  -606.01354845590436   -3.50371e-09   1.02144e-07 DIIS
   @DF-RHF iter   7:  -606.01354845602816   -1.23805e-10   1.17464e-08 DIIS
   @DF-RHF iter   8:  -606.01354845602975   -1.59162e-12   6.12986e-10 DIIS
  Energy and wave function converged.


  ==> Post-Iterations <==

    Orbital Energies [Eh]
    ---------------------

    Doubly Occupied:                                                      

       1A   -134.008784     2A    -14.962448     3A    -11.993122  
       4A    -11.992318     5A    -11.992318     6A     -3.018572  
       7A     -2.214515     8A     -1.432255     9A     -1.414225  
      10A     -1.414225  

    Virtual:                                                              

      11A     -0.368731    12A     -0.316765    13A     -0.316765  
      14A     -0.281308    15A     -0.218472    16A     -0.215600  
      17A     -0.215600    18A     -0.211064    19A     -0.211064  
      20A     -0.203304    21A     -0.164791    22A     -0.164791  
      23A     -0.161131    24A     -0.142515    25A     -0.136940  
      26A     -0.136940    27A     -0.128880    28A     -0.128880  
      29A     -0.120025    30A     -0.120025    31A     -0.118589  
      32A     -0.116096    33A     -0.116096    34A     -0.114616  
      35A     -0.103437    36A     -0.103437    37A     -0.098492  
      38A     -0.098492    39A     -0.098125    40A     -0.087432  
      41A     -0.086344    42A     -0.086344    43A     -0.080266  
      44A     -0.080266    45A     -0.076649    46A     -0.076649  
      47A     -0.073832    48A     -0.067606    49A     -0.057639  
      50A     -0.057639    51A     -0.053393    52A     -0.051875  
      53A     -0.050806    54A     -0.050806    55A     -0.047519  
      56A     -0.046870    57A     -0.046870    58A     -0.021931  
      59A     -0.021931    60A     -0.019246    61A     -0.007446  
      62A     -0.007446    63A      0.007457    64A      0.009642  
      65A      0.009642    66A      0.023554    67A      0.023554  
      68A      0.036835    69A      0.036835    70A      0.048949  
      71A      0.049019    72A      0.049019    73A      0.088052  
      74A      0.088052    75A      0.095368    76A      0.095368  
      77A      0.096214    78A      0.109346    79A      0.109857  
      80A      0.109857    81A      0.137185    82A      0.137185  
      83A      0.146942    84A      0.174086    85A      0.181574  
      86A      0.181574    87A      0.238368    88A      0.238368  
      89A      0.288520    90A      0.288520    91A      0.388870  
      92A      0.388870    93A      0.393334    94A      0.393334  
      95A      0.416747    96A      0.455208    97A      0.455208  
      98A      0.471964    99A      0.471964   100A      0.529545  
     101A      0.529545   102A      0.543134   103A      0.598827  
     104A      1.095610   105A      2.523093  

    Final Occupation by Irrep:
              A 
    DOCC [    10 ]
    NA   [    10 ]
    NB   [    10 ]

  @DF-RHF Final Energy:  -606.01354845602975

   => Energetics <=

    Nuclear Repulsion Energy =             14.0949070131728966
    One-Electron Energy =                -851.3313468268005408
    Two-Electron Energy =                 231.2228913575979732
    Total Energy =                       -606.0135484560296391

Computation Completed


Properties will be evaluated at   0.000000,   0.000000,   0.000000 [a0]

Properties computed using the SCF density matrix


 Multipole Moments:

 ------------------------------------------------------------------------------------
     Multipole            Electronic (a.u.)      Nuclear  (a.u.)        Total (a.u.)
 ------------------------------------------------------------------------------------

 L = 1.  Multiply by 2.5417464519 to convert [e a0] to [Debye]
 Dipole X            :        -72.4913451           76.8362643            4.3449191
 Dipole Y            :         -0.0000000            0.0000000           -0.0000000
 Dipole Z            :          0.0000000            0.0000000            0.0000000
 Magnitude           :                                                    4.3449191

 ------------------------------------------------------------------------------------

*** tstop() called on moses-razer at Wed Jan  3 23:13:27 2024
Module time:
	user time   =       9.79 seconds =       0.16 minutes
	system time =       2.25 seconds =       0.04 minutes
	total time  =          6 seconds =       0.10 minutes
Total time:
	user time   =       9.79 seconds =       0.16 minutes
	system time =       2.25 seconds =       0.04 minutes
	total time  =          6 seconds =       0.10 minutes

  //>>>>>>>>>>>>>>>>>>>>>>>>>>>>>>>>>>>//
  //            Monomer A HF           //
  //<<<<<<<<<<<<<<<<<<<<<<<<<<<<<<<<<<<//

   => Libint2 <=

    Primary   basis highest AM E, G, H:  5, 4, 3
    Auxiliary basis highest AM E, G, H:  6, 5, 4
    Onebody   basis highest AM E, G, H:  6, 5, 4
    Solid Harmonics ordering:            gaussian

*** tstart() called on moses-razer
*** at Wed Jan  3 23:13:27 2024

   => Loading Basis Set <=

    Name: AUG-CC-PVTZ
    Role: ORBITAL
    Keyword: BASIS
    atoms 1 entry LI         line    85 file /home/kchung25/anaconda3/envs/p415env/share/psi4/basis/aug-cc-pvtz.gbs 
    atoms 2 entry K          line  1152 file /home/kchung25/anaconda3/envs/p415env/share/psi4/basis/aug-cc-pvtz.gbs 


         ---------------------------------------------------------
                                   SCF
               by Justin Turney, Rob Parrish, Andy Simmonett
                          and Daniel G. A. Smith
                              RHF Reference
                        6 Threads,  57220 MiB Core
         ---------------------------------------------------------

  ==> Geometry <==

    Molecular point group: c1
    Full point group: C_inf_v

    Geometry (in Angstrom), charge = 1, multiplicity = 1:

       Center              X                  Y                   Z               Mass       
    ------------   -----------------  -----------------  -----------------  -----------------
         LI           0.000000000000     0.000000000000     0.000000000000     7.016003436600
      Gh(K)           2.140000000000     0.000000000000     0.000000000000    38.963706486400

  Running in c1 symmetry.

  Rotational constants: A = ************  B =      0.09447  C =      0.09447 [cm^-1]
  Rotational constants: A = ************  B =   2832.23568  C =   2832.23568 [MHz]
  Nuclear repulsion =    0.000000000000000

  Charge       = 1
  Multiplicity = 1
  Electrons    = 2
  Nalpha       = 1
  Nbeta        = 1

  ==> Algorithm <==

  SCF Algorithm Type is DF.
  DIIS enabled.
  MOM disabled.
  Fractional occupation disabled.
  Guess Type is SAD.
  Energy threshold   = 1.00e-08
  Density threshold  = 1.00e-08
  Integral threshold = 1.00e-12

  ==> Primary Basis <==

  Basis Set: AUG-CC-PVTZ
    Blend: AUG-CC-PVTZ
    Number of shells: 33
    Number of basis functions: 105
    Number of Cartesian functions: 124
    Spherical Harmonics?: true
    Max angular momentum: 3

   => Loading Basis Set <=

    Name: (AUG-CC-PVTZ AUX)
    Role: JKFIT
    Keyword: DF_BASIS_SCF
    atoms 1 entry LI         line    54 file /home/kchung25/anaconda3/envs/p415env/share/psi4/basis/def2-universal-jkfit.gbs 
    atoms 2 entry K          line  1152 file /home/kchung25/anaconda3/envs/p415env/share/psi4/basis/def2-universal-jkfit.gbs 

  ==> Integral Setup <==

  ==> DiskDFJK: Density-Fitted J/K Matrices <==

    J tasked:                  Yes
    K tasked:                  Yes
    wK tasked:                  No
    OpenMP threads:              6
    Integrals threads:           6
    Memory [MiB]:            42915
    Algorithm:                Core
    Integral Cache:           LOAD
    Schwarz Cutoff:          1E-12
    Fitting Condition:       1E-10

   => Auxiliary Basis Set <=

  Basis Set: (AUG-CC-PVTZ AUX)
    Blend: DEF2-UNIVERSAL-JKFIT
    Number of shells: 61
    Number of basis functions: 211
    Number of Cartesian functions: 263
    Spherical Harmonics?: true
    Max angular momentum: 4

  Minimum eigenvalue in the overlap matrix is 4.6595371139E-05.
  Reciprocal condition number of the overlap matrix is 6.8776029783E-06.
    Using symmetric orthogonalization.

  ==> Pre-Iterations <==

  SCF Guess: Superposition of Atomic Densities via on-the-fly atomic UHF (no occupation information).

   -------------------------
    Irrep   Nso     Nmo    
   -------------------------
     A        105     105 
   -------------------------
    Total     105     105
   -------------------------

  ==> Iterations <==

                           Total Energy        Delta E     RMS |[F,P]|

   @DF-RHF iter SAD:    -7.31411889261978   -7.31412e+00   0.00000e+00 
   @DF-RHF iter   1:    -7.23638112741215    7.77378e-02   2.14171e-05 DIIS
   @DF-RHF iter   2:    -7.23638296303816   -1.83563e-06   2.37280e-06 DIIS
   @DF-RHF iter   3:    -7.23638298928847   -2.62503e-08   1.00110e-07 DIIS
   @DF-RHF iter   4:    -7.23638298932709   -3.86251e-11   7.15604e-10 DIIS
  Energy and wave function converged.


  ==> Post-Iterations <==

    Orbital Energies [Eh]
    ---------------------

    Doubly Occupied:                                                      

       1A     -2.792370  

    Virtual:                                                              

       2A     -0.196298     3A     -0.128601     4A     -0.128598  
       5A     -0.128598     6A     -0.073767     7A     -0.056737  
       8A     -0.056737     9A     -0.056708    10A     -0.055291  
      11A     -0.055002    12A     -0.055002    13A     -0.052575  
      14A     -0.052575    15A     -0.034989    16A     -0.030029  
      17A     -0.030029    18A     -0.029988    19A     -0.029642  
      20A     -0.029642    21A     -0.028919    22A     -0.027287  
      23A     -0.027287    24A     -0.018849    25A     -0.018773  
      26A     -0.018773    27A     -0.008743    28A      0.002359  
      29A      0.004543    30A      0.004543    31A      0.008699  
      32A      0.008699    33A      0.015245    34A      0.015245  
      35A      0.028414    36A      0.028414    37A      0.029118  
      38A      0.054165    39A      0.054165    40A      0.054365  
      41A      0.062254    42A      0.062867    43A      0.062867  
      44A      0.072446    45A      0.072446    46A      0.072898  
      47A      0.093314    48A      0.105314    49A      0.105314  
      50A      0.117155    51A      0.117155    52A      0.160805  
      53A      0.164906    54A      0.164906    55A      0.166411  
      56A      0.166411    57A      0.196451    58A      0.196451  
      59A      0.197739    60A      0.215052    61A      0.215052  
      62A      0.223298    63A      0.235261    64A      0.235261  
      65A      0.249897    66A      0.249897    67A      0.258774  
      68A      0.302461    69A      0.302461    70A      0.362043  
      71A      0.366784    72A      0.366784    73A      0.390885  
      74A      0.390885    75A      0.440390    76A      0.440390  
      77A      0.444198    78A      0.562418    79A      0.562418  
      80A      0.576991    81A      0.576991    82A      0.597141  
      83A      0.597141    84A      0.604158    85A      0.640603  
      86A      0.640603    87A      0.644267    88A      0.680037  
      89A      0.680037    90A      0.689988    91A      1.748242  
      92A      1.748242    93A      1.885071    94A      1.947430  
      95A      1.947430    96A      2.203677    97A      2.458925  
      98A      2.496223    99A      2.496223   100A      2.851194  
     101A     10.068020   102A     30.271369   103A     30.271369  
     104A     30.739288   105A    197.668273  

    Final Occupation by Irrep:
              A 
    DOCC [     1 ]
    NA   [     1 ]
    NB   [     1 ]

  @DF-RHF Final Energy:    -7.23638298932709

   => Energetics <=

    Nuclear Repulsion Energy =              0.0000000000000000
    One-Electron Energy =                  -8.8880268458160199
    Two-Electron Energy =                   1.6516438564889266
    Total Energy =                         -7.2363829893270930

Computation Completed


Properties will be evaluated at   0.000000,   0.000000,   0.000000 [a0]

Properties computed using the SCF density matrix


 Multipole Moments:

 ------------------------------------------------------------------------------------
     Multipole            Electronic (a.u.)      Nuclear  (a.u.)        Total (a.u.)
 ------------------------------------------------------------------------------------

 L = 1.  Multiply by 2.5417464519 to convert [e a0] to [Debye]
 Dipole X            :          0.0000012            0.0000000            0.0000012
 Dipole Y            :         -0.0000000            0.0000000           -0.0000000
 Dipole Z            :         -0.0000000            0.0000000           -0.0000000
 Magnitude           :                                                    0.0000012

 ------------------------------------------------------------------------------------

*** tstop() called on moses-razer at Wed Jan  3 23:13:30 2024
Module time:
	user time   =       4.89 seconds =       0.08 minutes
	system time =       0.84 seconds =       0.01 minutes
	total time  =          3 seconds =       0.05 minutes
Total time:
	user time   =      14.70 seconds =       0.24 minutes
	system time =       3.09 seconds =       0.05 minutes
	total time  =          9 seconds =       0.15 minutes

  //>>>>>>>>>>>>>>>>>>>>>>>>>>>>>>>>>>>//
  //            Monomer B HF           //
  //<<<<<<<<<<<<<<<<<<<<<<<<<<<<<<<<<<<//

   => Libint2 <=

    Primary   basis highest AM E, G, H:  5, 4, 3
    Auxiliary basis highest AM E, G, H:  6, 5, 4
    Onebody   basis highest AM E, G, H:  6, 5, 4
    Solid Harmonics ordering:            gaussian

*** tstart() called on moses-razer
*** at Wed Jan  3 23:13:30 2024

   => Loading Basis Set <=

    Name: AUG-CC-PVTZ
    Role: ORBITAL
    Keyword: BASIS
    atoms 1 entry LI         line    85 file /home/kchung25/anaconda3/envs/p415env/share/psi4/basis/aug-cc-pvtz.gbs 
    atoms 2 entry K          line  1152 file /home/kchung25/anaconda3/envs/p415env/share/psi4/basis/aug-cc-pvtz.gbs 


         ---------------------------------------------------------
                                   SCF
               by Justin Turney, Rob Parrish, Andy Simmonett
                          and Daniel G. A. Smith
                              RHF Reference
                        6 Threads,  57220 MiB Core
         ---------------------------------------------------------

  ==> Geometry <==

    Molecular point group: c1
    Full point group: C_inf_v

    Geometry (in Angstrom), charge = 1, multiplicity = 1:

       Center              X                  Y                   Z               Mass       
    ------------   -----------------  -----------------  -----------------  -----------------
      Gh(LI)          0.000000000000     0.000000000000     0.000000000000     7.016003436600
         K            2.140000000000     0.000000000000     0.000000000000    38.963706486400

  Running in c1 symmetry.

  Rotational constants: A = ************  B =      0.09447  C =      0.09447 [cm^-1]
  Rotational constants: A = ************  B =   2832.23568  C =   2832.23568 [MHz]
  Nuclear repulsion =    0.000000000000000

  Charge       = 1
  Multiplicity = 1
  Electrons    = 18
  Nalpha       = 9
  Nbeta        = 9

  ==> Algorithm <==

  SCF Algorithm Type is DF.
  DIIS enabled.
  MOM disabled.
  Fractional occupation disabled.
  Guess Type is SAD.
  Energy threshold   = 1.00e-08
  Density threshold  = 1.00e-08
  Integral threshold = 1.00e-12

  ==> Primary Basis <==

  Basis Set: AUG-CC-PVTZ
    Blend: AUG-CC-PVTZ
    Number of shells: 33
    Number of basis functions: 105
    Number of Cartesian functions: 124
    Spherical Harmonics?: true
    Max angular momentum: 3

   => Loading Basis Set <=

    Name: (AUG-CC-PVTZ AUX)
    Role: JKFIT
    Keyword: DF_BASIS_SCF
    atoms 1 entry LI         line    54 file /home/kchung25/anaconda3/envs/p415env/share/psi4/basis/def2-universal-jkfit.gbs 
    atoms 2 entry K          line  1152 file /home/kchung25/anaconda3/envs/p415env/share/psi4/basis/def2-universal-jkfit.gbs 

  ==> Integral Setup <==

  ==> DiskDFJK: Density-Fitted J/K Matrices <==

    J tasked:                  Yes
    K tasked:                  Yes
    wK tasked:                  No
    OpenMP threads:              6
    Integrals threads:           6
    Memory [MiB]:            42915
    Algorithm:                Core
    Integral Cache:           LOAD
    Schwarz Cutoff:          1E-12
    Fitting Condition:       1E-10

   => Auxiliary Basis Set <=

  Basis Set: (AUG-CC-PVTZ AUX)
    Blend: DEF2-UNIVERSAL-JKFIT
    Number of shells: 61
    Number of basis functions: 211
    Number of Cartesian functions: 263
    Spherical Harmonics?: true
    Max angular momentum: 4

  Minimum eigenvalue in the overlap matrix is 4.6595371139E-05.
  Reciprocal condition number of the overlap matrix is 6.8776029783E-06.
    Using symmetric orthogonalization.

  ==> Pre-Iterations <==

  SCF Guess: Superposition of Atomic Densities via on-the-fly atomic UHF (no occupation information).

   -------------------------
    Irrep   Nso     Nmo    
   -------------------------
     A        105     105 
   -------------------------
    Total     105     105
   -------------------------

  ==> Iterations <==

                           Total Energy        Delta E     RMS |[F,P]|

   @DF-RHF iter SAD:  -599.05181391946633   -5.99052e+02   0.00000e+00 
   @DF-RHF iter   1:  -599.01747192471339    3.43420e-02   7.94614e-05 DIIS
   @DF-RHF iter   2:  -599.01751023843087   -3.83137e-05   1.01089e-05 DIIS
   @DF-RHF iter   3:  -599.01751116292155   -9.24491e-07   1.22435e-06 DIIS
   @DF-RHF iter   4:  -599.01751117317292   -1.02514e-08   1.16488e-07 DIIS
   @DF-RHF iter   5:  -599.01751117328388   -1.10958e-10   2.89762e-08 DIIS
   @DF-RHF iter   6:  -599.01751117329195   -8.07177e-12   8.41899e-09 DIIS
  Energy and wave function converged.


  ==> Post-Iterations <==

    Orbital Energies [Eh]
    ---------------------

    Doubly Occupied:                                                      

       1A   -133.753170     2A    -14.708741     3A    -11.738809  
       4A    -11.738805     5A    -11.738805     6A     -1.964143  
       7A     -1.170818     8A     -1.170784     9A     -1.170784  

    Virtual:                                                              

      10A     -0.146967    11A     -0.095559    12A     -0.095552  
      13A     -0.095552    14A     -0.060843    15A     -0.057887  
      16A     -0.057864    17A     -0.057864    18A     -0.057805  
      19A     -0.057805    20A     -0.045541    21A     -0.045537  
      22A     -0.045537    23A     -0.031573    24A     -0.031453  
      25A     -0.031453    26A     -0.031224    27A     -0.031224  
      28A     -0.027952    29A     -0.026035    30A     -0.025417  
      31A     -0.025417    32A     -0.018018    33A     -0.018018  
      34A     -0.017419    35A      0.001100    36A      0.004047  
      37A      0.004047    38A      0.013093    39A      0.014537  
      40A      0.014537    41A      0.015630    42A      0.015630  
      43A      0.016555    44A      0.016555    45A      0.019446  
      46A      0.027583    47A      0.027583    48A      0.054677  
      49A      0.054677    50A      0.057308    51A      0.077096  
      52A      0.077851    53A      0.077851    54A      0.079365  
      55A      0.079365    56A      0.100124    57A      0.117186  
      58A      0.117186    59A      0.117726    60A      0.125107  
      61A      0.173744    62A      0.173744    63A      0.192448  
      64A      0.192448    65A      0.195591    66A      0.195591  
      67A      0.223706    68A      0.223706    69A      0.226342  
      70A      0.226342    71A      0.231610    72A      0.247831  
      73A      0.247831    74A      0.277860    75A      0.284602  
      76A      0.284602    77A      0.294771    78A      0.294771  
      79A      0.304331    80A      0.322567    81A      0.325157  
      82A      0.325157    83A      0.348559    84A      0.348559  
      85A      0.376297    86A      0.466940    87A      0.466940  
      88A      0.653384    89A      0.653384    90A      0.691918  
      91A      0.691918    92A      0.707611    93A      0.707611  
      94A      0.774331    95A      0.774331    96A      0.780887  
      97A      0.799659    98A      0.799659    99A      0.893690  
     100A      0.895855   101A      0.895855   102A      1.111425  
     103A      1.239253   104A      1.321845   105A     10.037866  

    Final Occupation by Irrep:
              A 
    DOCC [     9 ]
    NA   [     9 ]
    NB   [     9 ]

  @DF-RHF Final Energy:  -599.01751117329195

   => Energetics <=

    Nuclear Repulsion Energy =              0.0000000000000000
    One-Electron Energy =                -819.7253061327359092
    Two-Electron Energy =                 220.7077949594439872
    Total Energy =                       -599.0175111732919504

Computation Completed


Properties will be evaluated at   0.000000,   0.000000,   0.000000 [a0]

Properties computed using the SCF density matrix


 Multipole Moments:

 ------------------------------------------------------------------------------------
     Multipole            Electronic (a.u.)      Nuclear  (a.u.)        Total (a.u.)
 ------------------------------------------------------------------------------------

 L = 1.  Multiply by 2.5417464519 to convert [e a0] to [Debye]
 Dipole X            :        -72.7928196           76.8362643            4.0434446
 Dipole Y            :         -0.0000000            0.0000000           -0.0000000
 Dipole Z            :          0.0000000            0.0000000            0.0000000
 Magnitude           :                                                    4.0434446

 ------------------------------------------------------------------------------------

*** tstop() called on moses-razer at Wed Jan  3 23:13:36 2024
Module time:
	user time   =       8.50 seconds =       0.14 minutes
	system time =       2.08 seconds =       0.03 minutes
	total time  =          6 seconds =       0.10 minutes
Total time:
	user time   =      23.22 seconds =       0.39 minutes
	system time =       5.17 seconds =       0.09 minutes
	total time  =         15 seconds =       0.25 minutes
  Constructing Basis Sets for SAPT...

   => Loading Basis Set <=

    Name: (AUG-CC-PVTZ AUX)
    Role: RIFIT
    Keyword: DF_BASIS_SAPT
    atoms 1 entry LI         line    90 file /home/kchung25/anaconda3/envs/p415env/share/psi4/basis/def2-qzvpp-ri.gbs 
    atoms 2 entry K          line  1282 file /home/kchung25/anaconda3/envs/p415env/share/psi4/basis/def2-qzvpp-ri.gbs 

   => Loading Basis Set <=

    Name: (AUG-CC-PVTZ AUX)
    Role: JKFIT
    Keyword: DF_BASIS_ELST
    atoms 1 entry LI         line    54 file /home/kchung25/anaconda3/envs/p415env/share/psi4/basis/def2-universal-jkfit.gbs 
    atoms 2 entry K          line  1152 file /home/kchung25/anaconda3/envs/p415env/share/psi4/basis/def2-universal-jkfit.gbs 


  //>>>>>>>>>>>>>>>>>>>>>>>>>>>>>>>>>>>//
  //               SAPT2+              //
  //<<<<<<<<<<<<<<<<<<<<<<<<<<<<<<<<<<<//


*** tstart() called on moses-razer
*** at Wed Jan  3 23:13:36 2024

        SAPT2+  
    Ed Hohenstein
     6 June 2009

      Orbital Information
  --------------------------
    NSO        =       105
    NMO        =       105
    NRI        =       300
    NOCC A     =         1
    NOCC B     =         9
    FOCC A     =         0
    FOCC B     =         0
    NVIR A     =       104
    NVIR B     =        96

    Estimated memory usage: 47.0 MB

    Natural Orbital Cutoff:   1.000E-06
    Disp(T3) Truncation:            Yes
    CCD (vv|vv) Truncation:         Yes
    MBPT T2 Truncation:             Yes

    Monomer A: 99 virtual orbitals dropped
    Monomer B: 69 virtual orbitals dropped

    Elst10,r            =     0.247179960632 [Eh]
    Exch10 (S^2)        =     0.004083617920 [Eh]
    Exch10              =     0.004088262288 [Eh]
    Ind20,r (A<-B)      =    -0.000308331455 [Eh]
    Ind20,r (B<-A)      =    -0.012610742696 [Eh]
    Ind20,r             =    -0.012919074151 [Eh]
    Exch-Ind20,r (A<-B) =     0.000042849203 [Eh]
    Exch-Ind20,r (B<-A) =     0.002224357282 [Eh]
    Exch-Ind20,r        =     0.002267206485 [Eh]
    Disp20              =    -0.000290518223 [Eh]
    Disp20 (NO)         =    -0.000250087513 [Eh]
    Exch-Disp20         =     0.000013851026 [Eh]
    Elst12,r            =     0.000492396886 [Eh]
    Exch11              =    -0.000024703500 [Eh]
    Exch12              =     0.000173403964 [Eh]
    Ind22               =    -0.000261309699 [Eh]
    Disp21              =    -0.000003009042 [Eh]
    Disp22 (SDQ)        =    -0.000004289794 [Eh]

    (i =   1 of   9)          0 seconds
    (i =   2 of   9)          0 seconds
    (i =   3 of   9)          0 seconds
    (i =   4 of   9)          0 seconds
    (i =   5 of   9)          0 seconds
    (i =   6 of   9)          0 seconds
    (i =   7 of   9)          0 seconds
    (i =   8 of   9)          0 seconds
    (i =   9 of   9)          0 seconds

    Disp220 (T)         =    -0.000003898724 [Eh]

    (i =   1 of   1)          0 seconds

    Disp202 (T)         =    -0.000006504646 [Eh]

    Disp22 (T)          =    -0.000010403370 [Eh]

    Est. Disp220 (T)    =    -0.000004529016 [Eh]
    Est. Disp202 (T)    =    -0.000007556228 [Eh]

    Est. Disp22 (T)     =    -0.000012085244 [Eh]

    SAPT Results 
  --------------------------------------------------------------------------------------------------------
    Electrostatics                247.67235752 [mEh]     155.41675074 [kcal/mol]     650.26368508 [kJ/mol]
      Elst10,r                    247.17996063 [mEh]     155.10776702 [kcal/mol]     648.97089723 [kJ/mol]
      Elst12,r                      0.49239689 [mEh]       0.30898371 [kcal/mol]       1.29278785 [kJ/mol]

    Exchange                        4.23696275 [mEh]       2.65873427 [kcal/mol]      11.12414417 [kJ/mol]
      Exch10                        4.08826229 [mEh]       2.56542332 [kcal/mol]      10.73373116 [kJ/mol]
      Exch10(S^2)                   4.08361792 [mEh]       2.56250893 [kcal/mol]      10.72153737 [kJ/mol]
      Exch11(S^2)                  -0.02470350 [mEh]      -0.01550168 [kcal/mol]      -0.06485903 [kJ/mol]
      Exch12(S^2)                   0.17340396 [mEh]       0.10881263 [kcal/mol]       0.45527204 [kJ/mol]

    Induction                     -11.13796802 [mEh]      -6.98918045 [kcal/mol]     -29.24273100 [kJ/mol]
      Ind20,r                     -12.91907415 [mEh]      -8.10684142 [kcal/mol]     -33.91902451 [kJ/mol]
      Ind22                        -0.26130970 [mEh]      -0.16397431 [kcal/mol]      -0.68606852 [kJ/mol]
      Exch-Ind20,r                  2.26720648 [mEh]       1.42269355 [kcal/mol]       5.95254981 [kJ/mol]
      Exch-Ind22                    0.04585801 [mEh]       0.02877634 [kcal/mol]       0.12040019 [kJ/mol]
      delta HF,r (2)               -0.27064866 [mEh]      -0.16983460 [kcal/mol]      -0.71058797 [kJ/mol]

    Dispersion                     -0.29605128 [mEh]      -0.18577498 [kcal/mol]      -0.77728252 [kJ/mol]
      Disp20                       -0.29051822 [mEh]      -0.18230294 [kcal/mol]      -0.76275549 [kJ/mol]
      Disp21                       -0.00300904 [mEh]      -0.00188820 [kcal/mol]      -0.00790024 [kJ/mol]
      Disp22 (SDQ)                 -0.00428979 [mEh]      -0.00269189 [kcal/mol]      -0.01126285 [kJ/mol]
      Disp22 (T)                   -0.01040337 [mEh]      -0.00652821 [kcal/mol]      -0.02731404 [kJ/mol]
      Est. Disp22 (T)              -0.01208524 [mEh]      -0.00758360 [kcal/mol]      -0.03172980 [kJ/mol]
      Exch-Disp20                   0.01385103 [mEh]       0.00869165 [kcal/mol]       0.03636586 [kJ/mol]

  Total HF                        240.34570659 [mEh]     150.81920787 [kcal/mol]     631.02756571 [kJ/mol]
  Total SAPT0                     240.06903939 [mEh]     150.64559658 [kcal/mol]     630.30117609 [kJ/mol]
  Total SAPT2                     240.49468505 [mEh]     150.91269326 [kcal/mol]     631.41870862 [kJ/mol]
  Total SAPT2+                    240.47530097 [mEh]     150.90052957 [kcal/mol]     631.36781573 [kJ/mol]

  Special recipe for scaled SAPT0 (see Manual):
    Electrostatics sSAPT0         247.17996063 [mEh]     155.10776702 [kcal/mol]     648.97089723 [kJ/mol]
    Exchange sSAPT0                 4.08826229 [mEh]       2.56542332 [kcal/mol]      10.73373116 [kJ/mol]
    Induction sSAPT0              -10.91477193 [mEh]      -6.84912279 [kcal/mol]     -28.65672976 [kJ/mol]
    Dispersion sSAPT0              -0.27661988 [mEh]      -0.17358160 [kcal/mol]      -0.72626541 [kJ/mol]
  Total sSAPT0                    240.07683110 [mEh]     150.65048595 [kcal/mol]     630.32163322 [kJ/mol]
  --------------------------------------------------------------------------------------------------------

*** tstop() called on moses-razer at Wed Jan  3 23:13:46 2024
Module time:
	user time   =      16.42 seconds =       0.27 minutes
	system time =       1.23 seconds =       0.02 minutes
	total time  =         10 seconds =       0.17 minutes
Total time:
	user time   =      40.02 seconds =       0.67 minutes
	system time =       6.40 seconds =       0.11 minutes
	total time  =         25 seconds =       0.42 minutes

    Psi4 stopped on: Wednesday, 03 January 2024 11:13PM
    Psi4 wall time for execution: 0:00:25.16

*** Psi4 exiting successfully. Buy a developer a beer!
