
    -----------------------------------------------------------------------
          Psi4: An Open-Source Ab Initio Electronic Structure Package
                               Psi4 1.9 release

                         Git: Rev {} zzzzzzz 


    D. G. A. Smith, L. A. Burns, A. C. Simmonett, R. M. Parrish,
    M. C. Schieber, R. Galvelis, P. Kraus, H. Kruse, R. Di Remigio,
    A. Alenaizan, A. M. James, S. Lehtola, J. P. Misiewicz, M. Scheurer,
    R. A. Shaw, J. B. Schriber, Y. Xie, Z. L. Glick, D. A. Sirianni,
    J. S. O'Brien, J. M. Waldrop, A. Kumar, E. G. Hohenstein,
    B. P. Pritchard, B. R. Brooks, H. F. Schaefer III, A. Yu. Sokolov,
    K. Patkowski, A. E. DePrince III, U. Bozkaya, R. A. King,
    F. A. Evangelista, J. M. Turney, T. D. Crawford, C. D. Sherrill,
    J. Chem. Phys. 152(18) 184108 (2020). https://doi.org/10.1063/5.0006002

                            Additional Code Authors
    E. T. Seidl, C. L. Janssen, E. F. Valeev, M. L. Leininger,
    J. F. Gonthier, R. M. Richard, H. R. McAlexander, M. Saitow, X. Wang,
    P. Verma, M. H. Lechner, A. Jiang, S. Behnle, A. G. Heide,
    M. F. Herbst, and D. L. Poole

             Previous Authors, Complete List of Code Contributors,
                       and Citations for Specific Modules
    https://github.com/psi4/psi4/blob/master/codemeta.json
    https://github.com/psi4/psi4/graphs/contributors
    http://psicode.org/psi4manual/master/introduction.html#citing-psifour

    -----------------------------------------------------------------------


    Psi4 started on: Wednesday, 03 January 2024 11:15PM

    Process ID: 449344
    Host:       moses-razer
    PSIDATADIR: /home/kchung25/anaconda3/envs/psi4_19/share/psi4
    Memory:     500.0 MiB
    Threads:    6
    
  ==> Input File <==

--------------------------------------------------------------------------
MEMORY 60 GB

molecule dimer {
1 1
Li     0.000000     0.000000     0.000000
--
1 1
K      2.996000     0.000000     0.000000

units ang
no_reorient
no_com
symmetry c1
}

set {
basis        aug-cc-pVTZ
scf_type     df
}

energy("sapt2+")
--------------------------------------------------------------------------

  Memory set to  55.879 GiB by Python driver.

Scratch directory: /scratch/
   => Loading Basis Set <=

    Name: AUG-CC-PVTZ
    Role: ORBITAL
    Keyword: BASIS
    atoms 1 entry LI         line    85 file /home/kchung25/anaconda3/envs/p415env/share/psi4/basis/aug-cc-pvtz.gbs 
    atoms 2 entry K          line  1152 file /home/kchung25/anaconda3/envs/p415env/share/psi4/basis/aug-cc-pvtz.gbs 

   => Loading Basis Set <=

    Name: AUG-CC-PVTZ
    Role: ORBITAL
    Keyword: BASIS
    atoms 1 entry LI         line    85 file /home/kchung25/anaconda3/envs/p415env/share/psi4/basis/aug-cc-pvtz.gbs 
    atoms 2 entry K          line  1152 file /home/kchung25/anaconda3/envs/p415env/share/psi4/basis/aug-cc-pvtz.gbs 


  //>>>>>>>>>>>>>>>>>>>>>>>>>>>>>>>>>>>//
  //              Dimer HF             //
  //<<<<<<<<<<<<<<<<<<<<<<<<<<<<<<<<<<<//

   => Libint2 <=

    Primary   basis highest AM E, G, H:  5, 4, 3
    Auxiliary basis highest AM E, G, H:  6, 5, 4
    Onebody   basis highest AM E, G, H:  6, 5, 4
    Solid Harmonics ordering:            gaussian

*** tstart() called on moses-razer
*** at Wed Jan  3 23:15:04 2024

   => Loading Basis Set <=

    Name: AUG-CC-PVTZ
    Role: ORBITAL
    Keyword: BASIS
    atoms 1 entry LI         line    85 file /home/kchung25/anaconda3/envs/p415env/share/psi4/basis/aug-cc-pvtz.gbs 
    atoms 2 entry K          line  1152 file /home/kchung25/anaconda3/envs/p415env/share/psi4/basis/aug-cc-pvtz.gbs 


         ---------------------------------------------------------
                                   SCF
               by Justin Turney, Rob Parrish, Andy Simmonett
                          and Daniel G. A. Smith
                              RHF Reference
                        6 Threads,  57220 MiB Core
         ---------------------------------------------------------

  ==> Geometry <==

    Molecular point group: c1
    Full point group: C_inf_v

    Geometry (in Angstrom), charge = 2, multiplicity = 1:

       Center              X                  Y                   Z               Mass       
    ------------   -----------------  -----------------  -----------------  -----------------
         LI           0.000000000000     0.000000000000     0.000000000000     7.016003436600
         K            2.996000000000     0.000000000000     0.000000000000    38.963706486400

  Running in c1 symmetry.

  Rotational constants: A = ************  B =      0.04820  C =      0.04820 [cm^-1]
  Rotational constants: A = ************  B =   1445.01820  C =   1445.01820 [MHz]
  Nuclear repulsion =   10.067790723694927

  Charge       = 2
  Multiplicity = 1
  Electrons    = 20
  Nalpha       = 10
  Nbeta        = 10

  ==> Algorithm <==

  SCF Algorithm Type is DF.
  DIIS enabled.
  MOM disabled.
  Fractional occupation disabled.
  Guess Type is SAD.
  Energy threshold   = 1.00e-08
  Density threshold  = 1.00e-08
  Integral threshold = 1.00e-12

  ==> Primary Basis <==

  Basis Set: AUG-CC-PVTZ
    Blend: AUG-CC-PVTZ
    Number of shells: 33
    Number of basis functions: 105
    Number of Cartesian functions: 124
    Spherical Harmonics?: true
    Max angular momentum: 3

   => Loading Basis Set <=

    Name: (AUG-CC-PVTZ AUX)
    Role: JKFIT
    Keyword: DF_BASIS_SCF
    atoms 1 entry LI         line    54 file /home/kchung25/anaconda3/envs/p415env/share/psi4/basis/def2-universal-jkfit.gbs 
    atoms 2 entry K          line  1152 file /home/kchung25/anaconda3/envs/p415env/share/psi4/basis/def2-universal-jkfit.gbs 

  ==> Integral Setup <==

  ==> DiskDFJK: Density-Fitted J/K Matrices <==

    J tasked:                  Yes
    K tasked:                  Yes
    wK tasked:                  No
    OpenMP threads:              6
    Integrals threads:           6
    Memory [MiB]:            42915
    Algorithm:                Core
    Integral Cache:           SAVE
    Schwarz Cutoff:          1E-12
    Fitting Condition:       1E-10

   => Auxiliary Basis Set <=

  Basis Set: (AUG-CC-PVTZ AUX)
    Blend: DEF2-UNIVERSAL-JKFIT
    Number of shells: 61
    Number of basis functions: 211
    Number of Cartesian functions: 263
    Spherical Harmonics?: true
    Max angular momentum: 4

  Minimum eigenvalue in the overlap matrix is 8.5183434179E-05.
  Reciprocal condition number of the overlap matrix is 1.2760361223E-05.
    Using symmetric orthogonalization.

  ==> Pre-Iterations <==

  SCF Guess: Superposition of Atomic Densities via on-the-fly atomic UHF (no occupation information).

   -------------------------
    Irrep   Nso     Nmo    
   -------------------------
     A        105     105 
   -------------------------
    Total     105     105
   -------------------------

  ==> Iterations <==

                           Total Energy        Delta E     RMS |[F,P]|

   @DF-RHF iter SAD:  -606.38017264609084   -6.06380e+02   0.00000e+00 
   @DF-RHF iter   1:  -606.07955911286660    3.00614e-01   2.43126e-04 ADIIS/DIIS
   @DF-RHF iter   2:  -606.08004736566295   -4.88253e-04   5.17349e-05 DIIS
   @DF-RHF iter   3:  -606.08006624067536   -1.88750e-05   1.06892e-05 DIIS
   @DF-RHF iter   4:  -606.08006730876843   -1.06809e-06   1.56080e-06 DIIS
   @DF-RHF iter   5:  -606.08006733841660   -2.96482e-08   2.16815e-07 DIIS
   @DF-RHF iter   6:  -606.08006733901675   -6.00153e-10   4.80880e-08 DIIS
   @DF-RHF iter   7:  -606.08006733904654   -2.97860e-11   5.79264e-09 DIIS
  Energy and wave function converged.


  ==> Post-Iterations <==

    Orbital Energies [Eh]
    ---------------------

    Doubly Occupied:                                                      

       1A   -133.934389     2A    -14.889114     3A    -11.919414  
       4A    -11.919117     5A    -11.919117     6A     -2.963348  
       7A     -2.142709     8A     -1.353783     9A     -1.346756  
      10A     -1.346756  

    Virtual:                                                              

      11A     -0.368933    12A     -0.287934    13A     -0.287934  
      14A     -0.273006    15A     -0.234533    16A     -0.198027  
      17A     -0.198027    18A     -0.186655    19A     -0.186510  
      20A     -0.186510    21A     -0.159572    22A     -0.159572  
      23A     -0.150869    24A     -0.138731    25A     -0.138718  
      26A     -0.138718    27A     -0.121113    28A     -0.121113  
      29A     -0.120780    30A     -0.111571    31A     -0.111571  
      32A     -0.110707    33A     -0.110707    34A     -0.106515  
      35A     -0.097979    36A     -0.097979    37A     -0.092976  
      38A     -0.092976    39A     -0.092183    40A     -0.086635  
      41A     -0.086635    42A     -0.085135    43A     -0.074232  
      44A     -0.074232    45A     -0.074160    46A     -0.071529  
      47A     -0.071529    48A     -0.068426    49A     -0.060563  
      50A     -0.058405    51A     -0.058405    52A     -0.054663  
      53A     -0.054663    54A     -0.050820    55A     -0.050820  
      56A     -0.050369    57A     -0.038047    58A     -0.026822  
      59A     -0.026822    60A     -0.007974    61A      0.012458  
      62A      0.012458    63A      0.013762    64A      0.013762  
      65A      0.023265    66A      0.023265    67A      0.024665  
      68A      0.052400    69A      0.055119    70A      0.055119  
      71A      0.063947    72A      0.065169    73A      0.065169  
      74A      0.100557    75A      0.100557    76A      0.100824  
      77A      0.100824    78A      0.103961    79A      0.104873  
      80A      0.104873    81A      0.132829    82A      0.132829  
      83A      0.135945    84A      0.157199    85A      0.157199  
      86A      0.179503    87A      0.191712    88A      0.191712  
      89A      0.283889    90A      0.283889    91A      0.295311  
      92A      0.403155    93A      0.403155    94A      0.406585  
      95A      0.406585    96A      0.433214    97A      0.433214  
      98A      0.459943    99A      0.466661   100A      0.466661  
     101A      0.492181   102A      0.492181   103A      0.515635  
     104A      0.930600   105A      2.621338  

    Final Occupation by Irrep:
              A 
    DOCC [    10 ]
    NA   [    10 ]
    NB   [    10 ]

  @DF-RHF Final Energy:  -606.08006733904654

   => Energetics <=

    Nuclear Repulsion Energy =             10.0677907236949267
    One-Electron Energy =                -844.8267094790144256
    Two-Electron Energy =                 228.6788514162730905
    Total Energy =                       -606.0800673390464226

Computation Completed


Properties will be evaluated at   0.000000,   0.000000,   0.000000 [a0]

Properties computed using the SCF density matrix


 Multipole Moments:

 ------------------------------------------------------------------------------------
     Multipole            Electronic (a.u.)      Nuclear  (a.u.)        Total (a.u.)
 ------------------------------------------------------------------------------------

 L = 1.  Multiply by 2.5417464519 to convert [e a0] to [Debye]
 Dipole X            :       -101.7476485          107.5707700            5.8231215
 Dipole Y            :         -0.0000000            0.0000000           -0.0000000
 Dipole Z            :         -0.0000000            0.0000000           -0.0000000
 Magnitude           :                                                    5.8231215

 ------------------------------------------------------------------------------------

*** tstop() called on moses-razer at Wed Jan  3 23:15:10 2024
Module time:
	user time   =       9.76 seconds =       0.16 minutes
	system time =       2.20 seconds =       0.04 minutes
	total time  =          6 seconds =       0.10 minutes
Total time:
	user time   =       9.76 seconds =       0.16 minutes
	system time =       2.20 seconds =       0.04 minutes
	total time  =          6 seconds =       0.10 minutes

  //>>>>>>>>>>>>>>>>>>>>>>>>>>>>>>>>>>>//
  //            Monomer A HF           //
  //<<<<<<<<<<<<<<<<<<<<<<<<<<<<<<<<<<<//

   => Libint2 <=

    Primary   basis highest AM E, G, H:  5, 4, 3
    Auxiliary basis highest AM E, G, H:  6, 5, 4
    Onebody   basis highest AM E, G, H:  6, 5, 4
    Solid Harmonics ordering:            gaussian

*** tstart() called on moses-razer
*** at Wed Jan  3 23:15:10 2024

   => Loading Basis Set <=

    Name: AUG-CC-PVTZ
    Role: ORBITAL
    Keyword: BASIS
    atoms 1 entry LI         line    85 file /home/kchung25/anaconda3/envs/p415env/share/psi4/basis/aug-cc-pvtz.gbs 
    atoms 2 entry K          line  1152 file /home/kchung25/anaconda3/envs/p415env/share/psi4/basis/aug-cc-pvtz.gbs 


         ---------------------------------------------------------
                                   SCF
               by Justin Turney, Rob Parrish, Andy Simmonett
                          and Daniel G. A. Smith
                              RHF Reference
                        6 Threads,  57220 MiB Core
         ---------------------------------------------------------

  ==> Geometry <==

    Molecular point group: c1
    Full point group: C_inf_v

    Geometry (in Angstrom), charge = 1, multiplicity = 1:

       Center              X                  Y                   Z               Mass       
    ------------   -----------------  -----------------  -----------------  -----------------
         LI           0.000000000000     0.000000000000     0.000000000000     7.016003436600
      Gh(K)           2.996000000000     0.000000000000     0.000000000000    38.963706486400

  Running in c1 symmetry.

  Rotational constants: A = ************  B =      0.04820  C =      0.04820 [cm^-1]
  Rotational constants: A = ************  B =   1445.01820  C =   1445.01820 [MHz]
  Nuclear repulsion =    0.000000000000000

  Charge       = 1
  Multiplicity = 1
  Electrons    = 2
  Nalpha       = 1
  Nbeta        = 1

  ==> Algorithm <==

  SCF Algorithm Type is DF.
  DIIS enabled.
  MOM disabled.
  Fractional occupation disabled.
  Guess Type is SAD.
  Energy threshold   = 1.00e-08
  Density threshold  = 1.00e-08
  Integral threshold = 1.00e-12

  ==> Primary Basis <==

  Basis Set: AUG-CC-PVTZ
    Blend: AUG-CC-PVTZ
    Number of shells: 33
    Number of basis functions: 105
    Number of Cartesian functions: 124
    Spherical Harmonics?: true
    Max angular momentum: 3

   => Loading Basis Set <=

    Name: (AUG-CC-PVTZ AUX)
    Role: JKFIT
    Keyword: DF_BASIS_SCF
    atoms 1 entry LI         line    54 file /home/kchung25/anaconda3/envs/p415env/share/psi4/basis/def2-universal-jkfit.gbs 
    atoms 2 entry K          line  1152 file /home/kchung25/anaconda3/envs/p415env/share/psi4/basis/def2-universal-jkfit.gbs 

  ==> Integral Setup <==

  ==> DiskDFJK: Density-Fitted J/K Matrices <==

    J tasked:                  Yes
    K tasked:                  Yes
    wK tasked:                  No
    OpenMP threads:              6
    Integrals threads:           6
    Memory [MiB]:            42915
    Algorithm:                Core
    Integral Cache:           LOAD
    Schwarz Cutoff:          1E-12
    Fitting Condition:       1E-10

   => Auxiliary Basis Set <=

  Basis Set: (AUG-CC-PVTZ AUX)
    Blend: DEF2-UNIVERSAL-JKFIT
    Number of shells: 61
    Number of basis functions: 211
    Number of Cartesian functions: 263
    Spherical Harmonics?: true
    Max angular momentum: 4

  Minimum eigenvalue in the overlap matrix is 8.5183434179E-05.
  Reciprocal condition number of the overlap matrix is 1.2760361223E-05.
    Using symmetric orthogonalization.

  ==> Pre-Iterations <==

  SCF Guess: Superposition of Atomic Densities via on-the-fly atomic UHF (no occupation information).

   -------------------------
    Irrep   Nso     Nmo    
   -------------------------
     A        105     105 
   -------------------------
    Total     105     105
   -------------------------

  ==> Iterations <==

                           Total Energy        Delta E     RMS |[F,P]|

   @DF-RHF iter SAD:    -7.31420796422585   -7.31421e+00   0.00000e+00 
   @DF-RHF iter   1:    -7.23638112910987    7.78268e-02   2.14644e-05 DIIS
   @DF-RHF iter   2:    -7.23638296802517   -1.83892e-06   2.37801e-06 DIIS
   @DF-RHF iter   3:    -7.23638299439838   -2.63732e-08   1.03077e-07 DIIS
   @DF-RHF iter   4:    -7.23638299443932   -4.09379e-11   7.71065e-10 DIIS
  Energy and wave function converged.


  ==> Post-Iterations <==

    Orbital Energies [Eh]
    ---------------------

    Doubly Occupied:                                                      

       1A     -2.792371  

    Virtual:                                                              

       2A     -0.196298     3A     -0.128600     4A     -0.128597  
       5A     -0.128597     6A     -0.073762     7A     -0.056709  
       8A     -0.056709     9A     -0.056668    10A     -0.055046  
      11A     -0.054913    12A     -0.054913    13A     -0.050192  
      14A     -0.050192    15A     -0.034713    16A     -0.030178  
      17A     -0.030178    18A     -0.029424    19A     -0.028698  
      20A     -0.028698    21A     -0.027818    22A     -0.025884  
      23A     -0.025884    24A     -0.017908    25A     -0.014024  
      26A     -0.014024    27A     -0.009008    28A      0.000426  
      29A      0.000426    30A      0.000494    31A      0.002792  
      32A      0.002792    33A      0.014883    34A      0.014883  
      35A      0.031045    36A      0.036854    37A      0.036854  
      38A      0.048164    39A      0.051221    40A      0.051221  
      41A      0.051433    42A      0.069211    43A      0.069211  
      44A      0.081150    45A      0.081491    46A      0.081491  
      47A      0.091660    48A      0.094774    49A      0.094774  
      50A      0.119097    51A      0.119097    52A      0.149799  
      53A      0.149799    54A      0.156712    55A      0.156712  
      56A      0.164085    57A      0.189816    58A      0.193305  
      59A      0.193305    60A      0.202129    61A      0.202129  
      62A      0.223367    63A      0.223367    64A      0.223607  
      65A      0.223607    66A      0.228169    67A      0.250638  
      68A      0.295222    69A      0.320725    70A      0.320725  
      71A      0.364761    72A      0.364761    73A      0.370396  
      74A      0.370396    75A      0.410336    76A      0.440723  
      77A      0.440723    78A      0.547430    79A      0.547430  
      80A      0.553437    81A      0.569820    82A      0.569820  
      83A      0.583312    84A      0.595533    85A      0.595533  
      86A      0.602350    87A      0.602350    88A      0.623683  
      89A      0.623683    90A      0.669326    91A      1.680741  
      92A      1.680741    93A      1.764127    94A      1.764127  
      95A      1.840693    96A      1.904779    97A      2.076144  
      98A      2.076144    99A      2.112003   100A      2.823934  
     101A     10.034452   102A     30.085832   103A     30.085832  
     104A     30.332953   105A    197.534343  

    Final Occupation by Irrep:
              A 
    DOCC [     1 ]
    NA   [     1 ]
    NB   [     1 ]

  @DF-RHF Final Energy:    -7.23638299443932

   => Energetics <=

    Nuclear Repulsion Energy =              0.0000000000000000
    One-Electron Energy =                  -8.8880231295941847
    Two-Electron Energy =                   1.6516401351548664
    Total Energy =                         -7.2363829944393183

Computation Completed


Properties will be evaluated at   0.000000,   0.000000,   0.000000 [a0]

Properties computed using the SCF density matrix


 Multipole Moments:

 ------------------------------------------------------------------------------------
     Multipole            Electronic (a.u.)      Nuclear  (a.u.)        Total (a.u.)
 ------------------------------------------------------------------------------------

 L = 1.  Multiply by 2.5417464519 to convert [e a0] to [Debye]
 Dipole X            :          0.0000026            0.0000000            0.0000026
 Dipole Y            :          0.0000000            0.0000000            0.0000000
 Dipole Z            :         -0.0000000            0.0000000           -0.0000000
 Magnitude           :                                                    0.0000026

 ------------------------------------------------------------------------------------

*** tstop() called on moses-razer at Wed Jan  3 23:15:13 2024
Module time:
	user time   =       4.88 seconds =       0.08 minutes
	system time =       0.88 seconds =       0.01 minutes
	total time  =          3 seconds =       0.05 minutes
Total time:
	user time   =      14.66 seconds =       0.24 minutes
	system time =       3.08 seconds =       0.05 minutes
	total time  =          9 seconds =       0.15 minutes

  //>>>>>>>>>>>>>>>>>>>>>>>>>>>>>>>>>>>//
  //            Monomer B HF           //
  //<<<<<<<<<<<<<<<<<<<<<<<<<<<<<<<<<<<//

   => Libint2 <=

    Primary   basis highest AM E, G, H:  5, 4, 3
    Auxiliary basis highest AM E, G, H:  6, 5, 4
    Onebody   basis highest AM E, G, H:  6, 5, 4
    Solid Harmonics ordering:            gaussian

*** tstart() called on moses-razer
*** at Wed Jan  3 23:15:13 2024

   => Loading Basis Set <=

    Name: AUG-CC-PVTZ
    Role: ORBITAL
    Keyword: BASIS
    atoms 1 entry LI         line    85 file /home/kchung25/anaconda3/envs/p415env/share/psi4/basis/aug-cc-pvtz.gbs 
    atoms 2 entry K          line  1152 file /home/kchung25/anaconda3/envs/p415env/share/psi4/basis/aug-cc-pvtz.gbs 


         ---------------------------------------------------------
                                   SCF
               by Justin Turney, Rob Parrish, Andy Simmonett
                          and Daniel G. A. Smith
                              RHF Reference
                        6 Threads,  57220 MiB Core
         ---------------------------------------------------------

  ==> Geometry <==

    Molecular point group: c1
    Full point group: C_inf_v

    Geometry (in Angstrom), charge = 1, multiplicity = 1:

       Center              X                  Y                   Z               Mass       
    ------------   -----------------  -----------------  -----------------  -----------------
      Gh(LI)          0.000000000000     0.000000000000     0.000000000000     7.016003436600
         K            2.996000000000     0.000000000000     0.000000000000    38.963706486400

  Running in c1 symmetry.

  Rotational constants: A = ************  B =      0.04820  C =      0.04820 [cm^-1]
  Rotational constants: A = ************  B =   1445.01820  C =   1445.01820 [MHz]
  Nuclear repulsion =    0.000000000000000

  Charge       = 1
  Multiplicity = 1
  Electrons    = 18
  Nalpha       = 9
  Nbeta        = 9

  ==> Algorithm <==

  SCF Algorithm Type is DF.
  DIIS enabled.
  MOM disabled.
  Fractional occupation disabled.
  Guess Type is SAD.
  Energy threshold   = 1.00e-08
  Density threshold  = 1.00e-08
  Integral threshold = 1.00e-12

  ==> Primary Basis <==

  Basis Set: AUG-CC-PVTZ
    Blend: AUG-CC-PVTZ
    Number of shells: 33
    Number of basis functions: 105
    Number of Cartesian functions: 124
    Spherical Harmonics?: true
    Max angular momentum: 3

   => Loading Basis Set <=

    Name: (AUG-CC-PVTZ AUX)
    Role: JKFIT
    Keyword: DF_BASIS_SCF
    atoms 1 entry LI         line    54 file /home/kchung25/anaconda3/envs/p415env/share/psi4/basis/def2-universal-jkfit.gbs 
    atoms 2 entry K          line  1152 file /home/kchung25/anaconda3/envs/p415env/share/psi4/basis/def2-universal-jkfit.gbs 

  ==> Integral Setup <==

  ==> DiskDFJK: Density-Fitted J/K Matrices <==

    J tasked:                  Yes
    K tasked:                  Yes
    wK tasked:                  No
    OpenMP threads:              6
    Integrals threads:           6
    Memory [MiB]:            42915
    Algorithm:                Core
    Integral Cache:           LOAD
    Schwarz Cutoff:          1E-12
    Fitting Condition:       1E-10

   => Auxiliary Basis Set <=

  Basis Set: (AUG-CC-PVTZ AUX)
    Blend: DEF2-UNIVERSAL-JKFIT
    Number of shells: 61
    Number of basis functions: 211
    Number of Cartesian functions: 263
    Spherical Harmonics?: true
    Max angular momentum: 4

  Minimum eigenvalue in the overlap matrix is 8.5183434179E-05.
  Reciprocal condition number of the overlap matrix is 1.2760361223E-05.
    Using symmetric orthogonalization.

  ==> Pre-Iterations <==

  SCF Guess: Superposition of Atomic Densities via on-the-fly atomic UHF (no occupation information).

   -------------------------
    Irrep   Nso     Nmo    
   -------------------------
     A        105     105 
   -------------------------
    Total     105     105
   -------------------------

  ==> Iterations <==

                           Total Energy        Delta E     RMS |[F,P]|

   @DF-RHF iter SAD:  -599.05181898597255   -5.99052e+02   0.00000e+00 
   @DF-RHF iter   1:  -599.01748401393615    3.43350e-02   5.88490e-05 DIIS
   @DF-RHF iter   2:  -599.01750815617072   -2.41422e-05   8.67478e-06 DIIS
   @DF-RHF iter   3:  -599.01750878585608   -6.29685e-07   6.25036e-07 DIIS
   @DF-RHF iter   4:  -599.01750878838641   -2.53033e-09   7.58772e-08 DIIS
   @DF-RHF iter   5:  -599.01750878842313   -3.67208e-11   1.03517e-08 DIIS
   @DF-RHF iter   6:  -599.01750878842472   -1.59162e-12   1.34518e-09 DIIS
  Energy and wave function converged.


  ==> Post-Iterations <==

    Orbital Energies [Eh]
    ---------------------

    Doubly Occupied:                                                      

       1A   -133.753722     2A    -14.709170     3A    -11.739241  
       4A    -11.739238     5A    -11.739238     6A     -1.964324  
       7A     -1.170972     8A     -1.170916     9A     -1.170916  

    Virtual:                                                              

      10A     -0.146971    11A     -0.095561    12A     -0.095553  
      13A     -0.095553    14A     -0.060832    15A     -0.057872  
      16A     -0.057870    17A     -0.057870    18A     -0.057740  
      19A     -0.057740    20A     -0.045541    21A     -0.045536  
      22A     -0.045536    23A     -0.031438    24A     -0.031438  
      25A     -0.031428    26A     -0.031210    27A     -0.031210  
      28A     -0.028051    29A     -0.027173    30A     -0.026110  
      31A     -0.026110    32A     -0.017336    33A     -0.017336  
      34A     -0.016942    35A      0.002447    36A      0.002781  
      37A      0.002781    38A      0.012221    39A      0.013250  
      40A      0.013911    41A      0.013911    42A      0.016868  
      43A      0.016868    44A      0.018452    45A      0.018452  
      46A      0.023048    47A      0.023048    48A      0.053494  
      49A      0.053494    50A      0.055268    51A      0.066814  
      52A      0.068494    53A      0.068494    54A      0.085334  
      55A      0.085334    56A      0.089455    57A      0.115759  
      58A      0.115759    59A      0.119738    60A      0.142616  
      61A      0.142616    62A      0.146888    63A      0.197479  
      64A      0.197479    65A      0.201943    66A      0.201943  
      67A      0.207877    68A      0.223663    69A      0.223663  
      70A      0.236254    71A      0.236254    72A      0.240916  
      73A      0.240916    74A      0.265665    75A      0.276969  
      76A      0.277939    77A      0.277939    78A      0.291954  
      79A      0.291954    80A      0.307280    81A      0.307280  
      82A      0.309475    83A      0.309475    84A      0.314058  
      85A      0.351489    86A      0.407028    87A      0.407028  
      88A      0.674371    89A      0.674371    90A      0.691663  
      91A      0.691663    92A      0.708136    93A      0.708136  
      94A      0.717490    95A      0.793938    96A      0.793938  
      97A      0.813582    98A      0.813582    99A      0.826693  
     100A      0.831330   101A      0.831330   102A      0.905627  
     103A      1.070261   104A      1.361266   105A     10.162659  

    Final Occupation by Irrep:
              A 
    DOCC [     9 ]
    NA   [     9 ]
    NB   [     9 ]

  @DF-RHF Final Energy:  -599.01750878842472

   => Energetics <=

    Nuclear Repulsion Energy =              0.0000000000000000
    One-Electron Energy =                -819.7195438147105051
    Two-Electron Energy =                 220.7020350262857846
    Total Energy =                       -599.0175087884247205

Computation Completed


Properties will be evaluated at   0.000000,   0.000000,   0.000000 [a0]

Properties computed using the SCF density matrix


 Multipole Moments:

 ------------------------------------------------------------------------------------
     Multipole            Electronic (a.u.)      Nuclear  (a.u.)        Total (a.u.)
 ------------------------------------------------------------------------------------

 L = 1.  Multiply by 2.5417464519 to convert [e a0] to [Debye]
 Dipole X            :       -101.9095052          107.5707700            5.6612648
 Dipole Y            :         -0.0000000            0.0000000           -0.0000000
 Dipole Z            :         -0.0000000            0.0000000           -0.0000000
 Magnitude           :                                                    5.6612648

 ------------------------------------------------------------------------------------

*** tstop() called on moses-razer at Wed Jan  3 23:15:19 2024
Module time:
	user time   =       8.59 seconds =       0.14 minutes
	system time =       2.02 seconds =       0.03 minutes
	total time  =          6 seconds =       0.10 minutes
Total time:
	user time   =      23.27 seconds =       0.39 minutes
	system time =       5.10 seconds =       0.08 minutes
	total time  =         15 seconds =       0.25 minutes
  Constructing Basis Sets for SAPT...

   => Loading Basis Set <=

    Name: (AUG-CC-PVTZ AUX)
    Role: RIFIT
    Keyword: DF_BASIS_SAPT
    atoms 1 entry LI         line    90 file /home/kchung25/anaconda3/envs/p415env/share/psi4/basis/def2-qzvpp-ri.gbs 
    atoms 2 entry K          line  1282 file /home/kchung25/anaconda3/envs/p415env/share/psi4/basis/def2-qzvpp-ri.gbs 

   => Loading Basis Set <=

    Name: (AUG-CC-PVTZ AUX)
    Role: JKFIT
    Keyword: DF_BASIS_ELST
    atoms 1 entry LI         line    54 file /home/kchung25/anaconda3/envs/p415env/share/psi4/basis/def2-universal-jkfit.gbs 
    atoms 2 entry K          line  1152 file /home/kchung25/anaconda3/envs/p415env/share/psi4/basis/def2-universal-jkfit.gbs 


  //>>>>>>>>>>>>>>>>>>>>>>>>>>>>>>>>>>>//
  //               SAPT2+              //
  //<<<<<<<<<<<<<<<<<<<<<<<<<<<<<<<<<<<//


*** tstart() called on moses-razer
*** at Wed Jan  3 23:15:19 2024

        SAPT2+  
    Ed Hohenstein
     6 June 2009

      Orbital Information
  --------------------------
    NSO        =       105
    NMO        =       105
    NRI        =       300
    NOCC A     =         1
    NOCC B     =         9
    FOCC A     =         0
    FOCC B     =         0
    NVIR A     =       104
    NVIR B     =        96

    Estimated memory usage: 47.0 MB

    Natural Orbital Cutoff:   1.000E-06
    Disp(T3) Truncation:            Yes
    CCD (vv|vv) Truncation:         Yes
    MBPT T2 Truncation:             Yes

    Monomer A: 99 virtual orbitals dropped
    Monomer B: 71 virtual orbitals dropped

    Elst10,r            =     0.176648111988 [Eh]
    Exch10 (S^2)        =     0.000041819846 [Eh]
    Exch10              =     0.000041820402 [Eh]
    Ind20,r (A<-B)      =    -0.000066841276 [Eh]
    Ind20,r (B<-A)      =    -0.002740593168 [Eh]
    Ind20,r             =    -0.002807434443 [Eh]
    Exch-Ind20,r (A<-B) =     0.000000176869 [Eh]
    Exch-Ind20,r (B<-A) =     0.000028918047 [Eh]
    Exch-Ind20,r        =     0.000029094916 [Eh]
    Disp20              =    -0.000030660268 [Eh]
    Disp20 (NO)         =    -0.000027470595 [Eh]
    Exch-Disp20         =     0.000000497216 [Eh]
    Elst12,r            =     0.000217264560 [Eh]
    Exch11              =    -0.000000285866 [Eh]
    Exch12              =    -0.000000490475 [Eh]
    Ind22               =    -0.000041283011 [Eh]
    Disp21              =     0.000000519942 [Eh]
    Disp22 (SDQ)        =    -0.000000491392 [Eh]

    (i =   1 of   9)          0 seconds
    (i =   2 of   9)          0 seconds
    (i =   3 of   9)          0 seconds
    (i =   4 of   9)          0 seconds
    (i =   5 of   9)          0 seconds
    (i =   6 of   9)          0 seconds
    (i =   7 of   9)          0 seconds
    (i =   8 of   9)          0 seconds
    (i =   9 of   9)          0 seconds

    Disp220 (T)         =    -0.000000462342 [Eh]

    (i =   1 of   1)          0 seconds

    Disp202 (T)         =    -0.000000646202 [Eh]

    Disp22 (T)          =    -0.000001108544 [Eh]

    Est. Disp220 (T)    =    -0.000000516025 [Eh]
    Est. Disp202 (T)    =    -0.000000721234 [Eh]

    Est. Disp22 (T)     =    -0.000001237259 [Eh]

    SAPT Results 
  --------------------------------------------------------------------------------------------------------
    Electrostatics                176.86537655 [mEh]     110.98469937 [kcal/mol]     464.35998215 [kJ/mol]
      Elst10,r                    176.64811199 [mEh]     110.84836380 [kcal/mol]     463.78955413 [kJ/mol]
      Elst12,r                      0.21726456 [mEh]       0.13633557 [kcal/mol]       0.57042802 [kJ/mol]

    Exchange                        0.04104406 [mEh]       0.02575554 [kcal/mol]       0.10776117 [kJ/mol]
      Exch10                        0.04182040 [mEh]       0.02624270 [kcal/mol]       0.10979945 [kJ/mol]
      Exch10(S^2)                   0.04181985 [mEh]       0.02624235 [kcal/mol]       0.10979799 [kJ/mol]
      Exch11(S^2)                  -0.00028587 [mEh]      -0.00017938 [kcal/mol]      -0.00075054 [kJ/mol]
      Exch12(S^2)                  -0.00049047 [mEh]      -0.00030778 [kcal/mol]      -0.00128774 [kJ/mol]

    Induction                      -2.90634375 [mEh]      -1.82375823 [kcal/mol]      -7.63060445 [kJ/mol]
      Ind20,r                      -2.80743444 [mEh]      -1.76169171 [kcal/mol]      -7.37091812 [kJ/mol]
      Ind22                        -0.04128301 [mEh]      -0.02590548 [kcal/mol]      -0.10838853 [kJ/mol]
      Exch-Ind20,r                  0.02909492 [mEh]       0.01825734 [kcal/mol]       0.07638869 [kJ/mol]
      Exch-Ind22                    0.00042784 [mEh]       0.00026847 [kcal/mol]       0.00112329 [kJ/mol]
      delta HF,r (2)               -0.08714905 [mEh]      -0.05468685 [kcal/mol]      -0.22880979 [kJ/mol]

    Dispersion                     -0.03137176 [mEh]      -0.01968608 [kcal/mol]      -0.08236655 [kJ/mol]
      Disp20                       -0.03066027 [mEh]      -0.01923961 [kcal/mol]      -0.08049852 [kJ/mol]
      Disp21                        0.00051994 [mEh]       0.00032627 [kcal/mol]       0.00136511 [kJ/mol]
      Disp22 (SDQ)                 -0.00049139 [mEh]      -0.00030835 [kcal/mol]      -0.00129015 [kJ/mol]
      Disp22 (T)                   -0.00110854 [mEh]      -0.00069562 [kcal/mol]      -0.00291048 [kJ/mol]
      Est. Disp22 (T)              -0.00123726 [mEh]      -0.00077639 [kcal/mol]      -0.00324842 [kJ/mol]
      Exch-Disp20                   0.00049722 [mEh]       0.00031201 [kcal/mol]       0.00130544 [kJ/mol]

  Total HF                        173.82444382 [mEh]     109.07648527 [kcal/mol]     456.37601437 [kJ/mol]
  Total SAPT0                     173.79428077 [mEh]     109.05755767 [kcal/mol]     456.29682129 [kJ/mol]
  Total SAPT2                     173.96991381 [mEh]     109.16776907 [kcal/mol]     456.75794578 [kJ/mol]
  Total SAPT2+                    173.96870510 [mEh]     109.16701059 [kcal/mol]     456.75477232 [kJ/mol]

  Special recipe for scaled SAPT0 (see Manual):
    Electrostatics sSAPT0         176.64811199 [mEh]     110.84836380 [kcal/mol]     463.78955413 [kJ/mol]
    Exchange sSAPT0                 0.04182040 [mEh]       0.02624270 [kcal/mol]       0.10979945 [kJ/mol]
    Induction sSAPT0               -2.86548741 [mEh]      -1.79812050 [kcal/mol]      -7.52333617 [kJ/mol]
    Dispersion sSAPT0              -0.03016303 [mEh]      -0.01892759 [kcal/mol]      -0.07919303 [kJ/mol]
  Total sSAPT0                    173.79428195 [mEh]     109.05755841 [kcal/mol]     456.29682438 [kJ/mol]
  --------------------------------------------------------------------------------------------------------

*** tstop() called on moses-razer at Wed Jan  3 23:15:29 2024
Module time:
	user time   =      16.49 seconds =       0.27 minutes
	system time =       1.27 seconds =       0.02 minutes
	total time  =         10 seconds =       0.17 minutes
Total time:
	user time   =      40.13 seconds =       0.67 minutes
	system time =       6.37 seconds =       0.11 minutes
	total time  =         25 seconds =       0.42 minutes

    Psi4 stopped on: Wednesday, 03 January 2024 11:15PM
    Psi4 wall time for execution: 0:00:25.23

*** Psi4 exiting successfully. Buy a developer a beer!
