
    -----------------------------------------------------------------------
          Psi4: An Open-Source Ab Initio Electronic Structure Package
                               Psi4 1.9 release

                         Git: Rev {} zzzzzzz 


    D. G. A. Smith, L. A. Burns, A. C. Simmonett, R. M. Parrish,
    M. C. Schieber, R. Galvelis, P. Kraus, H. Kruse, R. Di Remigio,
    A. Alenaizan, A. M. James, S. Lehtola, J. P. Misiewicz, M. Scheurer,
    R. A. Shaw, J. B. Schriber, Y. Xie, Z. L. Glick, D. A. Sirianni,
    J. S. O'Brien, J. M. Waldrop, A. Kumar, E. G. Hohenstein,
    B. P. Pritchard, B. R. Brooks, H. F. Schaefer III, A. Yu. Sokolov,
    K. Patkowski, A. E. DePrince III, U. Bozkaya, R. A. King,
    F. A. Evangelista, J. M. Turney, T. D. Crawford, C. D. Sherrill,
    J. Chem. Phys. 152(18) 184108 (2020). https://doi.org/10.1063/5.0006002

                            Additional Code Authors
    E. T. Seidl, C. L. Janssen, E. F. Valeev, M. L. Leininger,
    J. F. Gonthier, R. M. Richard, H. R. McAlexander, M. Saitow, X. Wang,
    P. Verma, M. H. Lechner, A. Jiang, S. Behnle, A. G. Heide,
    M. F. Herbst, and D. L. Poole

             Previous Authors, Complete List of Code Contributors,
                       and Citations for Specific Modules
    https://github.com/psi4/psi4/blob/master/codemeta.json
    https://github.com/psi4/psi4/graphs/contributors
    http://psicode.org/psi4manual/master/introduction.html#citing-psifour

    -----------------------------------------------------------------------


    Psi4 started on: Wednesday, 03 January 2024 11:17PM

    Process ID: 449483
    Host:       moses-razer
    PSIDATADIR: /home/kchung25/anaconda3/envs/psi4_19/share/psi4
    Memory:     500.0 MiB
    Threads:    6
    
  ==> Input File <==

--------------------------------------------------------------------------
MEMORY 60 GB

molecule dimer {
1 1
Na     0.000000     0.000000     0.000000
--
1 1
Na     4.080000     0.000000     0.000000

units ang
no_reorient
no_com
symmetry c1
}

set {
basis        aug-cc-pVTZ
scf_type     df
}

energy("sapt2+")
--------------------------------------------------------------------------

  Memory set to  55.879 GiB by Python driver.

Scratch directory: /scratch/
   => Loading Basis Set <=

    Name: AUG-CC-PVTZ
    Role: ORBITAL
    Keyword: BASIS
    atoms 1-2 entry NA         line   469 file /home/kchung25/anaconda3/envs/p415env/share/psi4/basis/aug-cc-pvtz.gbs 

   => Loading Basis Set <=

    Name: AUG-CC-PVTZ
    Role: ORBITAL
    Keyword: BASIS
    atoms 1-2 entry NA         line   469 file /home/kchung25/anaconda3/envs/p415env/share/psi4/basis/aug-cc-pvtz.gbs 


  //>>>>>>>>>>>>>>>>>>>>>>>>>>>>>>>>>>>//
  //              Dimer HF             //
  //<<<<<<<<<<<<<<<<<<<<<<<<<<<<<<<<<<<//

   => Libint2 <=

    Primary   basis highest AM E, G, H:  5, 4, 3
    Auxiliary basis highest AM E, G, H:  6, 5, 4
    Onebody   basis highest AM E, G, H:  6, 5, 4
    Solid Harmonics ordering:            gaussian

*** tstart() called on moses-razer
*** at Wed Jan  3 23:17:12 2024

   => Loading Basis Set <=

    Name: AUG-CC-PVTZ
    Role: ORBITAL
    Keyword: BASIS
    atoms 1-2 entry NA         line   469 file /home/kchung25/anaconda3/envs/p415env/share/psi4/basis/aug-cc-pvtz.gbs 


         ---------------------------------------------------------
                                   SCF
               by Justin Turney, Rob Parrish, Andy Simmonett
                          and Daniel G. A. Smith
                              RHF Reference
                        6 Threads,  57220 MiB Core
         ---------------------------------------------------------

  ==> Geometry <==

    Molecular point group: c1
    Full point group: C_inf_v

    Geometry (in Angstrom), charge = 2, multiplicity = 1:

       Center              X                  Y                   Z               Mass       
    ------------   -----------------  -----------------  -----------------  -----------------
         NA           0.000000000000     0.000000000000     0.000000000000    22.989769282000
         NA           4.080000000000     0.000000000000     0.000000000000    22.989769282000

  Running in c1 symmetry.

  Rotational constants: A = ************  B =      0.04405  C =      0.04405 [cm^-1]
  Rotational constants: A = ************  B =   1320.57253  C =   1320.57253 [MHz]
  Nuclear repulsion =   15.693735904674021

  Charge       = 2
  Multiplicity = 1
  Electrons    = 20
  Nalpha       = 10
  Nbeta        = 10

  ==> Algorithm <==

  SCF Algorithm Type is DF.
  DIIS enabled.
  MOM disabled.
  Fractional occupation disabled.
  Guess Type is SAD.
  Energy threshold   = 1.00e-08
  Density threshold  = 1.00e-08
  Integral threshold = 1.00e-12

  ==> Primary Basis <==

  Basis Set: AUG-CC-PVTZ
    Blend: AUG-CC-PVTZ
    Number of shells: 32
    Number of basis functions: 100
    Number of Cartesian functions: 118
    Spherical Harmonics?: true
    Max angular momentum: 3

   => Loading Basis Set <=

    Name: (AUG-CC-PVTZ AUX)
    Role: JKFIT
    Keyword: DF_BASIS_SCF
    atoms 1-2 entry NA         line   498 file /home/kchung25/anaconda3/envs/p415env/share/psi4/basis/def2-universal-jkfit.gbs 

  ==> Integral Setup <==

  ==> DiskDFJK: Density-Fitted J/K Matrices <==

    J tasked:                  Yes
    K tasked:                  Yes
    wK tasked:                  No
    OpenMP threads:              6
    Integrals threads:           6
    Memory [MiB]:            42915
    Algorithm:                Core
    Integral Cache:           SAVE
    Schwarz Cutoff:          1E-12
    Fitting Condition:       1E-10

   => Auxiliary Basis Set <=

  Basis Set: (AUG-CC-PVTZ AUX)
    Blend: DEF2-UNIVERSAL-JKFIT
    Number of shells: 68
    Number of basis functions: 224
    Number of Cartesian functions: 274
    Spherical Harmonics?: true
    Max angular momentum: 4

  Minimum eigenvalue in the overlap matrix is 2.1295342392E-04.
  Reciprocal condition number of the overlap matrix is 3.6534693647E-05.
    Using symmetric orthogonalization.

  ==> Pre-Iterations <==

  SCF Guess: Superposition of Atomic Densities via on-the-fly atomic UHF (no occupation information).

   -------------------------
    Irrep   Nso     Nmo    
   -------------------------
     A        100     100 
   -------------------------
    Total     100     100
   -------------------------

  ==> Iterations <==

                           Total Energy        Delta E     RMS |[F,P]|

   @DF-RHF iter SAD:  -323.50837345035052   -3.23508e+02   0.00000e+00 
   @DF-RHF iter   1:  -323.22238055084466    2.85993e-01   1.30086e-04 DIIS/ADIIS
   @DF-RHF iter   2:  -323.22247068473752   -9.01339e-05   2.30104e-05 DIIS
   @DF-RHF iter   3:  -323.22247310881693   -2.42408e-06   1.80858e-06 DIIS
   @DF-RHF iter   4:  -323.22247312637921   -1.75623e-08   2.52228e-07 DIIS
   @DF-RHF iter   5:  -323.22247312675023   -3.71017e-10   1.64799e-08 DIIS
   @DF-RHF iter   6:  -323.22247312675108   -8.52651e-13   7.63991e-10 DIIS
  Energy and wave function converged.


  ==> Post-Iterations <==

    Orbital Energies [Eh]
    ---------------------

    Doubly Occupied:                                                      

       1A    -40.893415     2A    -40.893415     3A     -3.205015  
       4A     -3.205014     5A     -1.928768     6A     -1.928701  
       7A     -1.927805     8A     -1.927805     9A     -1.927801  
      10A     -1.927801  

    Virtual:                                                              

      11A     -0.345549    12A     -0.274710    13A     -0.246559  
      14A     -0.246559    15A     -0.222898    16A     -0.194943  
      17A     -0.194943    18A     -0.169541    19A     -0.161604  
      20A     -0.161604    21A     -0.158357    22A     -0.141872  
      23A     -0.141872    24A     -0.128166    25A     -0.128166  
      26A     -0.126875    27A     -0.123366    28A     -0.120525  
      29A     -0.120525    30A     -0.110532    31A     -0.110532  
      32A     -0.096604    33A     -0.093958    34A     -0.084337  
      35A     -0.084337    36A     -0.079322    37A     -0.079322  
      38A     -0.076952    39A     -0.074490    40A     -0.073364  
      41A     -0.065041    42A     -0.065041    43A     -0.062778  
      44A     -0.062778    45A     -0.048703    46A     -0.048703  
      47A     -0.038584    48A     -0.027487    49A     -0.027487  
      50A     -0.023931    51A     -0.019860    52A     -0.019860  
      53A     -0.017525    54A     -0.005153    55A     -0.005153  
      56A      0.012109    57A      0.012109    58A      0.021991  
      59A      0.021991    60A      0.045032    61A      0.045186  
      62A      0.048442    63A      0.048442    64A      0.068206  
      65A      0.068206    66A      0.069423    67A      0.069423  
      68A      0.078233    69A      0.078233    70A      0.089878  
      71A      0.140864    72A      0.154983    73A      0.154983  
      74A      0.162973    75A      0.252571    76A      0.252571  
      77A      0.254841    78A      0.254841    79A      0.268317  
      80A      0.268317    81A      0.304213    82A      0.312343  
      83A      0.312343    84A      0.318222    85A      0.362629  
      86A      0.362629    87A      0.363647    88A      0.363647  
      89A      0.371636    90A      0.371636    91A      0.390176  
      92A      0.390176    93A      0.406600    94A      0.420942  
      95A      0.420942    96A      0.483468    97A      0.483468  
      98A      0.498477    99A      1.411370   100A      1.618930  

    Final Occupation by Irrep:
              A 
    DOCC [    10 ]
    NA   [    10 ]
    NB   [    10 ]

  @DF-RHF Final Energy:  -323.22247312675108

   => Energetics <=

    Nuclear Repulsion Energy =             15.6937359046740212
    One-Electron Energy =                -478.3013439089153849
    Two-Electron Energy =                 139.3851348774902874
    Total Energy =                       -323.2224731267510833

Computation Completed


Properties will be evaluated at   0.000000,   0.000000,   0.000000 [a0]

Properties computed using the SCF density matrix


 Multipole Moments:

 ------------------------------------------------------------------------------------
     Multipole            Electronic (a.u.)      Nuclear  (a.u.)        Total (a.u.)
 ------------------------------------------------------------------------------------

 L = 1.  Multiply by 2.5417464519 to convert [e a0] to [Debye]
 Dipole X            :        -77.1008259           84.8109085            7.7100826
 Dipole Y            :          0.0000000            0.0000000            0.0000000
 Dipole Z            :         -0.0000000            0.0000000           -0.0000000
 Magnitude           :                                                    7.7100826

 ------------------------------------------------------------------------------------

*** tstop() called on moses-razer at Wed Jan  3 23:17:14 2024
Module time:
	user time   =       4.83 seconds =       0.08 minutes
	system time =       0.50 seconds =       0.01 minutes
	total time  =          2 seconds =       0.03 minutes
Total time:
	user time   =       4.83 seconds =       0.08 minutes
	system time =       0.50 seconds =       0.01 minutes
	total time  =          2 seconds =       0.03 minutes

  //>>>>>>>>>>>>>>>>>>>>>>>>>>>>>>>>>>>//
  //            Monomer A HF           //
  //<<<<<<<<<<<<<<<<<<<<<<<<<<<<<<<<<<<//

   => Libint2 <=

    Primary   basis highest AM E, G, H:  5, 4, 3
    Auxiliary basis highest AM E, G, H:  6, 5, 4
    Onebody   basis highest AM E, G, H:  6, 5, 4
    Solid Harmonics ordering:            gaussian

*** tstart() called on moses-razer
*** at Wed Jan  3 23:17:14 2024

   => Loading Basis Set <=

    Name: AUG-CC-PVTZ
    Role: ORBITAL
    Keyword: BASIS
    atoms 1-2 entry NA         line   469 file /home/kchung25/anaconda3/envs/p415env/share/psi4/basis/aug-cc-pvtz.gbs 


         ---------------------------------------------------------
                                   SCF
               by Justin Turney, Rob Parrish, Andy Simmonett
                          and Daniel G. A. Smith
                              RHF Reference
                        6 Threads,  57220 MiB Core
         ---------------------------------------------------------

  ==> Geometry <==

    Molecular point group: c1
    Full point group: C_inf_v

    Geometry (in Angstrom), charge = 1, multiplicity = 1:

       Center              X                  Y                   Z               Mass       
    ------------   -----------------  -----------------  -----------------  -----------------
         NA           0.000000000000     0.000000000000     0.000000000000    22.989769282000
      Gh(NA)          4.080000000000     0.000000000000     0.000000000000    22.989769282000

  Running in c1 symmetry.

  Rotational constants: A = ************  B =      0.04405  C =      0.04405 [cm^-1]
  Rotational constants: A = ************  B =   1320.57253  C =   1320.57253 [MHz]
  Nuclear repulsion =    0.000000000000000

  Charge       = 1
  Multiplicity = 1
  Electrons    = 10
  Nalpha       = 5
  Nbeta        = 5

  ==> Algorithm <==

  SCF Algorithm Type is DF.
  DIIS enabled.
  MOM disabled.
  Fractional occupation disabled.
  Guess Type is SAD.
  Energy threshold   = 1.00e-08
  Density threshold  = 1.00e-08
  Integral threshold = 1.00e-12

  ==> Primary Basis <==

  Basis Set: AUG-CC-PVTZ
    Blend: AUG-CC-PVTZ
    Number of shells: 32
    Number of basis functions: 100
    Number of Cartesian functions: 118
    Spherical Harmonics?: true
    Max angular momentum: 3

   => Loading Basis Set <=

    Name: (AUG-CC-PVTZ AUX)
    Role: JKFIT
    Keyword: DF_BASIS_SCF
    atoms 1-2 entry NA         line   498 file /home/kchung25/anaconda3/envs/p415env/share/psi4/basis/def2-universal-jkfit.gbs 

  ==> Integral Setup <==

  ==> DiskDFJK: Density-Fitted J/K Matrices <==

    J tasked:                  Yes
    K tasked:                  Yes
    wK tasked:                  No
    OpenMP threads:              6
    Integrals threads:           6
    Memory [MiB]:            42915
    Algorithm:                Core
    Integral Cache:           LOAD
    Schwarz Cutoff:          1E-12
    Fitting Condition:       1E-10

   => Auxiliary Basis Set <=

  Basis Set: (AUG-CC-PVTZ AUX)
    Blend: DEF2-UNIVERSAL-JKFIT
    Number of shells: 68
    Number of basis functions: 224
    Number of Cartesian functions: 274
    Spherical Harmonics?: true
    Max angular momentum: 4

  Minimum eigenvalue in the overlap matrix is 2.1295342392E-04.
  Reciprocal condition number of the overlap matrix is 3.6534693647E-05.
    Using symmetric orthogonalization.

  ==> Pre-Iterations <==

  SCF Guess: Superposition of Atomic Densities via on-the-fly atomic UHF (no occupation information).

   -------------------------
    Irrep   Nso     Nmo    
   -------------------------
     A        100     100 
   -------------------------
    Total     100     100
   -------------------------

  ==> Iterations <==

                           Total Energy        Delta E     RMS |[F,P]|

   @DF-RHF iter SAD:  -161.74553057249227   -1.61746e+02   0.00000e+00 
   @DF-RHF iter   1:  -161.67601000584244    6.95206e-02   5.72851e-05 DIIS
   @DF-RHF iter   2:  -161.67602782445621   -1.78186e-05   1.09460e-05 DIIS
   @DF-RHF iter   3:  -161.67602826192584   -4.37470e-07   4.53901e-07 DIIS
   @DF-RHF iter   4:  -161.67602826271860   -7.92767e-10   2.43532e-08 DIIS
   @DF-RHF iter   5:  -161.67602826272071   -2.10321e-12   1.16925e-09 DIIS
  Energy and wave function converged.


  ==> Post-Iterations <==

    Orbital Energies [Eh]
    ---------------------

    Doubly Occupied:                                                      

       1A    -40.763554     2A     -3.075252     3A     -1.798453  
       4A     -1.798390     5A     -1.798390  

    Virtual:                                                              

       6A     -0.181844     7A     -0.109446     8A     -0.109441  
       9A     -0.109441    10A     -0.069998    11A     -0.054393  
      12A     -0.054270    13A     -0.054270    14A     -0.050466  
      15A     -0.050466    16A     -0.049797    17A     -0.049046  
      18A     -0.049046    19A     -0.028386    20A     -0.025710  
      21A     -0.024929    22A     -0.024929    23A     -0.018945  
      24A     -0.009827    25A     -0.009827    26A     -0.004396  
      27A     -0.004396    28A     -0.001230    29A      0.001677  
      30A      0.001677    31A      0.010881    32A      0.023859  
      33A      0.026811    34A      0.026811    35A      0.042605  
      36A      0.045611    37A      0.045611    38A      0.058369  
      39A      0.058369    40A      0.074613    41A      0.083367  
      42A      0.083367    43A      0.095044    44A      0.102660  
      45A      0.102660    46A      0.111345    47A      0.111345  
      48A      0.123395    49A      0.154110    50A      0.154110  
      51A      0.159091    52A      0.159091    53A      0.163301  
      54A      0.171321    55A      0.171321    56A      0.179427  
      57A      0.179427    58A      0.205126    59A      0.213042  
      60A      0.213042    61A      0.227476    62A      0.227476  
      63A      0.236627    64A      0.290685    65A      0.290685  
      66A      0.310786    67A      0.310786    68A      0.311831  
      69A      0.347353    70A      0.378797    71A      0.378797  
      72A      0.410435    73A      0.410435    74A      0.458451  
      75A      0.496782    76A      0.496782    77A      0.507055  
      78A      0.507055    79A      0.510700    80A      0.510700  
      81A      0.519636    82A      0.599769    83A      0.599769  
      84A      0.633913    85A      0.633913    86A      0.654033  
      87A      0.654033    88A      0.671311    89A      0.671311  
      90A      0.676819    91A      0.720402    92A      0.720402  
      93A      0.746465    94A      0.849033    95A      1.649796  
      96A      4.252828    97A      6.180396    98A      6.180396  
      99A      6.233239   100A     64.261086  

    Final Occupation by Irrep:
              A 
    DOCC [     5 ]
    NA   [     5 ]
    NB   [     5 ]

  @DF-RHF Final Energy:  -161.67602826272071

   => Energetics <=

    Nuclear Repulsion Energy =              0.0000000000000000
    One-Electron Energy =                -224.8839772356018329
    Two-Electron Energy =                  63.2079489728811268
    Total Energy =                       -161.6760282627207062

Computation Completed


Properties will be evaluated at   0.000000,   0.000000,   0.000000 [a0]

Properties computed using the SCF density matrix


 Multipole Moments:

 ------------------------------------------------------------------------------------
     Multipole            Electronic (a.u.)      Nuclear  (a.u.)        Total (a.u.)
 ------------------------------------------------------------------------------------

 L = 1.  Multiply by 2.5417464519 to convert [e a0] to [Debye]
 Dipole X            :          0.0002219            0.0000000            0.0002219
 Dipole Y            :         -0.0000000            0.0000000           -0.0000000
 Dipole Z            :         -0.0000000            0.0000000           -0.0000000
 Magnitude           :                                                    0.0002219

 ------------------------------------------------------------------------------------

*** tstop() called on moses-razer at Wed Jan  3 23:17:15 2024
Module time:
	user time   =       4.05 seconds =       0.07 minutes
	system time =       0.54 seconds =       0.01 minutes
	total time  =          1 seconds =       0.02 minutes
Total time:
	user time   =       8.91 seconds =       0.15 minutes
	system time =       1.04 seconds =       0.02 minutes
	total time  =          3 seconds =       0.05 minutes

  //>>>>>>>>>>>>>>>>>>>>>>>>>>>>>>>>>>>//
  //            Monomer B HF           //
  //<<<<<<<<<<<<<<<<<<<<<<<<<<<<<<<<<<<//

   => Libint2 <=

    Primary   basis highest AM E, G, H:  5, 4, 3
    Auxiliary basis highest AM E, G, H:  6, 5, 4
    Onebody   basis highest AM E, G, H:  6, 5, 4
    Solid Harmonics ordering:            gaussian

*** tstart() called on moses-razer
*** at Wed Jan  3 23:17:15 2024

   => Loading Basis Set <=

    Name: AUG-CC-PVTZ
    Role: ORBITAL
    Keyword: BASIS
    atoms 1-2 entry NA         line   469 file /home/kchung25/anaconda3/envs/p415env/share/psi4/basis/aug-cc-pvtz.gbs 


         ---------------------------------------------------------
                                   SCF
               by Justin Turney, Rob Parrish, Andy Simmonett
                          and Daniel G. A. Smith
                              RHF Reference
                        6 Threads,  57220 MiB Core
         ---------------------------------------------------------

  ==> Geometry <==

    Molecular point group: c1
    Full point group: C_inf_v

    Geometry (in Angstrom), charge = 1, multiplicity = 1:

       Center              X                  Y                   Z               Mass       
    ------------   -----------------  -----------------  -----------------  -----------------
      Gh(NA)          0.000000000000     0.000000000000     0.000000000000    22.989769282000
         NA           4.080000000000     0.000000000000     0.000000000000    22.989769282000

  Running in c1 symmetry.

  Rotational constants: A = ************  B =      0.04405  C =      0.04405 [cm^-1]
  Rotational constants: A = ************  B =   1320.57253  C =   1320.57253 [MHz]
  Nuclear repulsion =    0.000000000000000

  Charge       = 1
  Multiplicity = 1
  Electrons    = 10
  Nalpha       = 5
  Nbeta        = 5

  ==> Algorithm <==

  SCF Algorithm Type is DF.
  DIIS enabled.
  MOM disabled.
  Fractional occupation disabled.
  Guess Type is SAD.
  Energy threshold   = 1.00e-08
  Density threshold  = 1.00e-08
  Integral threshold = 1.00e-12

  ==> Primary Basis <==

  Basis Set: AUG-CC-PVTZ
    Blend: AUG-CC-PVTZ
    Number of shells: 32
    Number of basis functions: 100
    Number of Cartesian functions: 118
    Spherical Harmonics?: true
    Max angular momentum: 3

   => Loading Basis Set <=

    Name: (AUG-CC-PVTZ AUX)
    Role: JKFIT
    Keyword: DF_BASIS_SCF
    atoms 1-2 entry NA         line   498 file /home/kchung25/anaconda3/envs/p415env/share/psi4/basis/def2-universal-jkfit.gbs 

  ==> Integral Setup <==

  ==> DiskDFJK: Density-Fitted J/K Matrices <==

    J tasked:                  Yes
    K tasked:                  Yes
    wK tasked:                  No
    OpenMP threads:              6
    Integrals threads:           6
    Memory [MiB]:            42915
    Algorithm:                Core
    Integral Cache:           LOAD
    Schwarz Cutoff:          1E-12
    Fitting Condition:       1E-10

   => Auxiliary Basis Set <=

  Basis Set: (AUG-CC-PVTZ AUX)
    Blend: DEF2-UNIVERSAL-JKFIT
    Number of shells: 68
    Number of basis functions: 224
    Number of Cartesian functions: 274
    Spherical Harmonics?: true
    Max angular momentum: 4

  Minimum eigenvalue in the overlap matrix is 2.1295342392E-04.
  Reciprocal condition number of the overlap matrix is 3.6534693647E-05.
    Using symmetric orthogonalization.

  ==> Pre-Iterations <==

  SCF Guess: Superposition of Atomic Densities via on-the-fly atomic UHF (no occupation information).

   -------------------------
    Irrep   Nso     Nmo    
   -------------------------
     A        100     100 
   -------------------------
    Total     100     100
   -------------------------

  ==> Iterations <==

                           Total Energy        Delta E     RMS |[F,P]|

   @DF-RHF iter SAD:  -161.74553057251239   -1.61746e+02   0.00000e+00 
   @DF-RHF iter   1:  -161.67601000586257    6.95206e-02   5.72851e-05 DIIS
   @DF-RHF iter   2:  -161.67602782447611   -1.78186e-05   1.09460e-05 DIIS
   @DF-RHF iter   3:  -161.67602826194567   -4.37470e-07   4.53901e-07 DIIS
   @DF-RHF iter   4:  -161.67602826273853   -7.92852e-10   2.43532e-08 DIIS
   @DF-RHF iter   5:  -161.67602826274069   -2.16005e-12   1.16925e-09 DIIS
  Energy and wave function converged.


  ==> Post-Iterations <==

    Orbital Energies [Eh]
    ---------------------

    Doubly Occupied:                                                      

       1A    -40.763554     2A     -3.075252     3A     -1.798453  
       4A     -1.798390     5A     -1.798390  

    Virtual:                                                              

       6A     -0.181844     7A     -0.109446     8A     -0.109441  
       9A     -0.109441    10A     -0.069998    11A     -0.054393  
      12A     -0.054270    13A     -0.054270    14A     -0.050466  
      15A     -0.050466    16A     -0.049797    17A     -0.049046  
      18A     -0.049046    19A     -0.028386    20A     -0.025710  
      21A     -0.024929    22A     -0.024929    23A     -0.018945  
      24A     -0.009827    25A     -0.009827    26A     -0.004396  
      27A     -0.004396    28A     -0.001230    29A      0.001677  
      30A      0.001677    31A      0.010881    32A      0.023859  
      33A      0.026811    34A      0.026811    35A      0.042605  
      36A      0.045611    37A      0.045611    38A      0.058369  
      39A      0.058369    40A      0.074613    41A      0.083367  
      42A      0.083367    43A      0.095044    44A      0.102660  
      45A      0.102660    46A      0.111345    47A      0.111345  
      48A      0.123395    49A      0.154110    50A      0.154110  
      51A      0.159091    52A      0.159091    53A      0.163301  
      54A      0.171321    55A      0.171321    56A      0.179427  
      57A      0.179427    58A      0.205126    59A      0.213042  
      60A      0.213042    61A      0.227476    62A      0.227476  
      63A      0.236627    64A      0.290685    65A      0.290685  
      66A      0.310786    67A      0.310786    68A      0.311831  
      69A      0.347353    70A      0.378797    71A      0.378797  
      72A      0.410435    73A      0.410435    74A      0.458451  
      75A      0.496782    76A      0.496782    77A      0.507055  
      78A      0.507055    79A      0.510700    80A      0.510700  
      81A      0.519636    82A      0.599769    83A      0.599769  
      84A      0.633913    85A      0.633913    86A      0.654033  
      87A      0.654033    88A      0.671311    89A      0.671311  
      90A      0.676819    91A      0.720402    92A      0.720402  
      93A      0.746465    94A      0.849033    95A      1.649796  
      96A      4.252828    97A      6.180396    98A      6.180396  
      99A      6.233239   100A     64.261086  

    Final Occupation by Irrep:
              A 
    DOCC [     5 ]
    NA   [     5 ]
    NB   [     5 ]

  @DF-RHF Final Energy:  -161.67602826274069

   => Energetics <=

    Nuclear Repulsion Energy =              0.0000000000000000
    One-Electron Energy =                -224.8839772356061815
    Two-Electron Energy =                  63.2079489728654949
    Total Energy =                       -161.6760282627406866

Computation Completed


Properties will be evaluated at   0.000000,   0.000000,   0.000000 [a0]

Properties computed using the SCF density matrix


 Multipole Moments:

 ------------------------------------------------------------------------------------
     Multipole            Electronic (a.u.)      Nuclear  (a.u.)        Total (a.u.)
 ------------------------------------------------------------------------------------

 L = 1.  Multiply by 2.5417464519 to convert [e a0] to [Debye]
 Dipole X            :        -77.1010478           84.8109085            7.7098607
 Dipole Y            :          0.0000000            0.0000000            0.0000000
 Dipole Z            :         -0.0000000            0.0000000           -0.0000000
 Magnitude           :                                                    7.7098607

 ------------------------------------------------------------------------------------

*** tstop() called on moses-razer at Wed Jan  3 23:17:16 2024
Module time:
	user time   =       4.02 seconds =       0.07 minutes
	system time =       0.53 seconds =       0.01 minutes
	total time  =          1 seconds =       0.02 minutes
Total time:
	user time   =      12.95 seconds =       0.22 minutes
	system time =       1.57 seconds =       0.03 minutes
	total time  =          4 seconds =       0.07 minutes
  Constructing Basis Sets for SAPT...

   => Loading Basis Set <=

    Name: (AUG-CC-PVTZ AUX)
    Role: RIFIT
    Keyword: DF_BASIS_SAPT
    atoms 1-2 entry NA         line   610 file /home/kchung25/anaconda3/envs/p415env/share/psi4/basis/def2-qzvpp-ri.gbs 

   => Loading Basis Set <=

    Name: (AUG-CC-PVTZ AUX)
    Role: JKFIT
    Keyword: DF_BASIS_ELST
    atoms 1-2 entry NA         line   498 file /home/kchung25/anaconda3/envs/p415env/share/psi4/basis/def2-universal-jkfit.gbs 


  //>>>>>>>>>>>>>>>>>>>>>>>>>>>>>>>>>>>//
  //               SAPT2+              //
  //<<<<<<<<<<<<<<<<<<<<<<<<<<<<<<<<<<<//


*** tstart() called on moses-razer
*** at Wed Jan  3 23:17:16 2024

        SAPT2+  
    Ed Hohenstein
     6 June 2009

      Orbital Information
  --------------------------
    NSO        =       100
    NMO        =       100
    NRI        =       332
    NOCC A     =         5
    NOCC B     =         5
    FOCC A     =         0
    FOCC B     =         0
    NVIR A     =        95
    NVIR B     =        95

    Estimated memory usage: 29.4 MB

    Natural Orbital Cutoff:   1.000E-06
    Disp(T3) Truncation:            Yes
    CCD (vv|vv) Truncation:         Yes
    MBPT T2 Truncation:             Yes

    Monomer A: 85 virtual orbitals dropped
    Monomer B: 85 virtual orbitals dropped

    Elst10,r            =     0.129709746433 [Eh]
    Exch10 (S^2)        =     0.000000005254 [Eh]
    Exch10              =     0.000000005254 [Eh]
    Ind20,r (A<-B)      =    -0.000062928497 [Eh]
    Ind20,r (B<-A)      =    -0.000062928497 [Eh]
    Ind20,r             =    -0.000125856994 [Eh]
    Exch-Ind20,r (A<-B) =     0.000000004081 [Eh]
    Exch-Ind20,r (B<-A) =     0.000000004081 [Eh]
    Exch-Ind20,r        =     0.000000008161 [Eh]
    Disp20              =    -0.000001099585 [Eh]
    Disp20 (NO)         =    -0.000001022036 [Eh]
    Exch-Disp20         =     0.000000000937 [Eh]
    Elst12,r            =    -0.000006657875 [Eh]
    Exch11              =     0.000000002439 [Eh]
    Exch12              =    -0.000000585815 [Eh]
    Ind22               =    -0.000009999993 [Eh]
    Disp21              =    -0.000000192317 [Eh]
    Disp22 (SDQ)        =    -0.000000131218 [Eh]

    (i =   1 of   5)          0 seconds
    (i =   2 of   5)          0 seconds
    (i =   3 of   5)          0 seconds
    (i =   4 of   5)          0 seconds
    (i =   5 of   5)          0 seconds

    Disp220 (T)         =    -0.000000027322 [Eh]

    (i =   1 of   5)          0 seconds
    (i =   2 of   5)          0 seconds
    (i =   3 of   5)          0 seconds
    (i =   4 of   5)          0 seconds
    (i =   5 of   5)          0 seconds

    Disp202 (T)         =    -0.000000027322 [Eh]

    Disp22 (T)          =    -0.000000054645 [Eh]

    Est. Disp220 (T)    =    -0.000000029395 [Eh]
    Est. Disp202 (T)    =    -0.000000029395 [Eh]

    Est. Disp22 (T)     =    -0.000000058791 [Eh]

    SAPT Results 
  --------------------------------------------------------------------------------------------------------
    Electrostatics                129.70308856 [mEh]      81.38991685 [kcal/mol]     340.53541209 [kJ/mol]
      Elst10,r                    129.70974643 [mEh]      81.39409473 [kcal/mol]     340.55289234 [kJ/mol]
      Elst12,r                     -0.00665788 [mEh]      -0.00417788 [kcal/mol]      -0.01748025 [kJ/mol]

    Exchange                       -0.00057812 [mEh]      -0.00036278 [kcal/mol]      -0.00151786 [kJ/mol]
      Exch10                        0.00000525 [mEh]       0.00000330 [kcal/mol]       0.00001379 [kJ/mol]
      Exch10(S^2)                   0.00000525 [mEh]       0.00000330 [kcal/mol]       0.00001379 [kJ/mol]
      Exch11(S^2)                   0.00000244 [mEh]       0.00000153 [kcal/mol]       0.00000640 [kJ/mol]
      Exch12(S^2)                  -0.00058581 [mEh]      -0.00036760 [kcal/mol]      -0.00153806 [kJ/mol]

    Induction                      -0.13635232 [mEh]      -0.08556237 [kcal/mol]      -0.35799297 [kJ/mol]
      Ind20,r                      -0.12585699 [mEh]      -0.07897646 [kcal/mol]      -0.33043749 [kJ/mol]
      Ind22                        -0.00999999 [mEh]      -0.00627509 [kcal/mol]      -0.02625498 [kJ/mol]
      Exch-Ind20,r                  0.00000816 [mEh]       0.00000512 [kcal/mol]       0.00002143 [kJ/mol]
      Exch-Ind22                    0.00000065 [mEh]       0.00000041 [kcal/mol]       0.00000170 [kJ/mol]
      delta HF,r (2)               -0.00050414 [mEh]      -0.00031636 [kcal/mol]      -0.00132363 [kJ/mol]

    Dispersion                     -0.00148097 [mEh]      -0.00092933 [kcal/mol]      -0.00388830 [kJ/mol]
      Disp20                       -0.00109958 [mEh]      -0.00069000 [kcal/mol]      -0.00288696 [kJ/mol]
      Disp21                       -0.00019232 [mEh]      -0.00012068 [kcal/mol]      -0.00050493 [kJ/mol]
      Disp22 (SDQ)                 -0.00013122 [mEh]      -0.00008234 [kcal/mol]      -0.00034451 [kJ/mol]
      Disp22 (T)                   -0.00005464 [mEh]      -0.00003429 [kcal/mol]      -0.00014347 [kJ/mol]
      Est. Disp22 (T)              -0.00005879 [mEh]      -0.00003689 [kcal/mol]      -0.00015436 [kJ/mol]
      Exch-Disp20                   0.00000094 [mEh]       0.00000059 [kcal/mol]       0.00000246 [kJ/mol]

  Total HF                        129.58339871 [mEh]      81.31481034 [kcal/mol]     340.22116644 [kJ/mol]
  Total SAPT0                     129.58230006 [mEh]      81.31412092 [kcal/mol]     340.21828194 [kJ/mol]
  Total SAPT2                     129.56505947 [mEh]      81.30330229 [kcal/mol]     340.17301676 [kJ/mol]
  Total SAPT2+                    129.56467714 [mEh]      81.30306237 [kcal/mol]     340.17201297 [kJ/mol]

  Special recipe for scaled SAPT0 (see Manual):
    Electrostatics sSAPT0         129.70974643 [mEh]      81.39409473 [kcal/mol]     340.55289234 [kJ/mol]
    Exchange sSAPT0                 0.00000525 [mEh]       0.00000330 [kcal/mol]       0.00001379 [kJ/mol]
    Induction sSAPT0               -0.12635298 [mEh]      -0.07928769 [kcal/mol]      -0.33173970 [kJ/mol]
    Dispersion sSAPT0              -0.00109865 [mEh]      -0.00068941 [kcal/mol]      -0.00288450 [kJ/mol]
  Total sSAPT0                    129.58230006 [mEh]      81.31412092 [kcal/mol]     340.21828194 [kJ/mol]
  --------------------------------------------------------------------------------------------------------

*** tstop() called on moses-razer at Wed Jan  3 23:17:20 2024
Module time:
	user time   =       9.24 seconds =       0.15 minutes
	system time =       0.58 seconds =       0.01 minutes
	total time  =          4 seconds =       0.07 minutes
Total time:
	user time   =      22.61 seconds =       0.38 minutes
	system time =       2.15 seconds =       0.04 minutes
	total time  =          8 seconds =       0.13 minutes

    Psi4 stopped on: Wednesday, 03 January 2024 11:17PM
    Psi4 wall time for execution: 0:00:08.13

*** Psi4 exiting successfully. Buy a developer a beer!
