
    -----------------------------------------------------------------------
          Psi4: An Open-Source Ab Initio Electronic Structure Package
                               Psi4 1.9 release

                         Git: Rev {} zzzzzzz 


    D. G. A. Smith, L. A. Burns, A. C. Simmonett, R. M. Parrish,
    M. C. Schieber, R. Galvelis, P. Kraus, H. Kruse, R. Di Remigio,
    A. Alenaizan, A. M. James, S. Lehtola, J. P. Misiewicz, M. Scheurer,
    R. A. Shaw, J. B. Schriber, Y. Xie, Z. L. Glick, D. A. Sirianni,
    J. S. O'Brien, J. M. Waldrop, A. Kumar, E. G. Hohenstein,
    B. P. Pritchard, B. R. Brooks, H. F. Schaefer III, A. Yu. Sokolov,
    K. Patkowski, A. E. DePrince III, U. Bozkaya, R. A. King,
    F. A. Evangelista, J. M. Turney, T. D. Crawford, C. D. Sherrill,
    J. Chem. Phys. 152(18) 184108 (2020). https://doi.org/10.1063/5.0006002

                            Additional Code Authors
    E. T. Seidl, C. L. Janssen, E. F. Valeev, M. L. Leininger,
    J. F. Gonthier, R. M. Richard, H. R. McAlexander, M. Saitow, X. Wang,
    P. Verma, M. H. Lechner, A. Jiang, S. Behnle, A. G. Heide,
    M. F. Herbst, and D. L. Poole

             Previous Authors, Complete List of Code Contributors,
                       and Citations for Specific Modules
    https://github.com/psi4/psi4/blob/master/codemeta.json
    https://github.com/psi4/psi4/graphs/contributors
    http://psicode.org/psi4manual/master/introduction.html#citing-psifour

    -----------------------------------------------------------------------


    Psi4 started on: Wednesday, 03 January 2024 11:34PM

    Process ID: 450435
    Host:       moses-razer
    PSIDATADIR: /home/kchung25/anaconda3/envs/psi4_19/share/psi4
    Memory:     500.0 MiB
    Threads:    6
    
  ==> Input File <==

--------------------------------------------------------------------------
MEMORY 60 GB

molecule dimer {
-1 1
Br     0.000000     0.000000     0.000000
--
-1 1
Br     4.704000     0.000000     0.000000

units ang
no_reorient
no_com
symmetry c1
}

set {
basis        aug-cc-pVTZ
scf_type     df
}

energy("sapt2+")
--------------------------------------------------------------------------

  Memory set to  55.879 GiB by Python driver.

Scratch directory: /scratch/
   => Loading Basis Set <=

    Name: AUG-CC-PVTZ
    Role: ORBITAL
    Keyword: BASIS
    atoms 1-2 entry BR         line  4564 file /home/kchung25/anaconda3/envs/p415env/share/psi4/basis/aug-cc-pvtz.gbs 

   => Loading Basis Set <=

    Name: AUG-CC-PVTZ
    Role: ORBITAL
    Keyword: BASIS
    atoms 1-2 entry BR         line  4564 file /home/kchung25/anaconda3/envs/p415env/share/psi4/basis/aug-cc-pvtz.gbs 


  //>>>>>>>>>>>>>>>>>>>>>>>>>>>>>>>>>>>//
  //              Dimer HF             //
  //<<<<<<<<<<<<<<<<<<<<<<<<<<<<<<<<<<<//

   => Libint2 <=

    Primary   basis highest AM E, G, H:  5, 4, 3
    Auxiliary basis highest AM E, G, H:  6, 5, 4
    Onebody   basis highest AM E, G, H:  6, 5, 4
    Solid Harmonics ordering:            gaussian

*** tstart() called on moses-razer
*** at Wed Jan  3 23:34:47 2024

   => Loading Basis Set <=

    Name: AUG-CC-PVTZ
    Role: ORBITAL
    Keyword: BASIS
    atoms 1-2 entry BR         line  4564 file /home/kchung25/anaconda3/envs/p415env/share/psi4/basis/aug-cc-pvtz.gbs 


         ---------------------------------------------------------
                                   SCF
               by Justin Turney, Rob Parrish, Andy Simmonett
                          and Daniel G. A. Smith
                              RHF Reference
                        6 Threads,  57220 MiB Core
         ---------------------------------------------------------

  ==> Geometry <==

    Molecular point group: c1
    Full point group: C_inf_v

    Geometry (in Angstrom), charge = -2, multiplicity = 1:

       Center              X                  Y                   Z               Mass       
    ------------   -----------------  -----------------  -----------------  -----------------
         BR           0.000000000000     0.000000000000     0.000000000000    78.918337600000
         BR           4.704000000000     0.000000000000     0.000000000000    78.918337600000

  Running in c1 symmetry.

  Rotational constants: A = ************  B =      0.00965  C =      0.00965 [cm^-1]
  Rotational constants: A = ************  B =    289.40408  C =    289.40408 [MHz]
  Nuclear repulsion =  137.806565278645849

  Charge       = -2
  Multiplicity = 1
  Electrons    = 72
  Nalpha       = 36
  Nbeta        = 36

  ==> Algorithm <==

  SCF Algorithm Type is DF.
  DIIS enabled.
  MOM disabled.
  Fractional occupation disabled.
  Guess Type is SAD.
  Energy threshold   = 1.00e-08
  Density threshold  = 1.00e-08
  Integral threshold = 1.00e-12

  ==> Primary Basis <==

  Basis Set: AUG-CC-PVTZ
    Blend: AUG-CC-PVTZ
    Number of shells: 38
    Number of basis functions: 118
    Number of Cartesian functions: 138
    Spherical Harmonics?: true
    Max angular momentum: 3

   => Loading Basis Set <=

    Name: (AUG-CC-PVTZ AUX)
    Role: JKFIT
    Keyword: DF_BASIS_SCF
    atoms 1-2 entry BR         line  1492 file /home/kchung25/anaconda3/envs/p415env/share/psi4/basis/aug-cc-pvtz-jkfit.gbs 

  ==> Integral Setup <==

  ==> DiskDFJK: Density-Fitted J/K Matrices <==

    J tasked:                  Yes
    K tasked:                  Yes
    wK tasked:                  No
    OpenMP threads:              6
    Integrals threads:           6
    Memory [MiB]:            42915
    Algorithm:                Core
    Integral Cache:           SAVE
    Schwarz Cutoff:          1E-12
    Fitting Condition:       1E-10

   => Auxiliary Basis Set <=

  Basis Set: (AUG-CC-PVTZ AUX)
    Blend: AUG-CC-PVTZ-JKFIT
    Number of shells: 116
    Number of basis functions: 496
    Number of Cartesian functions: 658
    Spherical Harmonics?: true
    Max angular momentum: 4

  Minimum eigenvalue in the overlap matrix is 6.1459471945E-03.
  Reciprocal condition number of the overlap matrix is 1.9252457443E-03.
    Using symmetric orthogonalization.

  ==> Pre-Iterations <==

  SCF Guess: Superposition of Atomic Densities via on-the-fly atomic UHF (no occupation information).

   -------------------------
    Irrep   Nso     Nmo    
   -------------------------
     A        118     118 
   -------------------------
    Total     118     118
   -------------------------

  ==> Iterations <==

                           Total Energy        Delta E     RMS |[F,P]|

   @DF-RHF iter SAD: -5140.82884447823653   -5.14083e+03   0.00000e+00 
   @DF-RHF iter   1: -5144.39919602911505   -3.57035e+00   1.25490e-02 ADIIS/DIIS
   @DF-RHF iter   2: -5144.81664281957183   -4.17447e-01   7.01933e-03 ADIIS/DIIS
   @DF-RHF iter   3: -5144.96039945662778   -1.43757e-01   2.26534e-04 ADIIS/DIIS
   @DF-RHF iter   4: -5144.96064194125393   -2.42485e-04   2.27356e-05 DIIS
   @DF-RHF iter   5: -5144.96064917844978   -7.23720e-06   8.69369e-06 DIIS
   @DF-RHF iter   6: -5144.96065017853653   -1.00009e-06   1.94405e-06 DIIS
   @DF-RHF iter   7: -5144.96065030011232   -1.21576e-07   4.42200e-07 DIIS
   @DF-RHF iter   8: -5144.96065030443060   -4.31828e-09   9.50636e-08 DIIS
   @DF-RHF iter   9: -5144.96065030486716   -4.36557e-10   1.49493e-08 DIIS
   @DF-RHF iter  10: -5144.96065030487443   -7.27596e-12   3.28977e-09 DIIS
  Energy and wave function converged.


  ==> Post-Iterations <==

    Orbital Energies [Eh]
    ---------------------

    Doubly Occupied:                                                      

       1A   -489.616971     2A   -489.616971     3A    -64.756974  
       4A    -64.756974     5A    -58.111452     6A    -58.111452  
       7A    -58.111452     8A    -58.111452     9A    -58.111418  
      10A    -58.111418    11A     -9.429293    12A     -9.429293  
      13A     -7.036673    14A     -7.036673    15A     -7.036673  
      16A     -7.036673    17A     -7.036456    18A     -7.036455  
      19A     -2.778456    20A     -2.778456    21A     -2.778456  
      22A     -2.778456    23A     -2.778196    24A     -2.778196  
      25A     -2.778194    26A     -2.778194    27A     -2.778104  
      28A     -2.778102    29A     -0.582109    30A     -0.581234  
      31A     -0.039123    32A     -0.036808    33A     -0.036808  
      34A     -0.034525    35A     -0.034525    36A     -0.026763  

    Virtual:                                                              

      37A      0.317688    38A      0.341517    39A      0.341517  
      40A      0.349928    41A      0.352841    42A      0.352841  
      43A      0.394710    44A      0.450573    45A      0.572224  
      46A      0.572224    47A      0.584333    48A      0.584333  
      49A      0.596016    50A      0.597404    51A      0.597404  
      52A      0.642922    53A      0.642922    54A      0.691615  
      55A      0.826820    56A      0.836564    57A      0.836564  
      58A      0.852072    59A      0.852072    60A      0.916310  
      61A      1.017510    62A      1.067672    63A      1.124227  
      64A      1.124227    65A      1.130633    66A      1.130633  
      67A      1.142347    68A      1.142347    69A      1.172277  
      70A      1.172277    71A      1.187867    72A      1.203748  
      73A      1.302390    74A      1.309125    75A      1.309125  
      76A      1.311858    77A      1.311858    78A      1.312104  
      79A      1.312104    80A      1.313001    81A      1.313001  
      82A      1.317301    83A      1.317301    84A      1.342440  
      85A      1.342440    86A      1.441220    87A      2.499402  
      88A      2.504955    89A      2.504955    90A      2.520901  
      91A      2.520901    92A      2.556153    93A      2.652217  
      94A      2.652217    95A      2.663496    96A      2.663496  
      97A      2.673693    98A      2.673693    99A      2.678893  
     100A      2.678893   101A      2.679812   102A      2.680385  
     103A      2.688439   104A      2.688439   105A      2.688653  
     106A      2.688653   107A      2.689209   108A      2.689209  
     109A      2.691548   110A      2.691548   111A      2.692633  
     112A      2.692633   113A      2.712645   114A      2.732487  
     115A      2.732487   116A      2.855499   117A      3.850245  
     118A      3.961225  

    Final Occupation by Irrep:
              A 
    DOCC [    36 ]
    NA   [    36 ]
    NB   [    36 ]

  @DF-RHF Final Energy: -5144.96065030487443

   => Energetics <=

    Nuclear Repulsion Energy =            137.8065652786458486
    One-Electron Energy =               -7470.2355841060643797
    Two-Electron Energy =                2187.4683685225440968
    Total Energy =                      -5144.9606503048744344

Computation Completed


Properties will be evaluated at   0.000000,   0.000000,   0.000000 [a0]

Properties computed using the SCF density matrix


 Multipole Moments:

 ------------------------------------------------------------------------------------
     Multipole            Electronic (a.u.)      Nuclear  (a.u.)        Total (a.u.)
 ------------------------------------------------------------------------------------

 L = 1.  Multiply by 2.5417464519 to convert [e a0] to [Debye]
 Dipole X            :       -320.0137810          311.1245093           -8.8892717
 Dipole Y            :          0.0000000            0.0000000            0.0000000
 Dipole Z            :          0.0000000            0.0000000            0.0000000
 Magnitude           :                                                    8.8892717

 ------------------------------------------------------------------------------------

*** tstop() called on moses-razer at Wed Jan  3 23:34:51 2024
Module time:
	user time   =       8.92 seconds =       0.15 minutes
	system time =       0.93 seconds =       0.02 minutes
	total time  =          4 seconds =       0.07 minutes
Total time:
	user time   =       8.92 seconds =       0.15 minutes
	system time =       0.93 seconds =       0.02 minutes
	total time  =          4 seconds =       0.07 minutes

  //>>>>>>>>>>>>>>>>>>>>>>>>>>>>>>>>>>>//
  //            Monomer A HF           //
  //<<<<<<<<<<<<<<<<<<<<<<<<<<<<<<<<<<<//

   => Libint2 <=

    Primary   basis highest AM E, G, H:  5, 4, 3
    Auxiliary basis highest AM E, G, H:  6, 5, 4
    Onebody   basis highest AM E, G, H:  6, 5, 4
    Solid Harmonics ordering:            gaussian

*** tstart() called on moses-razer
*** at Wed Jan  3 23:34:51 2024

   => Loading Basis Set <=

    Name: AUG-CC-PVTZ
    Role: ORBITAL
    Keyword: BASIS
    atoms 1-2 entry BR         line  4564 file /home/kchung25/anaconda3/envs/p415env/share/psi4/basis/aug-cc-pvtz.gbs 


         ---------------------------------------------------------
                                   SCF
               by Justin Turney, Rob Parrish, Andy Simmonett
                          and Daniel G. A. Smith
                              RHF Reference
                        6 Threads,  57220 MiB Core
         ---------------------------------------------------------

  ==> Geometry <==

    Molecular point group: c1
    Full point group: C_inf_v

    Geometry (in Angstrom), charge = -1, multiplicity = 1:

       Center              X                  Y                   Z               Mass       
    ------------   -----------------  -----------------  -----------------  -----------------
         BR           0.000000000000     0.000000000000     0.000000000000    78.918337600000
      Gh(BR)          4.704000000000     0.000000000000     0.000000000000    78.918337600000

  Running in c1 symmetry.

  Rotational constants: A = ************  B =      0.00965  C =      0.00965 [cm^-1]
  Rotational constants: A = ************  B =    289.40408  C =    289.40408 [MHz]
  Nuclear repulsion =    0.000000000000000

  Charge       = -1
  Multiplicity = 1
  Electrons    = 36
  Nalpha       = 18
  Nbeta        = 18

  ==> Algorithm <==

  SCF Algorithm Type is DF.
  DIIS enabled.
  MOM disabled.
  Fractional occupation disabled.
  Guess Type is SAD.
  Energy threshold   = 1.00e-08
  Density threshold  = 1.00e-08
  Integral threshold = 1.00e-12

  ==> Primary Basis <==

  Basis Set: AUG-CC-PVTZ
    Blend: AUG-CC-PVTZ
    Number of shells: 38
    Number of basis functions: 118
    Number of Cartesian functions: 138
    Spherical Harmonics?: true
    Max angular momentum: 3

   => Loading Basis Set <=

    Name: (AUG-CC-PVTZ AUX)
    Role: JKFIT
    Keyword: DF_BASIS_SCF
    atoms 1-2 entry BR         line  1492 file /home/kchung25/anaconda3/envs/p415env/share/psi4/basis/aug-cc-pvtz-jkfit.gbs 

  ==> Integral Setup <==

  ==> DiskDFJK: Density-Fitted J/K Matrices <==

    J tasked:                  Yes
    K tasked:                  Yes
    wK tasked:                  No
    OpenMP threads:              6
    Integrals threads:           6
    Memory [MiB]:            42915
    Algorithm:                Core
    Integral Cache:           LOAD
    Schwarz Cutoff:          1E-12
    Fitting Condition:       1E-10

   => Auxiliary Basis Set <=

  Basis Set: (AUG-CC-PVTZ AUX)
    Blend: AUG-CC-PVTZ-JKFIT
    Number of shells: 116
    Number of basis functions: 496
    Number of Cartesian functions: 658
    Spherical Harmonics?: true
    Max angular momentum: 4

  Minimum eigenvalue in the overlap matrix is 6.1459471945E-03.
  Reciprocal condition number of the overlap matrix is 1.9252457443E-03.
    Using symmetric orthogonalization.

  ==> Pre-Iterations <==

  SCF Guess: Superposition of Atomic Densities via on-the-fly atomic UHF (no occupation information).

   -------------------------
    Irrep   Nso     Nmo    
   -------------------------
     A        118     118 
   -------------------------
    Total     118     118
   -------------------------

  ==> Iterations <==

                           Total Energy        Delta E     RMS |[F,P]|

   @DF-RHF iter SAD: -2570.41423519181399   -2.57041e+03   0.00000e+00 
   @DF-RHF iter   1: -2572.25594874450462   -1.84171e+00   8.86820e-03 ADIIS/DIIS
   @DF-RHF iter   2: -2572.46486746751134   -2.08919e-01   4.91764e-03 ADIIS/DIIS
   @DF-RHF iter   3: -2572.53362505838504   -6.87576e-02   9.76501e-05 DIIS
   @DF-RHF iter   4: -2572.53366704475275   -4.19864e-05   9.34074e-06 DIIS
   @DF-RHF iter   5: -2572.53366801178890   -9.67036e-07   2.30772e-06 DIIS
   @DF-RHF iter   6: -2572.53366807247539   -6.06865e-08   4.05422e-07 DIIS
   @DF-RHF iter   7: -2572.53366807883549   -6.36010e-09   2.68058e-08 DIIS
   @DF-RHF iter   8: -2572.53366807886641   -3.09228e-11   6.18422e-09 DIIS
  Energy and wave function converged.


  ==> Post-Iterations <==

    Orbital Energies [Eh]
    ---------------------

    Doubly Occupied:                                                      

       1A   -489.720351     2A    -64.860446     3A    -58.214914  
       4A    -58.214914     5A    -58.214913     6A     -9.532851  
       7A     -7.140192     8A     -7.140192     9A     -7.140190  
      10A     -2.881858    11A     -2.881858    12A     -2.881857  
      13A     -2.881857    14A     -2.881852    15A     -0.686000  
      16A     -0.139337    17A     -0.139337    18A     -0.139337  

    Virtual:                                                              

      19A      0.143118    20A      0.176331    21A      0.176331  
      22A      0.207290    23A      0.256648    24A      0.256648  
      25A      0.257348    26A      0.314396    27A      0.401665  
      28A      0.422366    29A      0.422366    30A      0.425429  
      31A      0.435164    32A      0.435164    33A      0.436994  
      34A      0.436994    35A      0.481175    36A      0.491886  
      37A      0.491886    38A      0.523986    39A      0.523986  
      40A      0.602148    41A      0.743605    42A      0.743605  
      43A      0.765914    44A      0.935717    45A      1.034046  
      46A      1.034046    47A      1.037876    48A      1.037876  
      49A      1.071137    50A      1.103720    51A      1.103720  
      52A      1.117800    53A      1.148718    54A      1.166969  
      55A      1.166969    56A      1.170611    57A      1.170611  
      58A      1.177255    59A      1.177255    60A      1.184894  
      61A      1.205254    62A      1.205254    63A      1.208861  
      64A      1.208861    65A      1.210048    66A      1.210048  
      67A      1.225970    68A      1.225970    69A      1.240672  
      70A      1.262311    71A      1.262311    72A      1.384109  
      73A      2.410122    74A      2.410122    75A      2.433573  
      76A      2.566540    77A      2.566540    78A      2.574836  
      79A      2.574836    80A      2.581478    81A      2.585764  
      82A      2.585764    83A      2.585840    84A      2.585840  
      85A      2.590711    86A      2.590711    87A      2.640579  
      88A      2.958723    89A      2.972307    90A      2.972307  
      91A      3.005384    92A      3.234735    93A      3.234735  
      94A      3.236725    95A      3.236725    96A      3.242976  
      97A      3.242976    98A      3.270049    99A      3.402491  
     100A      3.402491   101A      3.414652   102A      3.414652  
     103A      3.466213   104A      3.803956   105A      9.268037  
     106A     13.561650   107A     13.561650   108A     13.581116  
     109A     26.246943   110A     26.246943   111A     26.255874  
     112A     26.255874   113A     26.296797   114A     45.281294  
     115A    138.507851   116A    138.507851   117A    138.535463  
     118A    707.917238  

    Final Occupation by Irrep:
              A 
    DOCC [    18 ]
    NA   [    18 ]
    NB   [    18 ]

  @DF-RHF Final Energy: -2572.53366807886641

   => Energetics <=

    Nuclear Repulsion Energy =              0.0000000000000000
    One-Electron Energy =               -3593.6828232493130599
    Two-Electron Energy =                1021.1491551704469884
    Total Energy =                      -2572.5336680788659578

Computation Completed


Properties will be evaluated at   0.000000,   0.000000,   0.000000 [a0]

Properties computed using the SCF density matrix


 Multipole Moments:

 ------------------------------------------------------------------------------------
     Multipole            Electronic (a.u.)      Nuclear  (a.u.)        Total (a.u.)
 ------------------------------------------------------------------------------------

 L = 1.  Multiply by 2.5417464519 to convert [e a0] to [Debye]
 Dipole X            :          0.0001519            0.0000000            0.0001519
 Dipole Y            :          0.0000000            0.0000000            0.0000000
 Dipole Z            :          0.0000000            0.0000000            0.0000000
 Magnitude           :                                                    0.0001519

 ------------------------------------------------------------------------------------

*** tstop() called on moses-razer at Wed Jan  3 23:34:55 2024
Module time:
	user time   =       7.19 seconds =       0.12 minutes
	system time =       0.84 seconds =       0.01 minutes
	total time  =          4 seconds =       0.07 minutes
Total time:
	user time   =      16.14 seconds =       0.27 minutes
	system time =       1.77 seconds =       0.03 minutes
	total time  =          8 seconds =       0.13 minutes

  //>>>>>>>>>>>>>>>>>>>>>>>>>>>>>>>>>>>//
  //            Monomer B HF           //
  //<<<<<<<<<<<<<<<<<<<<<<<<<<<<<<<<<<<//

   => Libint2 <=

    Primary   basis highest AM E, G, H:  5, 4, 3
    Auxiliary basis highest AM E, G, H:  6, 5, 4
    Onebody   basis highest AM E, G, H:  6, 5, 4
    Solid Harmonics ordering:            gaussian

*** tstart() called on moses-razer
*** at Wed Jan  3 23:34:55 2024

   => Loading Basis Set <=

    Name: AUG-CC-PVTZ
    Role: ORBITAL
    Keyword: BASIS
    atoms 1-2 entry BR         line  4564 file /home/kchung25/anaconda3/envs/p415env/share/psi4/basis/aug-cc-pvtz.gbs 


         ---------------------------------------------------------
                                   SCF
               by Justin Turney, Rob Parrish, Andy Simmonett
                          and Daniel G. A. Smith
                              RHF Reference
                        6 Threads,  57220 MiB Core
         ---------------------------------------------------------

  ==> Geometry <==

    Molecular point group: c1
    Full point group: C_inf_v

    Geometry (in Angstrom), charge = -1, multiplicity = 1:

       Center              X                  Y                   Z               Mass       
    ------------   -----------------  -----------------  -----------------  -----------------
      Gh(BR)          0.000000000000     0.000000000000     0.000000000000    78.918337600000
         BR           4.704000000000     0.000000000000     0.000000000000    78.918337600000

  Running in c1 symmetry.

  Rotational constants: A = ************  B =      0.00965  C =      0.00965 [cm^-1]
  Rotational constants: A = ************  B =    289.40408  C =    289.40408 [MHz]
  Nuclear repulsion =    0.000000000000000

  Charge       = -1
  Multiplicity = 1
  Electrons    = 36
  Nalpha       = 18
  Nbeta        = 18

  ==> Algorithm <==

  SCF Algorithm Type is DF.
  DIIS enabled.
  MOM disabled.
  Fractional occupation disabled.
  Guess Type is SAD.
  Energy threshold   = 1.00e-08
  Density threshold  = 1.00e-08
  Integral threshold = 1.00e-12

  ==> Primary Basis <==

  Basis Set: AUG-CC-PVTZ
    Blend: AUG-CC-PVTZ
    Number of shells: 38
    Number of basis functions: 118
    Number of Cartesian functions: 138
    Spherical Harmonics?: true
    Max angular momentum: 3

   => Loading Basis Set <=

    Name: (AUG-CC-PVTZ AUX)
    Role: JKFIT
    Keyword: DF_BASIS_SCF
    atoms 1-2 entry BR         line  1492 file /home/kchung25/anaconda3/envs/p415env/share/psi4/basis/aug-cc-pvtz-jkfit.gbs 

  ==> Integral Setup <==

  ==> DiskDFJK: Density-Fitted J/K Matrices <==

    J tasked:                  Yes
    K tasked:                  Yes
    wK tasked:                  No
    OpenMP threads:              6
    Integrals threads:           6
    Memory [MiB]:            42915
    Algorithm:                Core
    Integral Cache:           LOAD
    Schwarz Cutoff:          1E-12
    Fitting Condition:       1E-10

   => Auxiliary Basis Set <=

  Basis Set: (AUG-CC-PVTZ AUX)
    Blend: AUG-CC-PVTZ-JKFIT
    Number of shells: 116
    Number of basis functions: 496
    Number of Cartesian functions: 658
    Spherical Harmonics?: true
    Max angular momentum: 4

  Minimum eigenvalue in the overlap matrix is 6.1459471945E-03.
  Reciprocal condition number of the overlap matrix is 1.9252457443E-03.
    Using symmetric orthogonalization.

  ==> Pre-Iterations <==

  SCF Guess: Superposition of Atomic Densities via on-the-fly atomic UHF (no occupation information).

   -------------------------
    Irrep   Nso     Nmo    
   -------------------------
     A        118     118 
   -------------------------
    Total     118     118
   -------------------------

  ==> Iterations <==

                           Total Energy        Delta E     RMS |[F,P]|

   @DF-RHF iter SAD: -2570.41423519175123   -2.57041e+03   0.00000e+00 
   @DF-RHF iter   1: -2572.25594874442822   -1.84171e+00   8.86820e-03 ADIIS/DIIS
   @DF-RHF iter   2: -2572.46486746743540   -2.08919e-01   4.91764e-03 ADIIS/DIIS
   @DF-RHF iter   3: -2572.53362505831137   -6.87576e-02   9.76501e-05 DIIS
   @DF-RHF iter   4: -2572.53366704467635   -4.19864e-05   9.34074e-06 DIIS
   @DF-RHF iter   5: -2572.53366801171114   -9.67035e-07   2.30772e-06 DIIS
   @DF-RHF iter   6: -2572.53366807240218   -6.06910e-08   4.05422e-07 DIIS
   @DF-RHF iter   7: -2572.53366807876409   -6.36192e-09   2.68058e-08 DIIS
   @DF-RHF iter   8: -2572.53366807878501   -2.09184e-11   6.18424e-09 DIIS
  Energy and wave function converged.


  ==> Post-Iterations <==

    Orbital Energies [Eh]
    ---------------------

    Doubly Occupied:                                                      

       1A   -489.720351     2A    -64.860446     3A    -58.214914  
       4A    -58.214914     5A    -58.214913     6A     -9.532851  
       7A     -7.140192     8A     -7.140192     9A     -7.140190  
      10A     -2.881858    11A     -2.881858    12A     -2.881857  
      13A     -2.881857    14A     -2.881852    15A     -0.686000  
      16A     -0.139337    17A     -0.139337    18A     -0.139337  

    Virtual:                                                              

      19A      0.143118    20A      0.176331    21A      0.176331  
      22A      0.207290    23A      0.256648    24A      0.256648  
      25A      0.257348    26A      0.314396    27A      0.401665  
      28A      0.422366    29A      0.422366    30A      0.425429  
      31A      0.435164    32A      0.435164    33A      0.436994  
      34A      0.436994    35A      0.481175    36A      0.491886  
      37A      0.491886    38A      0.523986    39A      0.523986  
      40A      0.602148    41A      0.743605    42A      0.743605  
      43A      0.765914    44A      0.935717    45A      1.034046  
      46A      1.034046    47A      1.037876    48A      1.037876  
      49A      1.071137    50A      1.103720    51A      1.103720  
      52A      1.117800    53A      1.148718    54A      1.166969  
      55A      1.166969    56A      1.170611    57A      1.170611  
      58A      1.177255    59A      1.177255    60A      1.184894  
      61A      1.205254    62A      1.205254    63A      1.208861  
      64A      1.208861    65A      1.210048    66A      1.210048  
      67A      1.225970    68A      1.225970    69A      1.240672  
      70A      1.262311    71A      1.262311    72A      1.384109  
      73A      2.410122    74A      2.410122    75A      2.433573  
      76A      2.566540    77A      2.566540    78A      2.574836  
      79A      2.574836    80A      2.581478    81A      2.585764  
      82A      2.585764    83A      2.585840    84A      2.585840  
      85A      2.590711    86A      2.590711    87A      2.640579  
      88A      2.958723    89A      2.972307    90A      2.972307  
      91A      3.005384    92A      3.234735    93A      3.234735  
      94A      3.236725    95A      3.236725    96A      3.242976  
      97A      3.242976    98A      3.270049    99A      3.402491  
     100A      3.402491   101A      3.414652   102A      3.414652  
     103A      3.466213   104A      3.803956   105A      9.268037  
     106A     13.561650   107A     13.561650   108A     13.581116  
     109A     26.246943   110A     26.246943   111A     26.255874  
     112A     26.255874   113A     26.296797   114A     45.281294  
     115A    138.507851   116A    138.507851   117A    138.535463  
     118A    707.917238  

    Final Occupation by Irrep:
              A 
    DOCC [    18 ]
    NA   [    18 ]
    NB   [    18 ]

  @DF-RHF Final Energy: -2572.53366807878501

   => Energetics <=

    Nuclear Repulsion Energy =              0.0000000000000000
    One-Electron Energy =               -3593.6828232491752715
    Two-Electron Energy =                1021.1491551703902587
    Total Energy =                      -2572.5336680787850128

Computation Completed


Properties will be evaluated at   0.000000,   0.000000,   0.000000 [a0]

Properties computed using the SCF density matrix


 Multipole Moments:

 ------------------------------------------------------------------------------------
     Multipole            Electronic (a.u.)      Nuclear  (a.u.)        Total (a.u.)
 ------------------------------------------------------------------------------------

 L = 1.  Multiply by 2.5417464519 to convert [e a0] to [Debye]
 Dipole X            :       -320.0139329          311.1245093           -8.8894236
 Dipole Y            :         -0.0000000            0.0000000           -0.0000000
 Dipole Z            :         -0.0000000            0.0000000           -0.0000000
 Magnitude           :                                                    8.8894236

 ------------------------------------------------------------------------------------

*** tstop() called on moses-razer at Wed Jan  3 23:34:59 2024
Module time:
	user time   =       7.21 seconds =       0.12 minutes
	system time =       0.83 seconds =       0.01 minutes
	total time  =          4 seconds =       0.07 minutes
Total time:
	user time   =      23.37 seconds =       0.39 minutes
	system time =       2.60 seconds =       0.04 minutes
	total time  =         12 seconds =       0.20 minutes
  Constructing Basis Sets for SAPT...

   => Loading Basis Set <=

    Name: (AUG-CC-PVTZ AUX)
    Role: RIFIT
    Keyword: DF_BASIS_SAPT
    atoms 1-2 entry BR         line  1248 file /home/kchung25/anaconda3/envs/p415env/share/psi4/basis/aug-cc-pvtz-ri.gbs 

   => Loading Basis Set <=

    Name: (AUG-CC-PVTZ AUX)
    Role: JKFIT
    Keyword: DF_BASIS_ELST
    atoms 1-2 entry BR         line  1492 file /home/kchung25/anaconda3/envs/p415env/share/psi4/basis/aug-cc-pvtz-jkfit.gbs 


  //>>>>>>>>>>>>>>>>>>>>>>>>>>>>>>>>>>>//
  //               SAPT2+              //
  //<<<<<<<<<<<<<<<<<<<<<<<<<<<<<<<<<<<//


*** tstart() called on moses-razer
*** at Wed Jan  3 23:34:59 2024

        SAPT2+  
    Ed Hohenstein
     6 June 2009

      Orbital Information
  --------------------------
    NSO        =       118
    NMO        =       118
    NRI        =       382
    NOCC A     =        18
    NOCC B     =        18
    FOCC A     =         0
    FOCC B     =         0
    NVIR A     =       100
    NVIR B     =       100

    Estimated memory usage: 108.3 MB

    Natural Orbital Cutoff:   1.000E-06
    Disp(T3) Truncation:            Yes
    CCD (vv|vv) Truncation:         Yes
    MBPT T2 Truncation:             Yes

    Monomer A: 56 virtual orbitals dropped
    Monomer B: 56 virtual orbitals dropped

    Elst10,r            =     0.110485294583 [Eh]
    Exch10 (S^2)        =     0.000670158165 [Eh]
    Exch10              =     0.000668997371 [Eh]
    Ind20,r (A<-B)      =    -0.004207496151 [Eh]
    Ind20,r (B<-A)      =    -0.004207496151 [Eh]
    Ind20,r             =    -0.008414992302 [Eh]
    Exch-Ind20,r (A<-B) =     0.001116911248 [Eh]
    Exch-Ind20,r (B<-A) =     0.001116911248 [Eh]
    Exch-Ind20,r        =     0.002233822495 [Eh]
    Disp20              =    -0.001756310543 [Eh]
    Disp20 (NO)         =    -0.001550287258 [Eh]
    Exch-Disp20         =     0.000330147501 [Eh]
    Elst12,r            =    -0.000226043759 [Eh]
    Exch11              =     0.000135390290 [Eh]
    Exch12              =     0.000068448582 [Eh]
    Ind22               =    -0.000941637485 [Eh]
    Disp21              =     0.000259000384 [Eh]
    Disp22 (SDQ)        =    -0.000006893779 [Eh]

    (i =   1 of  18)          0 seconds
    (i =   2 of  18)          1 seconds
    (i =   3 of  18)          1 seconds
    (i =   4 of  18)          1 seconds
    (i =   5 of  18)          1 seconds
    (i =   6 of  18)          2 seconds
    (i =   7 of  18)          2 seconds
    (i =   8 of  18)          2 seconds
    (i =   9 of  18)          2 seconds
    (i =  10 of  18)          3 seconds
    (i =  11 of  18)          3 seconds
    (i =  12 of  18)          3 seconds
    (i =  13 of  18)          3 seconds
    (i =  14 of  18)          4 seconds
    (i =  15 of  18)          4 seconds
    (i =  16 of  18)          4 seconds
    (i =  17 of  18)          4 seconds
    (i =  18 of  18)          5 seconds

    Disp220 (T)         =    -0.000156609026 [Eh]

    (i =   1 of  18)          0 seconds
    (i =   2 of  18)          0 seconds
    (i =   3 of  18)          0 seconds
    (i =   4 of  18)          1 seconds
    (i =   5 of  18)          1 seconds
    (i =   6 of  18)          1 seconds
    (i =   7 of  18)          1 seconds
    (i =   8 of  18)          2 seconds
    (i =   9 of  18)          2 seconds
    (i =  10 of  18)          2 seconds
    (i =  11 of  18)          2 seconds
    (i =  12 of  18)          2 seconds
    (i =  13 of  18)          3 seconds
    (i =  14 of  18)          3 seconds
    (i =  15 of  18)          3 seconds
    (i =  16 of  18)          3 seconds
    (i =  17 of  18)          4 seconds
    (i =  18 of  18)          4 seconds

    Disp202 (T)         =    -0.000156609026 [Eh]

    Disp22 (T)          =    -0.000313218053 [Eh]

    Est. Disp220 (T)    =    -0.000177421367 [Eh]
    Est. Disp202 (T)    =    -0.000177421367 [Eh]

    Est. Disp22 (T)     =    -0.000354842733 [Eh]

    SAPT Results 
  --------------------------------------------------------------------------------------------------------
    Electrostatics                110.25925082 [mEh]      69.18872446 [kcal/mol]     289.48562316 [kJ/mol]
      Elst10,r                    110.48529458 [mEh]      69.33056906 [kcal/mol]     290.07910096 [kJ/mol]
      Elst12,r                     -0.22604376 [mEh]      -0.14184460 [kcal/mol]      -0.59347781 [kJ/mol]

    Exchange                        0.87283624 [mEh]       0.54771301 [kcal/mol]       2.29163124 [kJ/mol]
      Exch10                        0.66899737 [mEh]       0.41980219 [kcal/mol]       1.75645235 [kJ/mol]
      Exch10(S^2)                   0.67015817 [mEh]       0.42053060 [kcal/mol]       1.75950002 [kJ/mol]
      Exch11(S^2)                   0.13539029 [mEh]       0.08495869 [kcal/mol]       0.35546716 [kJ/mol]
      Exch12(S^2)                   0.06844858 [mEh]       0.04295213 [kcal/mol]       0.17971173 [kJ/mol]

    Induction                      -5.16011197 [mEh]      -3.23801914 [kcal/mol]     -13.54787210 [kJ/mol]
      Ind20,r                      -8.41499230 [mEh]      -5.28048739 [kcal/mol]     -22.09355924 [kJ/mol]
      Ind22                        -0.94163748 [mEh]      -0.59088644 [kcal/mol]      -2.47226888 [kJ/mol]
      Exch-Ind20,r                  2.23382250 [mEh]       1.40174478 [kcal/mol]       5.86490015 [kJ/mol]
      Exch-Ind22                    0.24996470 [mEh]       0.15685522 [kcal/mol]       0.65628222 [kJ/mol]
      delta HF,r (2)                1.71273063 [mEh]       1.07475470 [kcal/mol]       4.49677365 [kJ/mol]

    Dispersion                     -1.52889917 [mEh]      -0.95939871 [kcal/mol]      -4.01412422 [kJ/mol]
      Disp20                       -1.75631054 [mEh]      -1.10210150 [kcal/mol]      -4.61119269 [kJ/mol]
      Disp21                        0.25900038 [mEh]       0.16252519 [kcal/mol]       0.68000542 [kJ/mol]
      Disp22 (SDQ)                 -0.00689378 [mEh]      -0.00432591 [kcal/mol]      -0.01809961 [kJ/mol]
      Disp22 (T)                   -0.31321805 [mEh]      -0.19654730 [kcal/mol]      -0.82235388 [kJ/mol]
      Est. Disp22 (T)              -0.35484273 [mEh]      -0.22266718 [kcal/mol]      -0.93163947 [kJ/mol]
      Exch-Disp20                   0.33014750 [mEh]       0.20717068 [kcal/mol]       0.86680214 [kJ/mol]

  Total HF                        106.68585278 [mEh]      66.94638334 [kcal/mol]     280.10366788 [kJ/mol]
  Total SAPT0                     105.25968973 [mEh]      66.05145252 [kcal/mol]     276.35927732 [kJ/mol]
  Total SAPT2                     104.54581206 [mEh]      65.60348751 [kcal/mol]     274.48499175 [kJ/mol]
  Total SAPT2+                    104.44307593 [mEh]      65.53901962 [kcal/mol]     274.21525808 [kJ/mol]

  Special recipe for scaled SAPT0 (see Manual):
    Electrostatics sSAPT0         110.48529458 [mEh]      69.33056906 [kcal/mol]     290.07910096 [kJ/mol]
    Exchange sSAPT0                 0.66899737 [mEh]       0.41980219 [kcal/mol]       1.75645235 [kJ/mol]
    Induction sSAPT0               -4.48002683 [mEh]      -2.81125928 [kcal/mol]     -11.76230882 [kJ/mol]
    Dispersion sSAPT0              -1.42787564 [mEh]      -0.89600549 [kcal/mol]      -3.74888697 [kJ/mol]
  Total sSAPT0                    105.24638949 [mEh]      66.04310648 [kcal/mol]     276.32435752 [kJ/mol]
  --------------------------------------------------------------------------------------------------------

*** tstop() called on moses-razer at Wed Jan  3 23:35:22 2024
Module time:
	user time   =      91.59 seconds =       1.53 minutes
	system time =       1.56 seconds =       0.03 minutes
	total time  =         23 seconds =       0.38 minutes
Total time:
	user time   =     115.10 seconds =       1.92 minutes
	system time =       4.17 seconds =       0.07 minutes
	total time  =         35 seconds =       0.58 minutes

    Psi4 stopped on: Wednesday, 03 January 2024 11:35PM
    Psi4 wall time for execution: 0:00:34.90

*** Psi4 exiting successfully. Buy a developer a beer!
