
    -----------------------------------------------------------------------
          Psi4: An Open-Source Ab Initio Electronic Structure Package
                               Psi4 1.9 release

                         Git: Rev {} zzzzzzz 


    D. G. A. Smith, L. A. Burns, A. C. Simmonett, R. M. Parrish,
    M. C. Schieber, R. Galvelis, P. Kraus, H. Kruse, R. Di Remigio,
    A. Alenaizan, A. M. James, S. Lehtola, J. P. Misiewicz, M. Scheurer,
    R. A. Shaw, J. B. Schriber, Y. Xie, Z. L. Glick, D. A. Sirianni,
    J. S. O'Brien, J. M. Waldrop, A. Kumar, E. G. Hohenstein,
    B. P. Pritchard, B. R. Brooks, H. F. Schaefer III, A. Yu. Sokolov,
    K. Patkowski, A. E. DePrince III, U. Bozkaya, R. A. King,
    F. A. Evangelista, J. M. Turney, T. D. Crawford, C. D. Sherrill,
    J. Chem. Phys. 152(18) 184108 (2020). https://doi.org/10.1063/5.0006002

                            Additional Code Authors
    E. T. Seidl, C. L. Janssen, E. F. Valeev, M. L. Leininger,
    J. F. Gonthier, R. M. Richard, H. R. McAlexander, M. Saitow, X. Wang,
    P. Verma, M. H. Lechner, A. Jiang, S. Behnle, A. G. Heide,
    M. F. Herbst, and D. L. Poole

             Previous Authors, Complete List of Code Contributors,
                       and Citations for Specific Modules
    https://github.com/psi4/psi4/blob/master/codemeta.json
    https://github.com/psi4/psi4/graphs/contributors
    http://psicode.org/psi4manual/master/introduction.html#citing-psifour

    -----------------------------------------------------------------------


    Psi4 started on: Thursday, 04 January 2024 04:43PM

    Process ID: 490843
    Host:       moses-razer
    PSIDATADIR: /home/kchung25/anaconda3/envs/psi4_19/share/psi4
    Memory:     500.0 MiB
    Threads:    6
    
  ==> Input File <==

--------------------------------------------------------------------------
MEMORY 60 GB

molecule dimer {
0 1
O      0.000000     0.000000     0.000000
H      0.588538     0.756918     0.000000
H      0.588538    -0.756918     0.000000
--
1 1
Na     2.904000     0.000000     0.000000

units ang
no_reorient
no_com
symmetry c1
}

set {
basis        aug-cc-pVTZ
scf_type     df
}

energy("sapt2+")
--------------------------------------------------------------------------

  Memory set to  55.879 GiB by Python driver.

Scratch directory: /scratch/
   => Loading Basis Set <=

    Name: AUG-CC-PVTZ
    Role: ORBITAL
    Keyword: BASIS
    atoms 1   entry O          line   331 file /home/kchung25/anaconda3/envs/p415env/share/psi4/basis/aug-cc-pvtz.gbs 
    atoms 2-3 entry H          line    40 file /home/kchung25/anaconda3/envs/p415env/share/psi4/basis/aug-cc-pvtz.gbs 
    atoms 4   entry NA         line   469 file /home/kchung25/anaconda3/envs/p415env/share/psi4/basis/aug-cc-pvtz.gbs 

   => Loading Basis Set <=

    Name: AUG-CC-PVTZ
    Role: ORBITAL
    Keyword: BASIS
    atoms 1   entry O          line   331 file /home/kchung25/anaconda3/envs/p415env/share/psi4/basis/aug-cc-pvtz.gbs 
    atoms 2-3 entry H          line    40 file /home/kchung25/anaconda3/envs/p415env/share/psi4/basis/aug-cc-pvtz.gbs 
    atoms 4   entry NA         line   469 file /home/kchung25/anaconda3/envs/p415env/share/psi4/basis/aug-cc-pvtz.gbs 


  //>>>>>>>>>>>>>>>>>>>>>>>>>>>>>>>>>>>//
  //              Dimer HF             //
  //<<<<<<<<<<<<<<<<<<<<<<<<<<<<<<<<<<<//

   => Libint2 <=

    Primary   basis highest AM E, G, H:  5, 4, 3
    Auxiliary basis highest AM E, G, H:  6, 5, 4
    Onebody   basis highest AM E, G, H:  6, 5, 4
    Solid Harmonics ordering:            gaussian

*** tstart() called on moses-razer
*** at Thu Jan  4 16:43:16 2024

   => Loading Basis Set <=

    Name: AUG-CC-PVTZ
    Role: ORBITAL
    Keyword: BASIS
    atoms 1   entry O          line   331 file /home/kchung25/anaconda3/envs/p415env/share/psi4/basis/aug-cc-pvtz.gbs 
    atoms 2-3 entry H          line    40 file /home/kchung25/anaconda3/envs/p415env/share/psi4/basis/aug-cc-pvtz.gbs 
    atoms 4   entry NA         line   469 file /home/kchung25/anaconda3/envs/p415env/share/psi4/basis/aug-cc-pvtz.gbs 


         ---------------------------------------------------------
                                   SCF
               by Justin Turney, Rob Parrish, Andy Simmonett
                          and Daniel G. A. Smith
                              RHF Reference
                        6 Threads,  57220 MiB Core
         ---------------------------------------------------------

  ==> Geometry <==

    Molecular point group: c1
    Full point group: C2v

    Geometry (in Angstrom), charge = 1, multiplicity = 1:

       Center              X                  Y                   Z               Mass       
    ------------   -----------------  -----------------  -----------------  -----------------
         O            0.000000000000     0.000000000000     0.000000000000    15.994914619570
         H            0.588538000000     0.756918000000     0.000000000000     1.007825032230
         H            0.588538000000    -0.756918000000     0.000000000000     1.007825032230
         NA           2.904000000000     0.000000000000     0.000000000000    22.989769282000

  Running in c1 symmetry.

  Rotational constants: A =     14.59768  B =      0.08664  C =      0.08613 [cm^-1]
  Rotational constants: A = 437627.28990  B =   2597.33657  C =   2582.01221 [MHz]
  Nuclear repulsion =   29.994897659489119

  Charge       = 1
  Multiplicity = 1
  Electrons    = 20
  Nalpha       = 10
  Nbeta        = 10

  ==> Algorithm <==

  SCF Algorithm Type is DF.
  DIIS enabled.
  MOM disabled.
  Fractional occupation disabled.
  Guess Type is SAD.
  Energy threshold   = 1.00e-08
  Density threshold  = 1.00e-08
  Integral threshold = 1.00e-12

  ==> Primary Basis <==

  Basis Set: AUG-CC-PVTZ
    Blend: AUG-CC-PVTZ
    Number of shells: 48
    Number of basis functions: 142
    Number of Cartesian functions: 164
    Spherical Harmonics?: true
    Max angular momentum: 3

   => Loading Basis Set <=

    Name: (AUG-CC-PVTZ AUX)
    Role: JKFIT
    Keyword: DF_BASIS_SCF
    atoms 1   entry O          line   286 file /home/kchung25/anaconda3/envs/p415env/share/psi4/basis/aug-cc-pvtz-jkfit.gbs 
    atoms 2-3 entry H          line    70 file /home/kchung25/anaconda3/envs/p415env/share/psi4/basis/aug-cc-pvtz-jkfit.gbs 
    atoms 4   entry NA         line   498 file /home/kchung25/anaconda3/envs/p415env/share/psi4/basis/def2-universal-jkfit.gbs 

  ==> Integral Setup <==

  ==> DiskDFJK: Density-Fitted J/K Matrices <==

    J tasked:                  Yes
    K tasked:                  Yes
    wK tasked:                  No
    OpenMP threads:              6
    Integrals threads:           6
    Memory [MiB]:            42915
    Algorithm:                Core
    Integral Cache:           SAVE
    Schwarz Cutoff:          1E-12
    Fitting Condition:       1E-10

   => Auxiliary Basis Set <=

  Basis Set: (AUG-CC-PVTZ AUX)
    Blend: AUG-CC-PVTZ-JKFIT + DEF2-UNIVERSAL-JKFIT
    Number of shells: 92
    Number of basis functions: 308
    Number of Cartesian functions: 378
    Spherical Harmonics?: true
    Max angular momentum: 4

  Minimum eigenvalue in the overlap matrix is 1.2041070494E-04.
  Reciprocal condition number of the overlap matrix is 1.3543643269E-05.
    Using symmetric orthogonalization.

  ==> Pre-Iterations <==

  SCF Guess: Superposition of Atomic Densities via on-the-fly atomic UHF (no occupation information).

   -------------------------
    Irrep   Nso     Nmo    
   -------------------------
     A        142     142 
   -------------------------
    Total     142     142
   -------------------------

  ==> Iterations <==

                           Total Energy        Delta E     RMS |[F,P]|

   @DF-RHF iter SAD:  -237.28188545141296   -2.37282e+02   0.00000e+00 
   @DF-RHF iter   1:  -237.63441988171098   -3.52534e-01   3.18928e-03 ADIIS/DIIS
   @DF-RHF iter   2:  -237.68557586124228   -5.11560e-02   2.22839e-03 ADIIS/DIIS
   @DF-RHF iter   3:  -237.71688604077465   -3.13102e-02   1.65225e-04 ADIIS/DIIS
   @DF-RHF iter   4:  -237.71736143374994   -4.75393e-04   4.11951e-05 DIIS
   @DF-RHF iter   5:  -237.71739552190411   -3.40882e-05   1.06409e-05 DIIS
   @DF-RHF iter   6:  -237.71739913108598   -3.60918e-06   2.41627e-06 DIIS
   @DF-RHF iter   7:  -237.71739933316755   -2.02082e-07   4.50692e-07 DIIS
   @DF-RHF iter   8:  -237.71739933935277   -6.18522e-09   7.96017e-08 DIIS
   @DF-RHF iter   9:  -237.71739933952546   -1.72690e-10   2.31086e-08 DIIS
   @DF-RHF iter  10:  -237.71739933953705   -1.15961e-11   3.10204e-09 DIIS
  Energy and wave function converged.


  ==> Post-Iterations <==

    Orbital Energies [Eh]
    ---------------------

    Doubly Occupied:                                                      

       1A    -40.773462     2A    -20.767747     3A     -3.086122  
       4A     -1.809750     5A     -1.809370     6A     -1.808901  
       7A     -1.551213     8A     -0.911738     9A     -0.776960  
      10A     -0.704016  

    Virtual:                                                              

      11A     -0.185617    12A     -0.117989    13A     -0.112228  
      14A     -0.104289    15A     -0.070869    16A     -0.054436  
      17A     -0.054052    18A     -0.053609    19A     -0.050977  
      20A     -0.050202    21A     -0.047344    22A     -0.046599  
      23A     -0.041675    24A     -0.021216    25A     -0.008665  
      26A     -0.003754    27A     -0.002152    28A      0.002223  
      29A      0.018674    30A      0.038469    31A      0.047748  
      32A      0.051389    33A      0.054952    34A      0.060970  
      35A      0.078304    36A      0.090457    37A      0.093624  
      38A      0.098627    39A      0.099445    40A      0.117125  
      41A      0.117262    42A      0.135402    43A      0.139378  
      44A      0.141890    45A      0.150078    46A      0.153787  
      47A      0.166914    48A      0.199327    49A      0.213247  
      50A      0.224451    51A      0.258866    52A      0.263209  
      53A      0.302315    54A      0.314698    55A      0.361337  
      56A      0.363259    57A      0.363493    58A      0.384612  
      59A      0.396080    60A      0.414496    61A      0.414664  
      62A      0.467658    63A      0.484028    64A      0.485835  
      65A      0.488907    66A      0.496749    67A      0.513926  
      68A      0.539545    69A      0.611940    70A      0.621028  
      71A      0.643441    72A      0.666096    73A      0.731588  
      74A      0.787195    75A      0.821745    76A      0.829156  
      77A      0.853896    78A      0.877421    79A      0.893462  
      80A      0.910952    81A      0.964285    82A      0.978475  
      83A      1.052111    84A      1.060198    85A      1.073635  
      86A      1.153761    87A      1.179078    88A      1.211719  
      89A      1.380763    90A      1.414400    91A      1.500382  
      92A      1.650880    93A      1.686476    94A      1.822099  
      95A      1.907738    96A      2.137603    97A      2.147771  
      98A      2.193580    99A      2.212238   100A      2.362988  
     101A      2.379175   102A      2.388317   103A      2.416855  
     104A      2.539161   105A      2.596643   106A      2.665290  
     107A      2.726853   108A      2.762205   109A      3.547162  
     110A      3.599560   111A      3.849112   112A      3.960683  
     113A      4.077648   114A      4.101168   115A      4.113770  
     116A      4.196301   117A      4.220677   118A      4.232296  
     119A      4.331210   120A      4.597705   121A      4.666797  
     122A      4.970039   123A      4.971680   124A      5.090511  
     125A      5.201238   126A      5.337959   127A      5.527379  
     128A      6.027794   129A      6.361784   130A      6.602565  
     131A      6.754218   132A      6.972124   133A      7.100821  
     134A      7.144342   135A      7.181673   136A      7.182041  
     137A      7.212005   138A      7.395020   139A      7.743191  
     140A      7.775801   141A      8.643856   142A     15.787629  

    Final Occupation by Irrep:
              A 
    DOCC [    10 ]
    NA   [    10 ]
    NB   [    10 ]

  @DF-RHF Final Energy:  -237.71739933953705

   => Energetics <=

    Nuclear Repulsion Energy =             29.9948976594891192
    One-Electron Energy =                -387.4260375470407780
    Two-Electron Energy =                 119.7137405480145986
    Total Energy =                       -237.7173993395370530

Computation Completed


Properties will be evaluated at   0.000000,   0.000000,   0.000000 [a0]

Properties computed using the SCF density matrix


 Multipole Moments:

 ------------------------------------------------------------------------------------
     Multipole            Electronic (a.u.)      Nuclear  (a.u.)        Total (a.u.)
 ------------------------------------------------------------------------------------

 L = 1.  Multiply by 2.5417464519 to convert [e a0] to [Debye]
 Dipole X            :        -56.6158504           62.5897626            5.9739123
 Dipole Y            :          0.0000000            0.0000000            0.0000000
 Dipole Z            :          0.0000000            0.0000000            0.0000000
 Magnitude           :                                                    5.9739123

 ------------------------------------------------------------------------------------

*** tstop() called on moses-razer at Thu Jan  4 16:43:17 2024
Module time:
	user time   =       5.47 seconds =       0.09 minutes
	system time =       0.57 seconds =       0.01 minutes
	total time  =          1 seconds =       0.02 minutes
Total time:
	user time   =       5.47 seconds =       0.09 minutes
	system time =       0.57 seconds =       0.01 minutes
	total time  =          1 seconds =       0.02 minutes

  //>>>>>>>>>>>>>>>>>>>>>>>>>>>>>>>>>>>//
  //            Monomer A HF           //
  //<<<<<<<<<<<<<<<<<<<<<<<<<<<<<<<<<<<//

   => Libint2 <=

    Primary   basis highest AM E, G, H:  5, 4, 3
    Auxiliary basis highest AM E, G, H:  6, 5, 4
    Onebody   basis highest AM E, G, H:  6, 5, 4
    Solid Harmonics ordering:            gaussian

*** tstart() called on moses-razer
*** at Thu Jan  4 16:43:17 2024

   => Loading Basis Set <=

    Name: AUG-CC-PVTZ
    Role: ORBITAL
    Keyword: BASIS
    atoms 1   entry O          line   331 file /home/kchung25/anaconda3/envs/p415env/share/psi4/basis/aug-cc-pvtz.gbs 
    atoms 2-3 entry H          line    40 file /home/kchung25/anaconda3/envs/p415env/share/psi4/basis/aug-cc-pvtz.gbs 
    atoms 4   entry NA         line   469 file /home/kchung25/anaconda3/envs/p415env/share/psi4/basis/aug-cc-pvtz.gbs 


         ---------------------------------------------------------
                                   SCF
               by Justin Turney, Rob Parrish, Andy Simmonett
                          and Daniel G. A. Smith
                              RHF Reference
                        6 Threads,  57220 MiB Core
         ---------------------------------------------------------

  ==> Geometry <==

    Molecular point group: c1
    Full point group: C2v

    Geometry (in Angstrom), charge = 0, multiplicity = 1:

       Center              X                  Y                   Z               Mass       
    ------------   -----------------  -----------------  -----------------  -----------------
         O            0.000000000000     0.000000000000     0.000000000000    15.994914619570
         H            0.588538000000     0.756918000000     0.000000000000     1.007825032230
         H            0.588538000000    -0.756918000000     0.000000000000     1.007825032230
      Gh(NA)          2.904000000000     0.000000000000     0.000000000000    22.989769282000

  Running in c1 symmetry.

  Rotational constants: A =     14.59768  B =      0.08664  C =      0.08613 [cm^-1]
  Rotational constants: A = 437627.28990  B =   2597.33657  C =   2582.01221 [MHz]
  Nuclear repulsion =    9.180197847927069

  Charge       = 0
  Multiplicity = 1
  Electrons    = 10
  Nalpha       = 5
  Nbeta        = 5

  ==> Algorithm <==

  SCF Algorithm Type is DF.
  DIIS enabled.
  MOM disabled.
  Fractional occupation disabled.
  Guess Type is SAD.
  Energy threshold   = 1.00e-08
  Density threshold  = 1.00e-08
  Integral threshold = 1.00e-12

  ==> Primary Basis <==

  Basis Set: AUG-CC-PVTZ
    Blend: AUG-CC-PVTZ
    Number of shells: 48
    Number of basis functions: 142
    Number of Cartesian functions: 164
    Spherical Harmonics?: true
    Max angular momentum: 3

   => Loading Basis Set <=

    Name: (AUG-CC-PVTZ AUX)
    Role: JKFIT
    Keyword: DF_BASIS_SCF
    atoms 1   entry O          line   286 file /home/kchung25/anaconda3/envs/p415env/share/psi4/basis/aug-cc-pvtz-jkfit.gbs 
    atoms 2-3 entry H          line    70 file /home/kchung25/anaconda3/envs/p415env/share/psi4/basis/aug-cc-pvtz-jkfit.gbs 
    atoms 4   entry NA         line   498 file /home/kchung25/anaconda3/envs/p415env/share/psi4/basis/def2-universal-jkfit.gbs 

  ==> Integral Setup <==

  ==> DiskDFJK: Density-Fitted J/K Matrices <==

    J tasked:                  Yes
    K tasked:                  Yes
    wK tasked:                  No
    OpenMP threads:              6
    Integrals threads:           6
    Memory [MiB]:            42915
    Algorithm:                Core
    Integral Cache:           LOAD
    Schwarz Cutoff:          1E-12
    Fitting Condition:       1E-10

   => Auxiliary Basis Set <=

  Basis Set: (AUG-CC-PVTZ AUX)
    Blend: AUG-CC-PVTZ-JKFIT + DEF2-UNIVERSAL-JKFIT
    Number of shells: 92
    Number of basis functions: 308
    Number of Cartesian functions: 378
    Spherical Harmonics?: true
    Max angular momentum: 4

  Minimum eigenvalue in the overlap matrix is 1.2041070494E-04.
  Reciprocal condition number of the overlap matrix is 1.3543643269E-05.
    Using symmetric orthogonalization.

  ==> Pre-Iterations <==

  SCF Guess: Superposition of Atomic Densities via on-the-fly atomic UHF (no occupation information).

   -------------------------
    Irrep   Nso     Nmo    
   -------------------------
     A        142     142 
   -------------------------
    Total     142     142
   -------------------------

  ==> Iterations <==

                           Total Energy        Delta E     RMS |[F,P]|

   @DF-RHF iter SAD:   -75.47651205885381   -7.54765e+01   0.00000e+00 
   @DF-RHF iter   1:   -75.97616190939760   -4.99650e-01   3.29985e-03 ADIIS/DIIS
   @DF-RHF iter   2:   -76.02869119152750   -5.25293e-02   2.24804e-03 ADIIS/DIIS
   @DF-RHF iter   3:   -76.06009128283402   -3.14001e-02   1.54028e-04 ADIIS/DIIS
   @DF-RHF iter   4:   -76.06048305739068   -3.91775e-04   3.63446e-05 DIIS
   @DF-RHF iter   5:   -76.06050715840107   -2.41010e-05   8.28389e-06 DIIS
   @DF-RHF iter   6:   -76.06050913614240   -1.97774e-06   1.81277e-06 DIIS
   @DF-RHF iter   7:   -76.06050924040291   -1.04261e-07   3.27267e-07 DIIS
   @DF-RHF iter   8:   -76.06050924338219   -2.97928e-09   5.43154e-08 DIIS
   @DF-RHF iter   9:   -76.06050924344693   -6.47447e-11   1.34136e-08 DIIS
   @DF-RHF iter  10:   -76.06050924345098   -4.05009e-12   1.95874e-09 DIIS
  Energy and wave function converged.


  ==> Post-Iterations <==

    Orbital Energies [Eh]
    ---------------------

    Doubly Occupied:                                                      

       1A    -20.567572     2A     -1.352963     3A     -0.716495  
       4A     -0.585118     5A     -0.510298  

    Virtual:                                                              

       6A      0.005906     7A      0.016137     8A      0.017235  
       9A      0.019650    10A      0.036214    11A      0.053435  
      12A      0.056780    13A      0.058371    14A      0.066753  
      15A      0.068422    16A      0.068464    17A      0.072002  
      18A      0.074477    19A      0.092653    20A      0.093525  
      21A      0.138343    22A      0.146111    23A      0.148697  
      24A      0.158195    25A      0.206813    26A      0.208355  
      27A      0.221146    28A      0.237952    29A      0.238084  
      30A      0.242838    31A      0.245490    32A      0.251858  
      33A      0.263121    34A      0.268063    35A      0.268474  
      36A      0.269965    37A      0.293275    38A      0.303074  
      39A      0.325693    40A      0.334897    41A      0.335718  
      42A      0.364903    43A      0.370432    44A      0.383956  
      45A      0.396642    46A      0.416151    47A      0.469807  
      48A      0.480177    49A      0.516358    50A      0.542891  
      51A      0.552162    52A      0.662520    53A      0.669261  
      54A      0.684323    55A      0.691232    56A      0.698931  
      57A      0.721320    58A      0.724757    59A      0.741513  
      60A      0.750503    61A      0.753498    62A      0.755503  
      63A      0.787777    64A      0.819898    65A      0.833851  
      66A      0.834243    67A      0.872748    68A      0.900165  
      69A      0.946511    70A      0.977228    71A      1.014877  
      72A      1.053552    73A      1.055224    74A      1.093204  
      75A      1.096929    76A      1.124472    77A      1.171972  
      78A      1.172440    79A      1.253680    80A      1.276037  
      81A      1.297661    82A      1.342458    83A      1.443941  
      84A      1.508389    85A      1.569812    86A      1.608120  
      87A      1.764458    88A      1.854081    89A      1.871522  
      90A      2.021326    91A      2.287076    92A      2.322888  
      93A      2.373820    94A      2.397681    95A      2.551941  
      96A      2.559118    97A      2.559442    98A      2.602236  
      99A      2.720449   100A      2.779416   101A      2.859154  
     102A      2.914706   103A      2.948736   104A      3.745790  
     105A      3.792076   106A      4.056489   107A      4.156594  
     108A      4.281607   109A      4.297975   110A      4.298662  
     111A      4.394771   112A      4.422647   113A      4.437361  
     114A      4.536628   115A      4.608808   116A      4.803558  
     117A      4.868606   118A      5.167320   119A      5.174354  
     120A      5.290172   121A      5.402838   122A      5.534394  
     123A      5.723619   124A      6.225689   125A      6.315318  
     126A      6.366199   127A      6.552999   128A      6.599338  
     129A      6.799038   130A      6.984579   131A      7.165562  
     132A      7.295921   133A      7.337481   134A      7.375557  
     135A      7.381785   136A      7.407154   137A      7.593973  
     138A      7.939897   139A      7.971431   140A      8.842781  
     141A     15.987014   142A     64.439746  

    Final Occupation by Irrep:
              A 
    DOCC [     5 ]
    NA   [     5 ]
    NB   [     5 ]

  @DF-RHF Final Energy:   -76.06050924345098

   => Energetics <=

    Nuclear Repulsion Energy =              9.1801978479270687
    One-Electron Energy =                -123.0165226512052215
    Two-Electron Energy =                  37.7758155598271728
    Total Energy =                        -76.0605092434509800

Computation Completed


Properties will be evaluated at   0.000000,   0.000000,   0.000000 [a0]

Properties computed using the SCF density matrix


 Multipole Moments:

 ------------------------------------------------------------------------------------
     Multipole            Electronic (a.u.)      Nuclear  (a.u.)        Total (a.u.)
 ------------------------------------------------------------------------------------

 L = 1.  Multiply by 2.5417464519 to convert [e a0] to [Debye]
 Dipole X            :         -1.4422965            2.2243513            0.7820548
 Dipole Y            :          0.0000000            0.0000000            0.0000000
 Dipole Z            :          0.0000000            0.0000000            0.0000000
 Magnitude           :                                                    0.7820548

 ------------------------------------------------------------------------------------

*** tstop() called on moses-razer at Thu Jan  4 16:43:18 2024
Module time:
	user time   =       3.10 seconds =       0.05 minutes
	system time =       0.23 seconds =       0.00 minutes
	total time  =          1 seconds =       0.02 minutes
Total time:
	user time   =       8.60 seconds =       0.14 minutes
	system time =       0.80 seconds =       0.01 minutes
	total time  =          2 seconds =       0.03 minutes

  //>>>>>>>>>>>>>>>>>>>>>>>>>>>>>>>>>>>//
  //            Monomer B HF           //
  //<<<<<<<<<<<<<<<<<<<<<<<<<<<<<<<<<<<//

   => Libint2 <=

    Primary   basis highest AM E, G, H:  5, 4, 3
    Auxiliary basis highest AM E, G, H:  6, 5, 4
    Onebody   basis highest AM E, G, H:  6, 5, 4
    Solid Harmonics ordering:            gaussian

*** tstart() called on moses-razer
*** at Thu Jan  4 16:43:18 2024

   => Loading Basis Set <=

    Name: AUG-CC-PVTZ
    Role: ORBITAL
    Keyword: BASIS
    atoms 1   entry O          line   331 file /home/kchung25/anaconda3/envs/p415env/share/psi4/basis/aug-cc-pvtz.gbs 
    atoms 2-3 entry H          line    40 file /home/kchung25/anaconda3/envs/p415env/share/psi4/basis/aug-cc-pvtz.gbs 
    atoms 4   entry NA         line   469 file /home/kchung25/anaconda3/envs/p415env/share/psi4/basis/aug-cc-pvtz.gbs 


         ---------------------------------------------------------
                                   SCF
               by Justin Turney, Rob Parrish, Andy Simmonett
                          and Daniel G. A. Smith
                              RHF Reference
                        6 Threads,  57220 MiB Core
         ---------------------------------------------------------

  ==> Geometry <==

    Molecular point group: c1
    Full point group: C2v

    Geometry (in Angstrom), charge = 1, multiplicity = 1:

       Center              X                  Y                   Z               Mass       
    ------------   -----------------  -----------------  -----------------  -----------------
      Gh(O)           0.000000000000     0.000000000000     0.000000000000    15.994914619570
      Gh(H)           0.588538000000     0.756918000000     0.000000000000     1.007825032230
      Gh(H)           0.588538000000    -0.756918000000     0.000000000000     1.007825032230
         NA           2.904000000000     0.000000000000     0.000000000000    22.989769282000

  Running in c1 symmetry.

  Rotational constants: A =     14.59768  B =      0.08664  C =      0.08613 [cm^-1]
  Rotational constants: A = 437627.28990  B =   2597.33657  C =   2582.01221 [MHz]
  Nuclear repulsion =    0.000000000000000

  Charge       = 1
  Multiplicity = 1
  Electrons    = 10
  Nalpha       = 5
  Nbeta        = 5

  ==> Algorithm <==

  SCF Algorithm Type is DF.
  DIIS enabled.
  MOM disabled.
  Fractional occupation disabled.
  Guess Type is SAD.
  Energy threshold   = 1.00e-08
  Density threshold  = 1.00e-08
  Integral threshold = 1.00e-12

  ==> Primary Basis <==

  Basis Set: AUG-CC-PVTZ
    Blend: AUG-CC-PVTZ
    Number of shells: 48
    Number of basis functions: 142
    Number of Cartesian functions: 164
    Spherical Harmonics?: true
    Max angular momentum: 3

   => Loading Basis Set <=

    Name: (AUG-CC-PVTZ AUX)
    Role: JKFIT
    Keyword: DF_BASIS_SCF
    atoms 1   entry O          line   286 file /home/kchung25/anaconda3/envs/p415env/share/psi4/basis/aug-cc-pvtz-jkfit.gbs 
    atoms 2-3 entry H          line    70 file /home/kchung25/anaconda3/envs/p415env/share/psi4/basis/aug-cc-pvtz-jkfit.gbs 
    atoms 4   entry NA         line   498 file /home/kchung25/anaconda3/envs/p415env/share/psi4/basis/def2-universal-jkfit.gbs 

  ==> Integral Setup <==

  ==> DiskDFJK: Density-Fitted J/K Matrices <==

    J tasked:                  Yes
    K tasked:                  Yes
    wK tasked:                  No
    OpenMP threads:              6
    Integrals threads:           6
    Memory [MiB]:            42915
    Algorithm:                Core
    Integral Cache:           LOAD
    Schwarz Cutoff:          1E-12
    Fitting Condition:       1E-10

   => Auxiliary Basis Set <=

  Basis Set: (AUG-CC-PVTZ AUX)
    Blend: AUG-CC-PVTZ-JKFIT + DEF2-UNIVERSAL-JKFIT
    Number of shells: 92
    Number of basis functions: 308
    Number of Cartesian functions: 378
    Spherical Harmonics?: true
    Max angular momentum: 4

  Minimum eigenvalue in the overlap matrix is 1.2041070494E-04.
  Reciprocal condition number of the overlap matrix is 1.3543643269E-05.
    Using symmetric orthogonalization.

  ==> Pre-Iterations <==

  SCF Guess: Superposition of Atomic Densities via on-the-fly atomic UHF (no occupation information).

   -------------------------
    Irrep   Nso     Nmo    
   -------------------------
     A        142     142 
   -------------------------
    Total     142     142
   -------------------------

  ==> Iterations <==

                           Total Energy        Delta E     RMS |[F,P]|

   @DF-RHF iter SAD:  -161.74560131264801   -1.61746e+02   0.00000e+00 
   @DF-RHF iter   1:  -161.67602120132611    6.95801e-02   4.09549e-05 DIIS
   @DF-RHF iter   2:  -161.67603903650499   -1.78352e-05   7.93703e-06 DIIS
   @DF-RHF iter   3:  -161.67603948804333   -4.51538e-07   3.03286e-07 DIIS
   @DF-RHF iter   4:  -161.67603948878147   -7.38140e-10   2.43349e-08 DIIS
   @DF-RHF iter   5:  -161.67603948878650   -5.03064e-12   1.64402e-09 DIIS
  Energy and wave function converged.


  ==> Post-Iterations <==

    Orbital Energies [Eh]
    ---------------------

    Doubly Occupied:                                                      

       1A    -40.762946     2A     -3.074959     3A     -1.798223  
       4A     -1.798146     5A     -1.798096  

    Virtual:                                                              

       6A     -0.181836     7A     -0.109445     8A     -0.109439  
       9A     -0.109436    10A     -0.069992    11A     -0.050699  
      12A     -0.050631    13A     -0.050339    14A     -0.050238  
      15A     -0.050232    16A     -0.049037    17A     -0.048992  
      18A     -0.048942    19A     -0.021263    20A     -0.009001  
      21A     -0.000424    22A      0.000112    23A      0.001000  
      24A      0.015485    25A      0.041212    26A      0.042801  
      27A      0.045548    28A      0.058555    29A      0.058687  
      30A      0.066165    31A      0.080627    32A      0.102683  
      33A      0.103745    34A      0.105235    35A      0.109673  
      36A      0.109934    37A      0.133530    38A      0.144134  
      39A      0.146971    40A      0.160516    41A      0.160807  
      42A      0.169289    43A      0.204385    44A      0.226660  
      45A      0.230052    46A      0.265073    47A      0.268010  
      48A      0.272081    49A      0.287239    50A      0.327146  
      51A      0.360488    52A      0.371551    53A      0.373054  
      54A      0.375068    55A      0.442935    56A      0.462762  
      57A      0.488464    58A      0.494093    59A      0.495726  
      60A      0.499370    61A      0.517119    62A      0.541419  
      63A      0.542946    64A      0.602198    65A      0.631554  
      66A      0.710839    67A      0.724072    68A      0.724940  
      69A      0.749058    70A      0.759089    71A      0.776336  
      72A      0.824522    73A      0.876619    74A      0.883446  
      75A      0.897940    76A      0.934310    77A      1.039987  
      78A      1.047753    79A      1.091385    80A      1.112042  
      81A      1.222228    82A      1.233840    83A      1.308410  
      84A      1.331832    85A      1.547786    86A      1.560652  
      87A      1.576089    88A      1.683541    89A      1.719958  
      90A      1.864318    91A      1.989597    92A      2.283424  
      93A      2.328792    94A      2.394975    95A      2.430871  
      96A      2.453389    97A      2.496826    98A      2.538598  
      99A      2.656823   100A      2.814596   101A      3.002411  
     102A      3.007875   103A      3.032434   104A      3.144087  
     105A      3.171950   106A      3.385662   107A      3.509971  
     108A      4.172656   109A      4.259014   110A      4.352689  
     111A      4.408831   112A      4.483466   113A      4.533991  
     114A      4.660960   115A      4.691450   116A      4.696843  
     117A      4.983771   118A      5.338673   119A      5.413377  
     120A      5.462266   121A      5.654785   122A      5.950465  
     123A      6.266412   124A      6.447166   125A      6.892968  
     126A      7.552806   127A      7.675538   128A      7.902355  
     129A      8.100931   130A      8.116485   131A      8.601162  
     132A      8.651474   133A      9.502106   134A      9.684455  
     135A      9.820491   136A     10.078301   137A     11.057130  
     138A     11.460289   139A     11.944804   140A     13.369155  
     141A     13.656028   142A     64.833626  

    Final Occupation by Irrep:
              A 
    DOCC [     5 ]
    NA   [     5 ]
    NB   [     5 ]

  @DF-RHF Final Energy:  -161.67603948878650

   => Energetics <=

    Nuclear Repulsion Energy =              0.0000000000000000
    One-Electron Energy =                -224.8873395450669932
    Two-Electron Energy =                  63.2113000562805070
    Total Energy =                       -161.6760394887865004

Computation Completed


Properties will be evaluated at   0.000000,   0.000000,   0.000000 [a0]

Properties computed using the SCF density matrix


 Multipole Moments:

 ------------------------------------------------------------------------------------
     Multipole            Electronic (a.u.)      Nuclear  (a.u.)        Total (a.u.)
 ------------------------------------------------------------------------------------

 L = 1.  Multiply by 2.5417464519 to convert [e a0] to [Debye]
 Dipole X            :        -54.8783985           60.3654114            5.4870128
 Dipole Y            :         -0.0000000            0.0000000           -0.0000000
 Dipole Z            :         -0.0000000            0.0000000           -0.0000000
 Magnitude           :                                                    5.4870128

 ------------------------------------------------------------------------------------

*** tstop() called on moses-razer at Thu Jan  4 16:43:19 2024
Module time:
	user time   =       3.90 seconds =       0.07 minutes
	system time =       0.54 seconds =       0.01 minutes
	total time  =          1 seconds =       0.02 minutes
Total time:
	user time   =      12.53 seconds =       0.21 minutes
	system time =       1.34 seconds =       0.02 minutes
	total time  =          3 seconds =       0.05 minutes
  Constructing Basis Sets for SAPT...

   => Loading Basis Set <=

    Name: (AUG-CC-PVTZ AUX)
    Role: RIFIT
    Keyword: DF_BASIS_SAPT
    atoms 1   entry O          line   264 file /home/kchung25/anaconda3/envs/p415env/share/psi4/basis/aug-cc-pvtz-ri.gbs 
    atoms 2-3 entry H          line    30 file /home/kchung25/anaconda3/envs/p415env/share/psi4/basis/aug-cc-pvtz-ri.gbs 
    atoms 4   entry NA         line   610 file /home/kchung25/anaconda3/envs/p415env/share/psi4/basis/def2-qzvpp-ri.gbs 

   => Loading Basis Set <=

    Name: (AUG-CC-PVTZ AUX)
    Role: JKFIT
    Keyword: DF_BASIS_ELST
    atoms 1   entry O          line   286 file /home/kchung25/anaconda3/envs/p415env/share/psi4/basis/aug-cc-pvtz-jkfit.gbs 
    atoms 2-3 entry H          line    70 file /home/kchung25/anaconda3/envs/p415env/share/psi4/basis/aug-cc-pvtz-jkfit.gbs 
    atoms 4   entry NA         line   498 file /home/kchung25/anaconda3/envs/p415env/share/psi4/basis/def2-universal-jkfit.gbs 


  //>>>>>>>>>>>>>>>>>>>>>>>>>>>>>>>>>>>//
  //               SAPT2+              //
  //<<<<<<<<<<<<<<<<<<<<<<<<<<<<<<<<<<<//


*** tstart() called on moses-razer
*** at Thu Jan  4 16:43:20 2024

        SAPT2+  
    Ed Hohenstein
     6 June 2009

      Orbital Information
  --------------------------
    NSO        =       142
    NMO        =       142
    NRI        =       364
    NOCC A     =         5
    NOCC B     =         5
    FOCC A     =         0
    FOCC B     =         0
    NVIR A     =       137
    NVIR B     =       137

    Estimated memory usage: 65.9 MB

    Natural Orbital Cutoff:   1.000E-06
    Disp(T3) Truncation:            Yes
    CCD (vv|vv) Truncation:         Yes
    MBPT T2 Truncation:             Yes

    Monomer A: 59 virtual orbitals dropped
    Monomer B: 127 virtual orbitals dropped

    Elst10,r            =     0.023111768762 [Eh]
    Exch10 (S^2)        =     0.001762941369 [Eh]
    Exch10              =     0.001763867428 [Eh]
    Ind20,r (A<-B)      =    -0.007799918276 [Eh]
    Ind20,r (B<-A)      =    -0.000019783723 [Eh]
    Ind20,r             =    -0.007819702000 [Eh]
    Exch-Ind20,r (A<-B) =     0.002048851685 [Eh]
    Exch-Ind20,r (B<-A) =     0.000003244799 [Eh]
    Exch-Ind20,r        =     0.002052096484 [Eh]
    Disp20              =    -0.000227503828 [Eh]
    Disp20 (NO)         =    -0.000185762325 [Eh]
    Exch-Disp20         =     0.000017875961 [Eh]
    Elst12,r            =    -0.001791209670 [Eh]
    Exch11              =    -0.000020186851 [Eh]
    Exch12              =     0.000470003209 [Eh]
    Ind22               =    -0.001325788317 [Eh]
    Disp21              =    -0.000019091233 [Eh]
    Disp22 (SDQ)        =    -0.000017175707 [Eh]

    (i =   1 of   5)          0 seconds
    (i =   2 of   5)          0 seconds
    (i =   3 of   5)          0 seconds
    (i =   4 of   5)          0 seconds
    (i =   5 of   5)          0 seconds

    Disp220 (T)         =    -0.000014640338 [Eh]

    (i =   1 of   5)          0 seconds
    (i =   2 of   5)          0 seconds
    (i =   3 of   5)          0 seconds
    (i =   4 of   5)          0 seconds
    (i =   5 of   5)          0 seconds

    Disp202 (T)         =    -0.000004665057 [Eh]

    Disp22 (T)          =    -0.000019305395 [Eh]

    Est. Disp220 (T)    =    -0.000017930077 [Eh]
    Est. Disp202 (T)    =    -0.000005713313 [Eh]

    Est. Disp22 (T)     =    -0.000023643391 [Eh]

    SAPT Results 
  --------------------------------------------------------------------------------------------------------
    Electrostatics                 21.32055909 [mEh]      13.37885282 [kcal/mol]      55.97712019 [kJ/mol]
      Elst10,r                     23.11176876 [mEh]      14.50285385 [kcal/mol]      60.67994053 [kJ/mol]
      Elst12,r                     -1.79120967 [mEh]      -1.12400104 [kcal/mol]      -4.70282034 [kJ/mol]

    Exchange                        2.21368379 [mEh]       1.38910755 [kcal/mol]       5.81202598 [kJ/mol]
      Exch10                        1.76386743 [mEh]       1.10684352 [kcal/mol]       4.63103329 [kJ/mol]
      Exch10(S^2)                   1.76294137 [mEh]       1.10626241 [kcal/mol]       4.62860193 [kJ/mol]
      Exch11(S^2)                  -0.02018685 [mEh]      -0.01266744 [kcal/mol]      -0.05300057 [kJ/mol]
      Exch12(S^2)                   0.47000321 [mEh]       0.29493147 [kcal/mol]       1.23399326 [kJ/mol]

    Induction                      -6.70410991 [mEh]      -4.20689248 [kcal/mol]     -17.60163815 [kJ/mol]
      Ind20,r                      -7.81970200 [mEh]      -4.90693709 [kcal/mol]     -20.53062477 [kJ/mol]
      Ind22                        -1.32578832 [mEh]      -0.83194473 [kcal/mol]      -3.48085675 [kJ/mol]
      Exch-Ind20,r                  2.05209648 [mEh]       1.28770998 [kcal/mol]       5.38777858 [kJ/mol]
      Exch-Ind22                    0.34792190 [mEh]       0.21832429 [kcal/mol]       0.91346881 [kJ/mol]
      delta HF,r (2)                0.04136203 [mEh]       0.02595506 [kcal/mol]       0.10859598 [kJ/mol]

    Dispersion                     -0.26953820 [mEh]      -0.16913777 [kcal/mol]      -0.70767244 [kJ/mol]
      Disp20                       -0.22750383 [mEh]      -0.14276081 [kcal/mol]      -0.59731122 [kJ/mol]
      Disp21                       -0.01909123 [mEh]      -0.01197993 [kcal/mol]      -0.05012403 [kJ/mol]
      Disp22 (SDQ)                 -0.01717571 [mEh]      -0.01077792 [kcal/mol]      -0.04509481 [kJ/mol]
      Disp22 (T)                   -0.01930539 [mEh]      -0.01211432 [kcal/mol]      -0.05068631 [kJ/mol]
      Est. Disp22 (T)              -0.02364339 [mEh]      -0.01483645 [kcal/mol]      -0.06207571 [kJ/mol]
      Exch-Disp20                   0.01787596 [mEh]       0.01121733 [kcal/mol]       0.04693333 [kJ/mol]

  Total HF                         19.14939270 [mEh]      12.01642534 [kcal/mol]      50.27672361 [kJ/mol]
  Total SAPT0                      18.93976483 [mEh]      11.88488186 [kcal/mol]      49.72634572 [kJ/mol]
  Total SAPT2                      16.62050510 [mEh]      10.42952441 [kcal/mol]      43.63713013 [kJ/mol]
  Total SAPT2+                     16.56059477 [mEh]      10.39193011 [kcal/mol]      43.47983558 [kJ/mol]

  Special recipe for scaled SAPT0 (see Manual):
    Electrostatics sSAPT0          23.11176876 [mEh]      14.50285385 [kcal/mol]      60.67994053 [kJ/mol]
    Exchange sSAPT0                 1.76386743 [mEh]       1.10684352 [kcal/mol]       4.63103329 [kJ/mol]
    Induction sSAPT0               -5.72300794 [mEh]      -3.59124170 [kcal/mol]     -15.02575527 [kJ/mol]
    Dispersion sSAPT0              -0.20959968 [mEh]      -0.13152579 [kcal/mol]      -0.55030389 [kJ/mol]
  Total sSAPT0                     18.94302857 [mEh]      11.88692989 [kcal/mol]      49.73491466 [kJ/mol]
  --------------------------------------------------------------------------------------------------------

*** tstop() called on moses-razer at Thu Jan  4 16:43:23 2024
Module time:
	user time   =      17.18 seconds =       0.29 minutes
	system time =       1.54 seconds =       0.03 minutes
	total time  =          3 seconds =       0.05 minutes
Total time:
	user time   =      30.11 seconds =       0.50 minutes
	system time =       2.88 seconds =       0.05 minutes
	total time  =          7 seconds =       0.12 minutes

    Psi4 stopped on: Thursday, 04 January 2024 04:43PM
    Psi4 wall time for execution: 0:00:07.43

*** Psi4 exiting successfully. Buy a developer a beer!
