
    -----------------------------------------------------------------------
          Psi4: An Open-Source Ab Initio Electronic Structure Package
                               Psi4 1.9 release

                         Git: Rev {} zzzzzzz 


    D. G. A. Smith, L. A. Burns, A. C. Simmonett, R. M. Parrish,
    M. C. Schieber, R. Galvelis, P. Kraus, H. Kruse, R. Di Remigio,
    A. Alenaizan, A. M. James, S. Lehtola, J. P. Misiewicz, M. Scheurer,
    R. A. Shaw, J. B. Schriber, Y. Xie, Z. L. Glick, D. A. Sirianni,
    J. S. O'Brien, J. M. Waldrop, A. Kumar, E. G. Hohenstein,
    B. P. Pritchard, B. R. Brooks, H. F. Schaefer III, A. Yu. Sokolov,
    K. Patkowski, A. E. DePrince III, U. Bozkaya, R. A. King,
    F. A. Evangelista, J. M. Turney, T. D. Crawford, C. D. Sherrill,
    J. Chem. Phys. 152(18) 184108 (2020). https://doi.org/10.1063/5.0006002

                            Additional Code Authors
    E. T. Seidl, C. L. Janssen, E. F. Valeev, M. L. Leininger,
    J. F. Gonthier, R. M. Richard, H. R. McAlexander, M. Saitow, X. Wang,
    P. Verma, M. H. Lechner, A. Jiang, S. Behnle, A. G. Heide,
    M. F. Herbst, and D. L. Poole

             Previous Authors, Complete List of Code Contributors,
                       and Citations for Specific Modules
    https://github.com/psi4/psi4/blob/master/codemeta.json
    https://github.com/psi4/psi4/graphs/contributors
    http://psicode.org/psi4manual/master/introduction.html#citing-psifour

    -----------------------------------------------------------------------


    Psi4 started on: Thursday, 04 January 2024 04:46PM

    Process ID: 490926
    Host:       moses-razer
    PSIDATADIR: /home/kchung25/anaconda3/envs/psi4_19/share/psi4
    Memory:     500.0 MiB
    Threads:    6
    
  ==> Input File <==

--------------------------------------------------------------------------
MEMORY 60 GB

molecule dimer {
0 1
O      0.000000     0.000000     0.000000
H      0.588538     0.756918     0.000000
H      0.588538    -0.756918     0.000000
--
1 1
K      4.170000     0.000000     0.000000

units ang
no_reorient
no_com
symmetry c1
}

set {
basis        aug-cc-pVTZ
scf_type     df
}

energy("sapt2+")
--------------------------------------------------------------------------

  Memory set to  55.879 GiB by Python driver.

Scratch directory: /scratch/
   => Loading Basis Set <=

    Name: AUG-CC-PVTZ
    Role: ORBITAL
    Keyword: BASIS
    atoms 1   entry O          line   331 file /home/kchung25/anaconda3/envs/p415env/share/psi4/basis/aug-cc-pvtz.gbs 
    atoms 2-3 entry H          line    40 file /home/kchung25/anaconda3/envs/p415env/share/psi4/basis/aug-cc-pvtz.gbs 
    atoms 4   entry K          line  1152 file /home/kchung25/anaconda3/envs/p415env/share/psi4/basis/aug-cc-pvtz.gbs 

   => Loading Basis Set <=

    Name: AUG-CC-PVTZ
    Role: ORBITAL
    Keyword: BASIS
    atoms 1   entry O          line   331 file /home/kchung25/anaconda3/envs/p415env/share/psi4/basis/aug-cc-pvtz.gbs 
    atoms 2-3 entry H          line    40 file /home/kchung25/anaconda3/envs/p415env/share/psi4/basis/aug-cc-pvtz.gbs 
    atoms 4   entry K          line  1152 file /home/kchung25/anaconda3/envs/p415env/share/psi4/basis/aug-cc-pvtz.gbs 


  //>>>>>>>>>>>>>>>>>>>>>>>>>>>>>>>>>>>//
  //              Dimer HF             //
  //<<<<<<<<<<<<<<<<<<<<<<<<<<<<<<<<<<<//

   => Libint2 <=

    Primary   basis highest AM E, G, H:  5, 4, 3
    Auxiliary basis highest AM E, G, H:  6, 5, 4
    Onebody   basis highest AM E, G, H:  6, 5, 4
    Solid Harmonics ordering:            gaussian

*** tstart() called on moses-razer
*** at Thu Jan  4 16:46:21 2024

   => Loading Basis Set <=

    Name: AUG-CC-PVTZ
    Role: ORBITAL
    Keyword: BASIS
    atoms 1   entry O          line   331 file /home/kchung25/anaconda3/envs/p415env/share/psi4/basis/aug-cc-pvtz.gbs 
    atoms 2-3 entry H          line    40 file /home/kchung25/anaconda3/envs/p415env/share/psi4/basis/aug-cc-pvtz.gbs 
    atoms 4   entry K          line  1152 file /home/kchung25/anaconda3/envs/p415env/share/psi4/basis/aug-cc-pvtz.gbs 


         ---------------------------------------------------------
                                   SCF
               by Justin Turney, Rob Parrish, Andy Simmonett
                          and Daniel G. A. Smith
                              RHF Reference
                        6 Threads,  57220 MiB Core
         ---------------------------------------------------------

  ==> Geometry <==

    Molecular point group: c1
    Full point group: C2v

    Geometry (in Angstrom), charge = 1, multiplicity = 1:

       Center              X                  Y                   Z               Mass       
    ------------   -----------------  -----------------  -----------------  -----------------
         O            0.000000000000     0.000000000000     0.000000000000    15.994914619570
         H            0.588538000000     0.756918000000     0.000000000000     1.007825032230
         H            0.588538000000    -0.756918000000     0.000000000000     1.007825032230
         K            4.170000000000     0.000000000000     0.000000000000    38.963706486400

  Running in c1 symmetry.

  Rotational constants: A =     14.59768  B =      0.02486  C =      0.02481 [cm^-1]
  Rotational constants: A = 437627.28990  B =    745.13941  C =    743.87283 [MHz]
  Nuclear repulsion =   33.962480881385751

  Charge       = 1
  Multiplicity = 1
  Electrons    = 28
  Nalpha       = 14
  Nbeta        = 14

  ==> Algorithm <==

  SCF Algorithm Type is DF.
  DIIS enabled.
  MOM disabled.
  Fractional occupation disabled.
  Guess Type is SAD.
  Energy threshold   = 1.00e-08
  Density threshold  = 1.00e-08
  Integral threshold = 1.00e-12

  ==> Primary Basis <==

  Basis Set: AUG-CC-PVTZ
    Blend: AUG-CC-PVTZ
    Number of shells: 51
    Number of basis functions: 151
    Number of Cartesian functions: 174
    Spherical Harmonics?: true
    Max angular momentum: 3

   => Loading Basis Set <=

    Name: (AUG-CC-PVTZ AUX)
    Role: JKFIT
    Keyword: DF_BASIS_SCF
    atoms 1   entry O          line   286 file /home/kchung25/anaconda3/envs/p415env/share/psi4/basis/aug-cc-pvtz-jkfit.gbs 
    atoms 2-3 entry H          line    70 file /home/kchung25/anaconda3/envs/p415env/share/psi4/basis/aug-cc-pvtz-jkfit.gbs 
    atoms 4   entry K          line  1152 file /home/kchung25/anaconda3/envs/p415env/share/psi4/basis/def2-universal-jkfit.gbs 

  ==> Integral Setup <==

  ==> DiskDFJK: Density-Fitted J/K Matrices <==

    J tasked:                  Yes
    K tasked:                  Yes
    wK tasked:                  No
    OpenMP threads:              6
    Integrals threads:           6
    Memory [MiB]:            42915
    Algorithm:                Core
    Integral Cache:           SAVE
    Schwarz Cutoff:          1E-12
    Fitting Condition:       1E-10

   => Auxiliary Basis Set <=

  Basis Set: (AUG-CC-PVTZ AUX)
    Blend: AUG-CC-PVTZ-JKFIT + DEF2-UNIVERSAL-JKFIT
    Number of shells: 102
    Number of basis functions: 356
    Number of Cartesian functions: 444
    Spherical Harmonics?: true
    Max angular momentum: 4

  Minimum eigenvalue in the overlap matrix is 2.9119928595E-04.
  Reciprocal condition number of the overlap matrix is 3.4205112860E-05.
    Using symmetric orthogonalization.

  ==> Pre-Iterations <==

  SCF Guess: Superposition of Atomic Densities via on-the-fly atomic UHF (no occupation information).

   -------------------------
    Irrep   Nso     Nmo    
   -------------------------
     A        151     151 
   -------------------------
    Total     151     151
   -------------------------

  ==> Iterations <==

                           Total Energy        Delta E     RMS |[F,P]|

   @DF-RHF iter SAD:  -674.54248987507901   -6.74542e+02   0.00000e+00 
   @DF-RHF iter   1:  -674.98322174484281   -4.40732e-01   3.06205e-03 ADIIS/DIIS
   @DF-RHF iter   2:  -675.03484211340901   -5.16204e-02   2.12114e-03 ADIIS/DIIS
   @DF-RHF iter   3:  -675.06673586358022   -3.18938e-02   1.48506e-04 ADIIS/DIIS
   @DF-RHF iter   4:  -675.06716079864691   -4.24935e-04   3.60516e-05 DIIS
   @DF-RHF iter   5:  -675.06718892439665   -2.81257e-05   8.69661e-06 DIIS
   @DF-RHF iter   6:  -675.06719152808773   -2.60369e-06   1.95802e-06 DIIS
   @DF-RHF iter   7:  -675.06719167230517   -1.44217e-07   3.67262e-07 DIIS
   @DF-RHF iter   8:  -675.06719167680058   -4.49540e-09   7.12190e-08 DIIS
   @DF-RHF iter   9:  -675.06719167694393   -1.43359e-10   1.95126e-08 DIIS
   @DF-RHF iter  10:  -675.06719167695485   -1.09139e-11   4.63104e-09 DIIS
  Energy and wave function converged.


  ==> Post-Iterations <==

    Orbital Energies [Eh]
    ---------------------

    Doubly Occupied:                                                      

       1A   -133.763177     2A    -20.703612     3A    -14.718610  
       4A    -11.748685     5A    -11.748668     6A    -11.748661  
       7A     -1.973742     8A     -1.487871     9A     -1.180665  
      10A     -1.180239    11A     -1.180054    12A     -0.850300  
      13A     -0.716314    14A     -0.643234  

    Virtual:                                                              

      15A     -0.153791    16A     -0.101970    17A     -0.099682  
      18A     -0.098586    19A     -0.062599    20A     -0.062400  
      21A     -0.061286    22A     -0.061277    23A     -0.059076  
      24A     -0.055759    25A     -0.047306    26A     -0.046633  
      27A     -0.044925    28A     -0.033628    29A     -0.032949  
      30A     -0.032925    31A     -0.032325    32A     -0.031012  
      33A     -0.018979    34A     -0.018911    35A     -0.017765  
      36A     -0.014989    37A     -0.009685    38A     -0.000878  
      39A      0.011382    40A      0.011601    41A      0.011889  
      42A      0.013035    43A      0.013094    44A      0.013388  
      45A      0.014714    46A      0.014856    47A      0.015460  
      48A      0.018697    49A      0.044922    50A      0.052264  
      51A      0.093316    52A      0.097036    53A      0.097674  
      54A      0.111420    55A      0.112169    56A      0.117068  
      57A      0.148577    58A      0.165885    59A      0.174989  
      60A      0.187936    61A      0.188080    62A      0.217022  
      63A      0.217333    64A      0.224096    65A      0.224546  
      66A      0.230183    67A      0.232541    68A      0.232580  
      69A      0.233358    70A      0.248739    71A      0.262741  
      72A      0.271445    73A      0.304990    74A      0.313803  
      75A      0.324576    76A      0.382608    77A      0.412959  
      78A      0.560901    79A      0.571517    80A      0.611347  
      81A      0.620998    82A      0.626645    83A      0.722825  
      84A      0.786329    85A      0.790666    86A      0.797142  
      87A      0.797154    88A      0.823552    89A      0.827096  
      90A      0.858267    91A      0.902192    92A      0.951586  
      93A      0.957085    94A      0.997204    95A      1.042888  
      96A      1.052504    97A      1.068245    98A      1.168595  
      99A      1.394004   100A      1.445170   101A      1.466319  
     102A      1.700381   103A      1.713551   104A      1.857576  
     105A      2.003473   106A      2.141581   107A      2.201985  
     108A      2.245205   109A      2.333780   110A      2.356422  
     111A      2.371607   112A      2.397431   113A      2.565920  
     114A      2.610844   115A      2.678872   116A      2.698072  
     117A      2.766667   118A      3.544870   119A      3.627985  
     120A      3.885954   121A      3.980005   122A      4.039634  
     123A      4.132030   124A      4.157339   125A      4.244435  
     126A      4.267697   127A      4.276809   128A      4.389330  
     129A      4.630199   130A      4.715164   131A      5.023484  
     132A      5.025212   133A      5.142146   134A      5.217990  
     135A      5.394097   136A      5.556725   137A      6.064044  
     138A      6.398051   139A      6.605372   140A      6.793968  
     141A      7.010183   142A      7.140984   143A      7.186260  
     144A      7.195061   145A      7.230513   146A      7.232664  
     147A      7.413850   148A      7.778735   149A      7.817784  
     150A      8.696302   151A     15.696582  

    Final Occupation by Irrep:
              A 
    DOCC [    14 ]
    NA   [    14 ]
    NB   [    14 ]

  @DF-RHF Final Energy:  -675.06719167695485

   => Energetics <=

    Nuclear Repulsion Energy =             33.9624808813857513
    One-Electron Energy =                -990.7716838123666321
    Two-Electron Energy =                 281.7420112540260106
    Total Energy =                       -675.0671916769548488

Computation Completed


Properties will be evaluated at   0.000000,   0.000000,   0.000000 [a0]

Properties computed using the SCF density matrix


 Multipole Moments:

 ------------------------------------------------------------------------------------
     Multipole            Electronic (a.u.)      Nuclear  (a.u.)        Total (a.u.)
 ------------------------------------------------------------------------------------

 L = 1.  Multiply by 2.5417464519 to convert [e a0] to [Debye]
 Dipole X            :       -143.4239450          151.9473522            8.5234072
 Dipole Y            :         -0.0000000            0.0000000           -0.0000000
 Dipole Z            :          0.0000000            0.0000000            0.0000000
 Magnitude           :                                                    8.5234072

 ------------------------------------------------------------------------------------

*** tstop() called on moses-razer at Thu Jan  4 16:46:27 2024
Module time:
	user time   =      10.82 seconds =       0.18 minutes
	system time =       2.19 seconds =       0.04 minutes
	total time  =          6 seconds =       0.10 minutes
Total time:
	user time   =      10.82 seconds =       0.18 minutes
	system time =       2.19 seconds =       0.04 minutes
	total time  =          6 seconds =       0.10 minutes

  //>>>>>>>>>>>>>>>>>>>>>>>>>>>>>>>>>>>//
  //            Monomer A HF           //
  //<<<<<<<<<<<<<<<<<<<<<<<<<<<<<<<<<<<//

   => Libint2 <=

    Primary   basis highest AM E, G, H:  5, 4, 3
    Auxiliary basis highest AM E, G, H:  6, 5, 4
    Onebody   basis highest AM E, G, H:  6, 5, 4
    Solid Harmonics ordering:            gaussian

*** tstart() called on moses-razer
*** at Thu Jan  4 16:46:27 2024

   => Loading Basis Set <=

    Name: AUG-CC-PVTZ
    Role: ORBITAL
    Keyword: BASIS
    atoms 1   entry O          line   331 file /home/kchung25/anaconda3/envs/p415env/share/psi4/basis/aug-cc-pvtz.gbs 
    atoms 2-3 entry H          line    40 file /home/kchung25/anaconda3/envs/p415env/share/psi4/basis/aug-cc-pvtz.gbs 
    atoms 4   entry K          line  1152 file /home/kchung25/anaconda3/envs/p415env/share/psi4/basis/aug-cc-pvtz.gbs 


         ---------------------------------------------------------
                                   SCF
               by Justin Turney, Rob Parrish, Andy Simmonett
                          and Daniel G. A. Smith
                              RHF Reference
                        6 Threads,  57220 MiB Core
         ---------------------------------------------------------

  ==> Geometry <==

    Molecular point group: c1
    Full point group: C2v

    Geometry (in Angstrom), charge = 0, multiplicity = 1:

       Center              X                  Y                   Z               Mass       
    ------------   -----------------  -----------------  -----------------  -----------------
         O            0.000000000000     0.000000000000     0.000000000000    15.994914619570
         H            0.588538000000     0.756918000000     0.000000000000     1.007825032230
         H            0.588538000000    -0.756918000000     0.000000000000     1.007825032230
      Gh(K)           4.170000000000     0.000000000000     0.000000000000    38.963706486400

  Running in c1 symmetry.

  Rotational constants: A =     14.59768  B =      0.02486  C =      0.02481 [cm^-1]
  Rotational constants: A = 437627.28990  B =    745.13941  C =    743.87283 [MHz]
  Nuclear repulsion =    9.180197847927069

  Charge       = 0
  Multiplicity = 1
  Electrons    = 10
  Nalpha       = 5
  Nbeta        = 5

  ==> Algorithm <==

  SCF Algorithm Type is DF.
  DIIS enabled.
  MOM disabled.
  Fractional occupation disabled.
  Guess Type is SAD.
  Energy threshold   = 1.00e-08
  Density threshold  = 1.00e-08
  Integral threshold = 1.00e-12

  ==> Primary Basis <==

  Basis Set: AUG-CC-PVTZ
    Blend: AUG-CC-PVTZ
    Number of shells: 51
    Number of basis functions: 151
    Number of Cartesian functions: 174
    Spherical Harmonics?: true
    Max angular momentum: 3

   => Loading Basis Set <=

    Name: (AUG-CC-PVTZ AUX)
    Role: JKFIT
    Keyword: DF_BASIS_SCF
    atoms 1   entry O          line   286 file /home/kchung25/anaconda3/envs/p415env/share/psi4/basis/aug-cc-pvtz-jkfit.gbs 
    atoms 2-3 entry H          line    70 file /home/kchung25/anaconda3/envs/p415env/share/psi4/basis/aug-cc-pvtz-jkfit.gbs 
    atoms 4   entry K          line  1152 file /home/kchung25/anaconda3/envs/p415env/share/psi4/basis/def2-universal-jkfit.gbs 

  ==> Integral Setup <==

  ==> DiskDFJK: Density-Fitted J/K Matrices <==

    J tasked:                  Yes
    K tasked:                  Yes
    wK tasked:                  No
    OpenMP threads:              6
    Integrals threads:           6
    Memory [MiB]:            42915
    Algorithm:                Core
    Integral Cache:           LOAD
    Schwarz Cutoff:          1E-12
    Fitting Condition:       1E-10

   => Auxiliary Basis Set <=

  Basis Set: (AUG-CC-PVTZ AUX)
    Blend: AUG-CC-PVTZ-JKFIT + DEF2-UNIVERSAL-JKFIT
    Number of shells: 102
    Number of basis functions: 356
    Number of Cartesian functions: 444
    Spherical Harmonics?: true
    Max angular momentum: 4

  Minimum eigenvalue in the overlap matrix is 2.9119928595E-04.
  Reciprocal condition number of the overlap matrix is 3.4205112860E-05.
    Using symmetric orthogonalization.

  ==> Pre-Iterations <==

  SCF Guess: Superposition of Atomic Densities via on-the-fly atomic UHF (no occupation information).

   -------------------------
    Irrep   Nso     Nmo    
   -------------------------
     A        151     151 
   -------------------------
    Total     151     151
   -------------------------

  ==> Iterations <==

                           Total Energy        Delta E     RMS |[F,P]|

   @DF-RHF iter SAD:   -75.47651207131486   -7.54765e+01   0.00000e+00 
   @DF-RHF iter   1:   -75.97614960699109   -4.99638e-01   3.10306e-03 ADIIS/DIIS
   @DF-RHF iter   2:   -76.02867640624808   -5.25268e-02   2.11390e-03 ADIIS/DIIS
   @DF-RHF iter   3:   -76.06007418851651   -3.13978e-02   1.44680e-04 ADIIS/DIIS
   @DF-RHF iter   4:   -76.06046552740830   -3.91339e-04   3.41816e-05 DIIS
   @DF-RHF iter   5:   -76.06048961554234   -2.40881e-05   7.78572e-06 DIIS
   @DF-RHF iter   6:   -76.06049159045865   -1.97492e-06   1.70334e-06 DIIS
   @DF-RHF iter   7:   -76.06049169452338   -1.04065e-07   3.07316e-07 DIIS
   @DF-RHF iter   8:   -76.06049169749410   -2.97072e-09   5.10557e-08 DIIS
   @DF-RHF iter   9:   -76.06049169755899   -6.48868e-11   1.25994e-08 DIIS
   @DF-RHF iter  10:   -76.06049169756264   -3.65219e-12   1.84181e-09 DIIS
  Energy and wave function converged.


  ==> Post-Iterations <==

    Orbital Energies [Eh]
    ---------------------

    Doubly Occupied:                                                      

       1A    -20.567600     2A     -1.352986     3A     -0.716519  
       4A     -0.585138     5A     -0.510310  

    Virtual:                                                              

       6A      0.005907     7A      0.008928     8A      0.009327  
       9A      0.010555    10A      0.018383    11A      0.018388  
      12A      0.018990    13A      0.019572    14A      0.020456  
      15A      0.032680    16A      0.033375    17A      0.034069  
      18A      0.034741    19A      0.061152    20A      0.061702  
      21A      0.062308    22A      0.062483    23A      0.064447  
      24A      0.079274    25A      0.082705    26A      0.096719  
      27A      0.096864    28A      0.097667    29A      0.106066  
      30A      0.137592    31A      0.137887    32A      0.138882  
      33A      0.138930    34A      0.141826    35A      0.165873  
      36A      0.166520    37A      0.190670    38A      0.196028  
      39A      0.209790    40A      0.220290    41A      0.220774  
      42A      0.223060    43A      0.224995    44A      0.226408  
      45A      0.249855    46A      0.252611    47A      0.264599  
      48A      0.300081    49A      0.305448    50A      0.309174  
      51A      0.327458    52A      0.364280    53A      0.401548  
      54A      0.410894    55A      0.437889    56A      0.447683  
      57A      0.449169    58A      0.449210    59A      0.474543  
      60A      0.488448    61A      0.498727    62A      0.525110  
      63A      0.539138    64A      0.597027    65A      0.698803  
      66A      0.728285    67A      0.741959    68A      0.747262  
      69A      0.753917    70A      0.906518    71A      0.934300  
      72A      0.935021    73A      0.941036    74A      0.954483  
      75A      0.956723    76A      0.979187    77A      1.023217  
      78A      1.076295    79A      1.085389    80A      1.133638  
      81A      1.173873    82A      1.187385    83A      1.203089  
      84A      1.295286    85A      1.514532    86A      1.527229  
      87A      1.584248    88A      1.601471    89A      1.817494  
      90A      1.827163    91A      1.830316    92A      1.838176  
      93A      1.892572    94A      1.892892    95A      1.915390  
      96A      1.929621    97A      1.961034    98A      1.999614  
      99A      2.087614   100A      2.146566   101A      2.270943  
     102A      2.329658   103A      2.386060   104A      2.465557  
     105A      2.490026   106A      2.498683   107A      2.549193  
     108A      2.694015   109A      2.740428   110A      2.817243  
     111A      2.832420   112A      2.898219   113A      3.681070  
     114A      3.764317   115A      4.025535   116A      4.115642  
     117A      4.178568   118A      4.270658   119A      4.292279  
     120A      4.381185   121A      4.406645   122A      4.415458  
     123A      4.527796   124A      4.766742   125A      4.852859  
     126A      5.158738   127A      5.163249   128A      5.277992  
     129A      5.355371   130A      5.529293   131A      5.690498  
     132A      6.199084   133A      6.529948   134A      6.738865  
     135A      6.928514   136A      7.142125   137A      7.274699  
     138A      7.320212   139A      7.327586   140A      7.364204  
     141A      7.366540   142A      7.548921   143A      7.912069  
     144A      7.951634   145A      8.831905   146A      9.717784  
     147A     15.832832   148A     30.197377   149A     30.216978  
     150A     30.361108   151A    196.934656  

    Final Occupation by Irrep:
              A 
    DOCC [     5 ]
    NA   [     5 ]
    NB   [     5 ]

  @DF-RHF Final Energy:   -76.06049169756264

   => Energetics <=

    Nuclear Repulsion Energy =              9.1801978479270687
    One-Electron Energy =                -123.0162754746637432
    Two-Electron Energy =                  37.7755859291740421
    Total Energy =                        -76.0604916975626395

Computation Completed


Properties will be evaluated at   0.000000,   0.000000,   0.000000 [a0]

Properties computed using the SCF density matrix


 Multipole Moments:

 ------------------------------------------------------------------------------------
     Multipole            Electronic (a.u.)      Nuclear  (a.u.)        Total (a.u.)
 ------------------------------------------------------------------------------------

 L = 1.  Multiply by 2.5417464519 to convert [e a0] to [Debye]
 Dipole X            :         -1.4418294            2.2243513            0.7825219
 Dipole Y            :         -0.0000000            0.0000000           -0.0000000
 Dipole Z            :         -0.0000000            0.0000000           -0.0000000
 Magnitude           :                                                    0.7825219

 ------------------------------------------------------------------------------------

*** tstop() called on moses-razer at Thu Jan  4 16:46:30 2024
Module time:
	user time   =       5.69 seconds =       0.09 minutes
	system time =       0.84 seconds =       0.01 minutes
	total time  =          3 seconds =       0.05 minutes
Total time:
	user time   =      16.53 seconds =       0.28 minutes
	system time =       3.03 seconds =       0.05 minutes
	total time  =          9 seconds =       0.15 minutes

  //>>>>>>>>>>>>>>>>>>>>>>>>>>>>>>>>>>>//
  //            Monomer B HF           //
  //<<<<<<<<<<<<<<<<<<<<<<<<<<<<<<<<<<<//

   => Libint2 <=

    Primary   basis highest AM E, G, H:  5, 4, 3
    Auxiliary basis highest AM E, G, H:  6, 5, 4
    Onebody   basis highest AM E, G, H:  6, 5, 4
    Solid Harmonics ordering:            gaussian

*** tstart() called on moses-razer
*** at Thu Jan  4 16:46:30 2024

   => Loading Basis Set <=

    Name: AUG-CC-PVTZ
    Role: ORBITAL
    Keyword: BASIS
    atoms 1   entry O          line   331 file /home/kchung25/anaconda3/envs/p415env/share/psi4/basis/aug-cc-pvtz.gbs 
    atoms 2-3 entry H          line    40 file /home/kchung25/anaconda3/envs/p415env/share/psi4/basis/aug-cc-pvtz.gbs 
    atoms 4   entry K          line  1152 file /home/kchung25/anaconda3/envs/p415env/share/psi4/basis/aug-cc-pvtz.gbs 


         ---------------------------------------------------------
                                   SCF
               by Justin Turney, Rob Parrish, Andy Simmonett
                          and Daniel G. A. Smith
                              RHF Reference
                        6 Threads,  57220 MiB Core
         ---------------------------------------------------------

  ==> Geometry <==

    Molecular point group: c1
    Full point group: C2v

    Geometry (in Angstrom), charge = 1, multiplicity = 1:

       Center              X                  Y                   Z               Mass       
    ------------   -----------------  -----------------  -----------------  -----------------
      Gh(O)           0.000000000000     0.000000000000     0.000000000000    15.994914619570
      Gh(H)           0.588538000000     0.756918000000     0.000000000000     1.007825032230
      Gh(H)           0.588538000000    -0.756918000000     0.000000000000     1.007825032230
         K            4.170000000000     0.000000000000     0.000000000000    38.963706486400

  Running in c1 symmetry.

  Rotational constants: A =     14.59768  B =      0.02486  C =      0.02481 [cm^-1]
  Rotational constants: A = 437627.28990  B =    745.13941  C =    743.87283 [MHz]
  Nuclear repulsion =    0.000000000000000

  Charge       = 1
  Multiplicity = 1
  Electrons    = 18
  Nalpha       = 9
  Nbeta        = 9

  ==> Algorithm <==

  SCF Algorithm Type is DF.
  DIIS enabled.
  MOM disabled.
  Fractional occupation disabled.
  Guess Type is SAD.
  Energy threshold   = 1.00e-08
  Density threshold  = 1.00e-08
  Integral threshold = 1.00e-12

  ==> Primary Basis <==

  Basis Set: AUG-CC-PVTZ
    Blend: AUG-CC-PVTZ
    Number of shells: 51
    Number of basis functions: 151
    Number of Cartesian functions: 174
    Spherical Harmonics?: true
    Max angular momentum: 3

   => Loading Basis Set <=

    Name: (AUG-CC-PVTZ AUX)
    Role: JKFIT
    Keyword: DF_BASIS_SCF
    atoms 1   entry O          line   286 file /home/kchung25/anaconda3/envs/p415env/share/psi4/basis/aug-cc-pvtz-jkfit.gbs 
    atoms 2-3 entry H          line    70 file /home/kchung25/anaconda3/envs/p415env/share/psi4/basis/aug-cc-pvtz-jkfit.gbs 
    atoms 4   entry K          line  1152 file /home/kchung25/anaconda3/envs/p415env/share/psi4/basis/def2-universal-jkfit.gbs 

  ==> Integral Setup <==

  ==> DiskDFJK: Density-Fitted J/K Matrices <==

    J tasked:                  Yes
    K tasked:                  Yes
    wK tasked:                  No
    OpenMP threads:              6
    Integrals threads:           6
    Memory [MiB]:            42915
    Algorithm:                Core
    Integral Cache:           LOAD
    Schwarz Cutoff:          1E-12
    Fitting Condition:       1E-10

   => Auxiliary Basis Set <=

  Basis Set: (AUG-CC-PVTZ AUX)
    Blend: AUG-CC-PVTZ-JKFIT + DEF2-UNIVERSAL-JKFIT
    Number of shells: 102
    Number of basis functions: 356
    Number of Cartesian functions: 444
    Spherical Harmonics?: true
    Max angular momentum: 4

  Minimum eigenvalue in the overlap matrix is 2.9119928595E-04.
  Reciprocal condition number of the overlap matrix is 3.4205112860E-05.
    Using symmetric orthogonalization.

  ==> Pre-Iterations <==

  SCF Guess: Superposition of Atomic Densities via on-the-fly atomic UHF (no occupation information).

   -------------------------
    Irrep   Nso     Nmo    
   -------------------------
     A        151     151 
   -------------------------
    Total     151     151
   -------------------------

  ==> Iterations <==

                           Total Energy        Delta E     RMS |[F,P]|

   @DF-RHF iter SAD:  -599.05184496973584   -5.99052e+02   0.00000e+00 
   @DF-RHF iter   1:  -599.01748852826756    3.43564e-02   3.38469e-05 DIIS
   @DF-RHF iter   2:  -599.01750674802713   -1.82198e-05   4.94248e-06 DIIS
   @DF-RHF iter   3:  -599.01750718504547   -4.37018e-07   2.09276e-07 DIIS
   @DF-RHF iter   4:  -599.01750718583685   -7.91374e-10   2.65448e-08 DIIS
   @DF-RHF iter   5:  -599.01750718585197   -1.51203e-11   6.87111e-09 DIIS
  Energy and wave function converged.


  ==> Post-Iterations <==

    Orbital Energies [Eh]
    ---------------------

    Doubly Occupied:                                                      

       1A   -133.753788     2A    -14.709231     3A    -11.739295  
       4A    -11.739291     5A    -11.739291     6A     -1.964382  
       7A     -1.170979     8A     -1.170946     9A     -1.170942  

    Virtual:                                                              

      10A     -0.146974    11A     -0.095559    12A     -0.095554  
      13A     -0.095554    14A     -0.060523    15A     -0.057864  
      16A     -0.057759    17A     -0.057733    18A     -0.057720  
      19A     -0.057720    20A     -0.045538    21A     -0.045536  
      22A     -0.045535    23A     -0.031255    24A     -0.031223  
      25A     -0.031213    26A     -0.031208    27A     -0.031207  
      28A     -0.018057    29A     -0.016581    30A     -0.016214  
      31A     -0.012898    32A     -0.010498    33A     -0.009219  
      34A      0.013183    35A      0.013683    36A      0.016567  
      37A      0.016827    38A      0.016931    39A      0.016942  
      40A      0.018312    41A      0.019164    42A      0.019744  
      43A      0.019752    44A      0.050545    45A      0.052442  
      46A      0.088052    47A      0.091081    48A      0.097210  
      49A      0.097365    50A      0.105011    51A      0.105027  
      52A      0.123340    53A      0.188587    54A      0.189253  
      55A      0.192567    56A      0.196135    57A      0.225416  
      58A      0.225449    59A      0.229764    60A      0.233255  
      61A      0.238824    62A      0.238920    63A      0.239763  
      64A      0.241052    65A      0.244171    66A      0.270784  
      67A      0.281510    68A      0.295232    69A      0.307277  
      70A      0.322940    71A      0.332447    72A      0.376672  
      73A      0.565013    74A      0.611115    75A      0.667230  
      76A      0.683662    77A      0.702686    78A      0.710557  
      79A      0.728891    80A      0.752266    81A      0.788355  
      82A      0.788701    83A      0.843770    84A      0.846824  
      85A      0.847475    86A      0.891329    87A      0.910172  
      88A      0.925915    89A      0.952869    90A      1.083798  
      91A      1.085221    92A      1.087845    93A      1.320426  
      94A      1.343984    95A      1.583216    96A      1.597879  
      97A      1.599200    98A      1.715571    99A      1.731962  
     100A      1.924401   101A      2.253137   102A      2.296183  
     103A      2.424776   104A      2.429884   105A      2.433853  
     106A      2.455799   107A      2.497009   108A      2.569754  
     109A      2.754969   110A      3.039751   111A      3.040156  
     112A      3.046208   113A      3.181072   114A      3.206967  
     115A      3.403402   116A      3.548814   117A      4.212516  
     118A      4.281710   119A      4.327340   120A      4.465209  
     121A      4.527053   122A      4.529080   123A      4.722351  
     124A      4.739167   125A      4.745326   126A      5.051833  
     127A      5.407543   128A      5.474752   129A      5.518894  
     130A      5.707079   131A      5.990580   132A      6.271804  
     133A      6.485778   134A      6.943930   135A      7.557591  
     136A      7.703242   137A      7.922584   138A      8.043208  
     139A      8.161792   140A      8.611034   141A      8.704211  
     142A      9.535161   143A      9.715611   144A      9.862505  
     145A     10.096746   146A     11.113147   147A     11.490571  
     148A     11.989283   149A     13.386170   150A     13.679728  
     151A     64.506367  

    Final Occupation by Irrep:
              A 
    DOCC [     9 ]
    NA   [     9 ]
    NB   [     9 ]

  @DF-RHF Final Energy:  -599.01750718585197

   => Energetics <=

    Nuclear Repulsion Energy =              0.0000000000000000
    One-Electron Energy =                -819.7187238273245384
    Two-Electron Energy =                 220.7012166414726266
    Total Energy =                       -599.0175071858518550

Computation Completed


Properties will be evaluated at   0.000000,   0.000000,   0.000000 [a0]

Properties computed using the SCF density matrix


 Multipole Moments:

 ------------------------------------------------------------------------------------
     Multipole            Electronic (a.u.)      Nuclear  (a.u.)        Total (a.u.)
 ------------------------------------------------------------------------------------

 L = 1.  Multiply by 2.5417464519 to convert [e a0] to [Debye]
 Dipole X            :       -141.8431986          149.7230009            7.8798023
 Dipole Y            :          0.0000000            0.0000000            0.0000000
 Dipole Z            :          0.0000000            0.0000000            0.0000000
 Magnitude           :                                                    7.8798023

 ------------------------------------------------------------------------------------

*** tstop() called on moses-razer at Thu Jan  4 16:46:36 2024
Module time:
	user time   =       8.83 seconds =       0.15 minutes
	system time =       2.07 seconds =       0.03 minutes
	total time  =          6 seconds =       0.10 minutes
Total time:
	user time   =      25.38 seconds =       0.42 minutes
	system time =       5.10 seconds =       0.09 minutes
	total time  =         15 seconds =       0.25 minutes
  Constructing Basis Sets for SAPT...

   => Loading Basis Set <=

    Name: (AUG-CC-PVTZ AUX)
    Role: RIFIT
    Keyword: DF_BASIS_SAPT
    atoms 1   entry O          line   264 file /home/kchung25/anaconda3/envs/p415env/share/psi4/basis/aug-cc-pvtz-ri.gbs 
    atoms 2-3 entry H          line    30 file /home/kchung25/anaconda3/envs/p415env/share/psi4/basis/aug-cc-pvtz-ri.gbs 
    atoms 4   entry K          line  1282 file /home/kchung25/anaconda3/envs/p415env/share/psi4/basis/def2-qzvpp-ri.gbs 

   => Loading Basis Set <=

    Name: (AUG-CC-PVTZ AUX)
    Role: JKFIT
    Keyword: DF_BASIS_ELST
    atoms 1   entry O          line   286 file /home/kchung25/anaconda3/envs/p415env/share/psi4/basis/aug-cc-pvtz-jkfit.gbs 
    atoms 2-3 entry H          line    70 file /home/kchung25/anaconda3/envs/p415env/share/psi4/basis/aug-cc-pvtz-jkfit.gbs 
    atoms 4   entry K          line  1152 file /home/kchung25/anaconda3/envs/p415env/share/psi4/basis/def2-universal-jkfit.gbs 


  //>>>>>>>>>>>>>>>>>>>>>>>>>>>>>>>>>>>//
  //               SAPT2+              //
  //<<<<<<<<<<<<<<<<<<<<<<<<<<<<<<<<<<<//


*** tstart() called on moses-razer
*** at Thu Jan  4 16:46:36 2024

        SAPT2+  
    Ed Hohenstein
     6 June 2009

      Orbital Information
  --------------------------
    NSO        =       151
    NMO        =       151
    NRI        =       397
    NOCC A     =         5
    NOCC B     =         9
    FOCC A     =         0
    FOCC B     =         0
    NVIR A     =       146
    NVIR B     =       142

    Estimated memory usage: 109.1 MB

    Natural Orbital Cutoff:   1.000E-06
    Disp(T3) Truncation:            Yes
    CCD (vv|vv) Truncation:         Yes
    MBPT T2 Truncation:             Yes

    Monomer A: 68 virtual orbitals dropped
    Monomer B: 117 virtual orbitals dropped

    Elst10,r            =     0.012123612275 [Eh]
    Exch10 (S^2)        =     0.000067584348 [Eh]
    Exch10              =     0.000067587726 [Eh]
    Ind20,r (A<-B)      =    -0.001373767652 [Eh]
    Ind20,r (B<-A)      =    -0.000023287529 [Eh]
    Ind20,r             =    -0.001397055181 [Eh]
    Exch-Ind20,r (A<-B) =     0.000054841359 [Eh]
    Exch-Ind20,r (B<-A) =     0.000000310574 [Eh]
    Exch-Ind20,r        =     0.000055151933 [Eh]
    Disp20              =    -0.000217882582 [Eh]
    Disp20 (NO)         =    -0.000206587953 [Eh]
    Exch-Disp20         =     0.000002598921 [Eh]
    Elst12,r            =    -0.000802460166 [Eh]
    Exch11              =     0.000000937459 [Eh]
    Exch12              =     0.000024561328 [Eh]
    Ind22               =    -0.000195980682 [Eh]
    Disp21              =     0.000030437689 [Eh]
    Disp22 (SDQ)        =    -0.000006481198 [Eh]

    (i =   1 of   9)          0 seconds
    (i =   2 of   9)          0 seconds
    (i =   3 of   9)          0 seconds
    (i =   4 of   9)          0 seconds
    (i =   5 of   9)          0 seconds
    (i =   6 of   9)          0 seconds
    (i =   7 of   9)          0 seconds
    (i =   8 of   9)          0 seconds
    (i =   9 of   9)          0 seconds

    Disp220 (T)         =    -0.000020430967 [Eh]

    (i =   1 of   5)          0 seconds
    (i =   2 of   5)          0 seconds
    (i =   3 of   5)          0 seconds
    (i =   4 of   5)          0 seconds
    (i =   5 of   5)          0 seconds

    Disp202 (T)         =    -0.000005878352 [Eh]

    Disp22 (T)          =    -0.000026309319 [Eh]

    Est. Disp220 (T)    =    -0.000021547974 [Eh]
    Est. Disp202 (T)    =    -0.000006199735 [Eh]

    Est. Disp22 (T)     =    -0.000027747709 [Eh]

    SAPT Results 
  --------------------------------------------------------------------------------------------------------
    Electrostatics                 11.32115211 [mEh]       7.10413020 [kcal/mol]      29.72368077 [kJ/mol]
      Elst10,r                     12.12361227 [mEh]       7.60768156 [kcal/mol]      31.83053964 [kJ/mol]
      Elst12,r                     -0.80246017 [mEh]      -0.50355136 [kcal/mol]      -2.10685888 [kJ/mol]

    Exchange                        0.09308651 [mEh]       0.05841267 [kcal/mol]       0.24439861 [kJ/mol]
      Exch10                        0.06758773 [mEh]       0.04241194 [kcal/mol]       0.17745155 [kJ/mol]
      Exch10(S^2)                   0.06758435 [mEh]       0.04240982 [kcal/mol]       0.17744268 [kJ/mol]
      Exch11(S^2)                   0.00093746 [mEh]       0.00058826 [kcal/mol]       0.00246130 [kJ/mol]
      Exch12(S^2)                   0.02456133 [mEh]       0.01541247 [kcal/mol]       0.06448576 [kJ/mol]

    Induction                      -1.57223744 [mEh]      -0.98659389 [kcal/mol]      -4.12790883 [kJ/mol]
      Ind20,r                      -1.39705518 [mEh]      -0.87666536 [kcal/mol]      -3.66796787 [kJ/mol]
      Ind22                        -0.19598068 [mEh]      -0.12297973 [kcal/mol]      -0.51454721 [kJ/mol]
      Exch-Ind20,r                  0.05515193 [mEh]       0.03460836 [kcal/mol]       0.14480138 [kJ/mol]
      Exch-Ind22                    0.00773678 [mEh]       0.00485490 [kcal/mol]       0.02031292 [kJ/mol]
      delta HF,r (2)               -0.04209029 [mEh]      -0.02641206 [kcal/mol]      -0.11050805 [kJ/mol]

    Dispersion                     -0.21907488 [mEh]      -0.13747156 [kcal/mol]      -0.57518101 [kJ/mol]
      Disp20                       -0.21788258 [mEh]      -0.13672338 [kcal/mol]      -0.57205064 [kJ/mol]
      Disp21                        0.03043769 [mEh]       0.01909994 [kcal/mol]       0.07991414 [kJ/mol]
      Disp22 (SDQ)                 -0.00648120 [mEh]      -0.00406701 [kcal/mol]      -0.01701638 [kJ/mol]
      Disp22 (T)                   -0.02630932 [mEh]      -0.01650935 [kcal/mol]      -0.06907511 [kJ/mol]
      Est. Disp22 (T)              -0.02774771 [mEh]      -0.01741195 [kcal/mol]      -0.07285160 [kJ/mol]
      Exch-Disp20                   0.00259892 [mEh]       0.00163085 [kcal/mol]       0.00682347 [kJ/mol]

  Total HF                         10.80720646 [mEh]       6.78162444 [kcal/mol]      28.37431665 [kJ/mol]
  Total SAPT0                      10.59192280 [mEh]       6.64653190 [kcal/mol]      27.80908948 [kJ/mol]
  Total SAPT2                       9.62671752 [mEh]       6.04085645 [kcal/mol]      25.27494337 [kJ/mol]
  Total SAPT2+                      9.62292630 [mEh]       6.03847742 [kcal/mol]      25.26498953 [kJ/mol]

  Special recipe for scaled SAPT0 (see Manual):
    Electrostatics sSAPT0          12.12361227 [mEh]       7.60768156 [kcal/mol]      31.83053964 [kJ/mol]
    Exchange sSAPT0                 0.06758773 [mEh]       0.04241194 [kcal/mol]       0.17745155 [kJ/mol]
    Induction sSAPT0               -1.38398527 [mEh]      -0.86846387 [kcal/mol]      -3.63365283 [kJ/mol]
    Dispersion sSAPT0              -0.21528327 [mEh]      -0.13509229 [kcal/mol]      -0.56522615 [kJ/mol]
  Total sSAPT0                     10.59193146 [mEh]       6.64653734 [kcal/mol]      27.80911222 [kJ/mol]
  --------------------------------------------------------------------------------------------------------

*** tstop() called on moses-razer at Thu Jan  4 16:46:49 2024
Module time:
	user time   =      36.02 seconds =       0.60 minutes
	system time =       2.53 seconds =       0.04 minutes
	total time  =         13 seconds =       0.22 minutes
Total time:
	user time   =      61.76 seconds =       1.03 minutes
	system time =       7.63 seconds =       0.13 minutes
	total time  =         28 seconds =       0.47 minutes

    Psi4 stopped on: Thursday, 04 January 2024 04:46PM
    Psi4 wall time for execution: 0:00:28.57

*** Psi4 exiting successfully. Buy a developer a beer!
