
    -----------------------------------------------------------------------
          Psi4: An Open-Source Ab Initio Electronic Structure Package
                               Psi4 1.9 release

                         Git: Rev {} zzzzzzz 


    D. G. A. Smith, L. A. Burns, A. C. Simmonett, R. M. Parrish,
    M. C. Schieber, R. Galvelis, P. Kraus, H. Kruse, R. Di Remigio,
    A. Alenaizan, A. M. James, S. Lehtola, J. P. Misiewicz, M. Scheurer,
    R. A. Shaw, J. B. Schriber, Y. Xie, Z. L. Glick, D. A. Sirianni,
    J. S. O'Brien, J. M. Waldrop, A. Kumar, E. G. Hohenstein,
    B. P. Pritchard, B. R. Brooks, H. F. Schaefer III, A. Yu. Sokolov,
    K. Patkowski, A. E. DePrince III, U. Bozkaya, R. A. King,
    F. A. Evangelista, J. M. Turney, T. D. Crawford, C. D. Sherrill,
    J. Chem. Phys. 152(18) 184108 (2020). https://doi.org/10.1063/5.0006002

                            Additional Code Authors
    E. T. Seidl, C. L. Janssen, E. F. Valeev, M. L. Leininger,
    J. F. Gonthier, R. M. Richard, H. R. McAlexander, M. Saitow, X. Wang,
    P. Verma, M. H. Lechner, A. Jiang, S. Behnle, A. G. Heide,
    M. F. Herbst, and D. L. Poole

             Previous Authors, Complete List of Code Contributors,
                       and Citations for Specific Modules
    https://github.com/psi4/psi4/blob/master/codemeta.json
    https://github.com/psi4/psi4/graphs/contributors
    http://psicode.org/psi4manual/master/introduction.html#citing-psifour

    -----------------------------------------------------------------------


    Psi4 started on: Thursday, 04 January 2024 05:49PM

    Process ID: 495513
    Host:       moses-razer
    PSIDATADIR: /home/kchung25/anaconda3/envs/psi4_19/share/psi4
    Memory:     500.0 MiB
    Threads:    6
    
  ==> Input File <==

--------------------------------------------------------------------------
MEMORY 60 GB

molecule dimer {
0 1
O      0.000000     0.000000     0.000000
H      0.588538     0.756918     0.000000
H      0.588538    -0.756918     0.000000
--
-2 1
F      1.930402     1.930402     0.000000
F      1.930402    -1.930402     0.000000

units ang
no_reorient
no_com
symmetry c1
}

set {
basis        aug-cc-pVTZ
scf_type     df
}

energy("sapt2+")
--------------------------------------------------------------------------

  Memory set to  55.879 GiB by Python driver.

Scratch directory: /scratch/
   => Loading Basis Set <=

    Name: AUG-CC-PVTZ
    Role: ORBITAL
    Keyword: BASIS
    atoms 1   entry O          line   331 file /home/kchung25/anaconda3/envs/p415env/share/psi4/basis/aug-cc-pvtz.gbs 
    atoms 2-3 entry H          line    40 file /home/kchung25/anaconda3/envs/p415env/share/psi4/basis/aug-cc-pvtz.gbs 
    atoms 4-5 entry F          line   377 file /home/kchung25/anaconda3/envs/p415env/share/psi4/basis/aug-cc-pvtz.gbs 

   => Loading Basis Set <=

    Name: AUG-CC-PVTZ
    Role: ORBITAL
    Keyword: BASIS
    atoms 1   entry O          line   331 file /home/kchung25/anaconda3/envs/p415env/share/psi4/basis/aug-cc-pvtz.gbs 
    atoms 2-3 entry H          line    40 file /home/kchung25/anaconda3/envs/p415env/share/psi4/basis/aug-cc-pvtz.gbs 
    atoms 4-5 entry F          line   377 file /home/kchung25/anaconda3/envs/p415env/share/psi4/basis/aug-cc-pvtz.gbs 


  //>>>>>>>>>>>>>>>>>>>>>>>>>>>>>>>>>>>//
  //              Dimer HF             //
  //<<<<<<<<<<<<<<<<<<<<<<<<<<<<<<<<<<<//

   => Libint2 <=

    Primary   basis highest AM E, G, H:  5, 4, 3
    Auxiliary basis highest AM E, G, H:  6, 5, 4
    Onebody   basis highest AM E, G, H:  6, 5, 4
    Solid Harmonics ordering:            gaussian

*** tstart() called on moses-razer
*** at Thu Jan  4 17:49:31 2024

   => Loading Basis Set <=

    Name: AUG-CC-PVTZ
    Role: ORBITAL
    Keyword: BASIS
    atoms 1   entry O          line   331 file /home/kchung25/anaconda3/envs/p415env/share/psi4/basis/aug-cc-pvtz.gbs 
    atoms 2-3 entry H          line    40 file /home/kchung25/anaconda3/envs/p415env/share/psi4/basis/aug-cc-pvtz.gbs 
    atoms 4-5 entry F          line   377 file /home/kchung25/anaconda3/envs/p415env/share/psi4/basis/aug-cc-pvtz.gbs 


         ---------------------------------------------------------
                                   SCF
               by Justin Turney, Rob Parrish, Andy Simmonett
                          and Daniel G. A. Smith
                              RHF Reference
                        6 Threads,  57220 MiB Core
         ---------------------------------------------------------

  ==> Geometry <==

    Molecular point group: c1
    Full point group: C2v

    Geometry (in Angstrom), charge = -2, multiplicity = 1:

       Center              X                  Y                   Z               Mass       
    ------------   -----------------  -----------------  -----------------  -----------------
         O            0.000000000000     0.000000000000     0.000000000000    15.994914619570
         H            0.588538000000     0.756918000000     0.000000000000     1.007825032230
         H            0.588538000000    -0.756918000000     0.000000000000     1.007825032230
         F            1.930402000000     1.930402000000     0.000000000000    18.998403162730
         F            1.930402000000    -1.930402000000     0.000000000000    18.998403162730

  Running in c1 symmetry.

  Rotational constants: A =      0.11847  B =      0.11809  C =      0.05914 [cm^-1]
  Rotational constants: A =   3551.71745  B =   3540.35575  C =   1773.01375 [MHz]
  Nuclear repulsion =   56.709581865477858

  Charge       = -2
  Multiplicity = 1
  Electrons    = 30
  Nalpha       = 15
  Nbeta        = 15

  ==> Algorithm <==

  SCF Algorithm Type is DF.
  DIIS enabled.
  MOM disabled.
  Fractional occupation disabled.
  Guess Type is SAD.
  Energy threshold   = 1.00e-08
  Density threshold  = 1.00e-08
  Integral threshold = 1.00e-12

  ==> Primary Basis <==

  Basis Set: AUG-CC-PVTZ
    Blend: AUG-CC-PVTZ
    Number of shells: 60
    Number of basis functions: 184
    Number of Cartesian functions: 215
    Spherical Harmonics?: true
    Max angular momentum: 3

   => Loading Basis Set <=

    Name: (AUG-CC-PVTZ AUX)
    Role: JKFIT
    Keyword: DF_BASIS_SCF
    atoms 1   entry O          line   286 file /home/kchung25/anaconda3/envs/p415env/share/psi4/basis/aug-cc-pvtz-jkfit.gbs 
    atoms 2-3 entry H          line    70 file /home/kchung25/anaconda3/envs/p415env/share/psi4/basis/aug-cc-pvtz-jkfit.gbs 
    atoms 4-5 entry F          line   348 file /home/kchung25/anaconda3/envs/p415env/share/psi4/basis/aug-cc-pvtz-jkfit.gbs 

  ==> Integral Setup <==

  ==> DiskDFJK: Density-Fitted J/K Matrices <==

    J tasked:                  Yes
    K tasked:                  Yes
    wK tasked:                  No
    OpenMP threads:              6
    Integrals threads:           6
    Memory [MiB]:            42915
    Algorithm:                Core
    Integral Cache:           SAVE
    Schwarz Cutoff:          1E-12
    Fitting Condition:       1E-10

   => Auxiliary Basis Set <=

  Basis Set: (AUG-CC-PVTZ AUX)
    Blend: AUG-CC-PVTZ-JKFIT
    Number of shells: 118
    Number of basis functions: 404
    Number of Cartesian functions: 503
    Spherical Harmonics?: true
    Max angular momentum: 4

  Minimum eigenvalue in the overlap matrix is 2.5971834411E-04.
  Reciprocal condition number of the overlap matrix is 3.2967224702E-05.
    Using symmetric orthogonalization.

  ==> Pre-Iterations <==

  SCF Guess: Superposition of Atomic Densities via on-the-fly atomic UHF (no occupation information).

   -------------------------
    Irrep   Nso     Nmo    
   -------------------------
     A        184     184 
   -------------------------
    Total     184     184
   -------------------------

  ==> Iterations <==

                           Total Energy        Delta E     RMS |[F,P]|

   @DF-RHF iter SAD:  -273.27429294714892   -2.73274e+02   0.00000e+00 
   @DF-RHF iter   1:  -274.62830701956568   -1.35401e+00   4.59362e-03 DIIS/ADIIS
   @DF-RHF iter   2:  -274.75859939114855   -1.30292e-01   3.81196e-03 DIIS/ADIIS
   @DF-RHF iter   3:  -274.88968928819577   -1.31090e-01   2.24808e-04 DIIS/ADIIS
   @DF-RHF iter   4:  -274.89040067060154   -7.11382e-04   1.23140e-04 DIIS/ADIIS
   @DF-RHF iter   5:  -274.89060155321738   -2.00883e-04   1.93333e-05 DIIS
   @DF-RHF iter   6:  -274.89061260133110   -1.10481e-05   4.15755e-06 DIIS
   @DF-RHF iter   7:  -274.89061326191870   -6.60588e-07   9.64691e-07 DIIS
   @DF-RHF iter   8:  -274.89061330665999   -4.47413e-08   2.67073e-07 DIIS
   @DF-RHF iter   9:  -274.89061331063266   -3.97267e-09   6.06145e-08 DIIS
   @DF-RHF iter  10:  -274.89061331083894   -2.06285e-10   1.16994e-08 DIIS
   @DF-RHF iter  11:  -274.89061331084719   -8.24230e-12   2.82651e-09 DIIS
  Energy and wave function converged.


  ==> Post-Iterations <==

    Orbital Energies [Eh]
    ---------------------

    Doubly Occupied:                                                      

       1A    -25.736522     2A    -25.736521     3A    -20.150087  
       4A     -0.987685     5A     -0.984832     6A     -0.940329  
       7A     -0.313973     8A     -0.196803     9A     -0.109468  
      10A     -0.089376    11A     -0.087050    12A     -0.084971  
      13A     -0.084024    14A     -0.084021    15A     -0.083830  

    Virtual:                                                              

      16A      0.291222    17A      0.294368    18A      0.424662  
      19A      0.429709    20A      0.456382    21A      0.500213  
      22A      0.504083    23A      0.513710    24A      0.551044  
      25A      0.558958    26A      0.563188    27A      0.600278  
      28A      0.670874    29A      0.673231    30A      0.707937  
      31A      0.709466    32A      0.718015    33A      0.776691  
      34A      0.822497    35A      0.850488    36A      0.888368  
      37A      0.966897    38A      1.059602    39A      1.081721  
      40A      1.085487    41A      1.130531    42A      1.135231  
      43A      1.204778    44A      1.230565    45A      1.277883  
      46A      1.302864    47A      1.315467    48A      1.316381  
      49A      1.318329    50A      1.360477    51A      1.365267  
      52A      1.391043    53A      1.428093    54A      1.457656  
      55A      1.460871    56A      1.523992    57A      1.526412  
      58A      1.537638    59A      1.554806    60A      1.560625  
      61A      1.581587    62A      1.596722    63A      1.615047  
      64A      1.617666    65A      1.693967    66A      1.708087  
      67A      1.796510    68A      1.871553    69A      1.929303  
      70A      1.956657    71A      1.986402    72A      1.991305  
      73A      2.028507    74A      2.029912    75A      2.110795  
      76A      2.127355    77A      2.216418    78A      2.331091  
      79A      2.646447    80A      2.679098    81A      2.699230  
      82A      2.740118    83A      2.790775    84A      2.856191  
      85A      2.882315    86A      2.883135    87A      2.982118  
      88A      3.088901    89A      3.113391    90A      3.119243  
      91A      3.155145    92A      3.336456    93A      3.352939  
      94A      3.384230    95A      3.386245    96A      3.395950  
      97A      3.403204    98A      3.417770    99A      3.428880  
     100A      3.429278   101A      3.429306   102A      3.445417  
     103A      3.446059   104A      3.449816   105A      3.473071  
     106A      3.481468   107A      3.533259   108A      3.541849  
     109A      3.551199   110A      3.576278   111A      3.617206  
     112A      3.700738   113A      3.830705   114A      3.859603  
     115A      3.861441   116A      3.923414   117A      4.051860  
     118A      4.123662   119A      4.422346   120A      4.425886  
     121A      4.487296   122A      4.626268   123A      4.686387  
     124A      4.732706   125A      4.738417   126A      4.880653  
     127A      4.897262   128A      4.912737   129A      5.063563  
     130A      5.346654   131A      5.608959   132A      5.641271  
     133A      5.745760   134A      5.802573   135A      5.838645  
     136A      5.849493   137A      5.865879   138A      5.921757  
     139A      5.954571   140A      6.015059   141A      6.114645  
     142A      6.280039   143A      6.315641   144A      6.637858  
     145A      6.946063   146A      7.156704   147A      7.373446  
     148A      7.570531   149A      7.716384   150A      7.766364  
     151A      7.771649   152A      7.818474   153A      7.924905  
     154A      8.199854   155A      8.423316   156A      8.438732  
     157A      9.255599   158A      9.371728   159A      9.371901  
     160A      9.372088   161A      9.373005   162A      9.412724  
     163A      9.421546   164A      9.423822   165A      9.424303  
     166A      9.595556   167A      9.611870   168A      9.623025  
     169A      9.662639   170A      9.742967   171A      9.787311  
     172A      9.871409   173A      9.872974   174A      9.873832  
     175A      9.889909   176A      9.965470   177A      9.985047  
     178A      9.991167   179A     10.013379   180A     10.020796  
     181A     10.046458   182A     12.930698   183A     13.564495  
     184A     17.979770  

    Final Occupation by Irrep:
              A 
    DOCC [    15 ]
    NA   [    15 ]
    NB   [    15 ]

  @DF-RHF Final Energy:  -274.89061331084719

   => Energetics <=

    Nuclear Repulsion Energy =             56.7095818654778583
    One-Electron Energy =                -511.8614033194729132
    Two-Electron Energy =                 180.2612081431478543
    Total Energy =                       -274.8906133108472432

Computation Completed


Properties will be evaluated at   0.000000,   0.000000,   0.000000 [a0]

Properties computed using the SCF density matrix


 Multipole Moments:

 ------------------------------------------------------------------------------------
     Multipole            Electronic (a.u.)      Nuclear  (a.u.)        Total (a.u.)
 ------------------------------------------------------------------------------------

 L = 1.  Multiply by 2.5417464519 to convert [e a0] to [Debye]
 Dipole X            :        -73.7718025           67.8871109           -5.8846916
 Dipole Y            :         -0.0000000            0.0000000           -0.0000000
 Dipole Z            :         -0.0000000            0.0000000           -0.0000000
 Magnitude           :                                                    5.8846916

 ------------------------------------------------------------------------------------

*** tstop() called on moses-razer at Thu Jan  4 17:49:31 2024
Module time:
	user time   =       5.11 seconds =       0.09 minutes
	system time =       0.18 seconds =       0.00 minutes
	total time  =          0 seconds =       0.00 minutes
Total time:
	user time   =       5.11 seconds =       0.09 minutes
	system time =       0.18 seconds =       0.00 minutes
	total time  =          0 seconds =       0.00 minutes

  //>>>>>>>>>>>>>>>>>>>>>>>>>>>>>>>>>>>//
  //            Monomer A HF           //
  //<<<<<<<<<<<<<<<<<<<<<<<<<<<<<<<<<<<//

   => Libint2 <=

    Primary   basis highest AM E, G, H:  5, 4, 3
    Auxiliary basis highest AM E, G, H:  6, 5, 4
    Onebody   basis highest AM E, G, H:  6, 5, 4
    Solid Harmonics ordering:            gaussian

*** tstart() called on moses-razer
*** at Thu Jan  4 17:49:31 2024

   => Loading Basis Set <=

    Name: AUG-CC-PVTZ
    Role: ORBITAL
    Keyword: BASIS
    atoms 1   entry O          line   331 file /home/kchung25/anaconda3/envs/p415env/share/psi4/basis/aug-cc-pvtz.gbs 
    atoms 2-3 entry H          line    40 file /home/kchung25/anaconda3/envs/p415env/share/psi4/basis/aug-cc-pvtz.gbs 
    atoms 4-5 entry F          line   377 file /home/kchung25/anaconda3/envs/p415env/share/psi4/basis/aug-cc-pvtz.gbs 


         ---------------------------------------------------------
                                   SCF
               by Justin Turney, Rob Parrish, Andy Simmonett
                          and Daniel G. A. Smith
                              RHF Reference
                        6 Threads,  57220 MiB Core
         ---------------------------------------------------------

  ==> Geometry <==

    Molecular point group: c1
    Full point group: C2v

    Geometry (in Angstrom), charge = 0, multiplicity = 1:

       Center              X                  Y                   Z               Mass       
    ------------   -----------------  -----------------  -----------------  -----------------
         O            0.000000000000     0.000000000000     0.000000000000    15.994914619570
         H            0.588538000000     0.756918000000     0.000000000000     1.007825032230
         H            0.588538000000    -0.756918000000     0.000000000000     1.007825032230
      Gh(F)           1.930402000000     1.930402000000     0.000000000000    18.998403162730
      Gh(F)           1.930402000000    -1.930402000000     0.000000000000    18.998403162730

  Running in c1 symmetry.

  Rotational constants: A =      0.11847  B =      0.11809  C =      0.05914 [cm^-1]
  Rotational constants: A =   3551.71745  B =   3540.35575  C =   1773.01375 [MHz]
  Nuclear repulsion =    9.180197847927069

  Charge       = 0
  Multiplicity = 1
  Electrons    = 10
  Nalpha       = 5
  Nbeta        = 5

  ==> Algorithm <==

  SCF Algorithm Type is DF.
  DIIS enabled.
  MOM disabled.
  Fractional occupation disabled.
  Guess Type is SAD.
  Energy threshold   = 1.00e-08
  Density threshold  = 1.00e-08
  Integral threshold = 1.00e-12

  ==> Primary Basis <==

  Basis Set: AUG-CC-PVTZ
    Blend: AUG-CC-PVTZ
    Number of shells: 60
    Number of basis functions: 184
    Number of Cartesian functions: 215
    Spherical Harmonics?: true
    Max angular momentum: 3

   => Loading Basis Set <=

    Name: (AUG-CC-PVTZ AUX)
    Role: JKFIT
    Keyword: DF_BASIS_SCF
    atoms 1   entry O          line   286 file /home/kchung25/anaconda3/envs/p415env/share/psi4/basis/aug-cc-pvtz-jkfit.gbs 
    atoms 2-3 entry H          line    70 file /home/kchung25/anaconda3/envs/p415env/share/psi4/basis/aug-cc-pvtz-jkfit.gbs 
    atoms 4-5 entry F          line   348 file /home/kchung25/anaconda3/envs/p415env/share/psi4/basis/aug-cc-pvtz-jkfit.gbs 

  ==> Integral Setup <==

  ==> DiskDFJK: Density-Fitted J/K Matrices <==

    J tasked:                  Yes
    K tasked:                  Yes
    wK tasked:                  No
    OpenMP threads:              6
    Integrals threads:           6
    Memory [MiB]:            42915
    Algorithm:                Core
    Integral Cache:           LOAD
    Schwarz Cutoff:          1E-12
    Fitting Condition:       1E-10

   => Auxiliary Basis Set <=

  Basis Set: (AUG-CC-PVTZ AUX)
    Blend: AUG-CC-PVTZ-JKFIT
    Number of shells: 118
    Number of basis functions: 404
    Number of Cartesian functions: 503
    Spherical Harmonics?: true
    Max angular momentum: 4

  Minimum eigenvalue in the overlap matrix is 2.5971834411E-04.
  Reciprocal condition number of the overlap matrix is 3.2967224702E-05.
    Using symmetric orthogonalization.

  ==> Pre-Iterations <==

  SCF Guess: Superposition of Atomic Densities via on-the-fly atomic UHF (no occupation information).

   -------------------------
    Irrep   Nso     Nmo    
   -------------------------
     A        184     184 
   -------------------------
    Total     184     184
   -------------------------

  ==> Iterations <==

                           Total Energy        Delta E     RMS |[F,P]|

   @DF-RHF iter SAD:   -75.47651200863828   -7.54765e+01   0.00000e+00 
   @DF-RHF iter   1:   -75.97618954878997   -4.99678e-01   2.54680e-03 DIIS/ADIIS
   @DF-RHF iter   2:   -76.02872494859081   -5.25354e-02   1.73516e-03 DIIS/ADIIS
   @DF-RHF iter   3:   -76.06012801136370   -3.14031e-02   1.18430e-04 DIIS/ADIIS
   @DF-RHF iter   4:   -76.06051850534008   -3.90494e-04   2.80862e-05 DIIS
   @DF-RHF iter   5:   -76.06054264195363   -2.41366e-05   6.39264e-06 DIIS
   @DF-RHF iter   6:   -76.06054461845183   -1.97650e-06   1.40099e-06 DIIS
   @DF-RHF iter   7:   -76.06054472305469   -1.04603e-07   2.53165e-07 DIIS
   @DF-RHF iter   8:   -76.06054472605052   -2.99583e-09   4.20190e-08 DIIS
   @DF-RHF iter   9:   -76.06054472611555   -6.50289e-11   1.03587e-08 DIIS
   @DF-RHF iter  10:   -76.06054472611960   -4.05009e-12   1.51944e-09 DIIS
  Energy and wave function converged.


  ==> Post-Iterations <==

    Orbital Energies [Eh]
    ---------------------

    Doubly Occupied:                                                      

       1A    -20.567576     2A     -1.352937     3A     -0.716475  
       4A     -0.585096     5A     -0.510286  

    Virtual:                                                              

       6A      0.028723     7A      0.046914     8A      0.108817  
       9A      0.125567    10A      0.144033    11A      0.152517  
      12A      0.158299    13A      0.176271    14A      0.181208  
      15A      0.199558    16A      0.206961    17A      0.226185  
      18A      0.248411    19A      0.270639    20A      0.317566  
      21A      0.333432    22A      0.353632    23A      0.385011  
      24A      0.395971    25A      0.439197    26A      0.531322  
      27A      0.608562    28A      0.661005    29A      0.666528  
      30A      0.703075    31A      0.724360    32A      0.726892  
      33A      0.727168    34A      0.739667    35A      0.758695  
      36A      0.779892    37A      0.780961    38A      0.799795  
      39A      0.821330    40A      0.850012    41A      0.866768  
      42A      0.880743    43A      0.916661    44A      0.923856  
      45A      0.961432    46A      0.990157    47A      0.998160  
      48A      1.017583    49A      1.023242    50A      1.045979  
      51A      1.069126    52A      1.115212    53A      1.129944  
      54A      1.167060    55A      1.240326    56A      1.246271  
      57A      1.294630    58A      1.314527    59A      1.322678  
      60A      1.397749    61A      1.401160    62A      1.477320  
      63A      1.519434    64A      1.607666    65A      1.610028  
      66A      1.612730    67A      1.684931    68A      1.733410  
      69A      1.908545    70A      1.990858    71A      2.222360  
      72A      2.303105    73A      2.309481    74A      2.448197  
      75A      2.469411    76A      2.478711    77A      2.488029  
      78A      2.568130    79A      2.601585    80A      2.713808  
      81A      2.735698    82A      2.870470    83A      2.922206  
      84A      2.942882    85A      3.002464    86A      3.022138  
      87A      3.039017    88A      3.050447    89A      3.055355  
      90A      3.055535    91A      3.055846    92A      3.097398  
      93A      3.137346    94A      3.157040    95A      3.159706  
      96A      3.161166    97A      3.189398    98A      3.206863  
      99A      3.254424   100A      3.271479   101A      3.380831  
     102A      3.383646   103A      3.423623   104A      3.457006  
     105A      3.548950   106A      3.550815   107A      3.552900  
     108A      3.576787   109A      3.714358   110A      3.730680  
     111A      3.748189   112A      3.772132   113A      3.788961  
     114A      3.825164   115A      3.990956   116A      4.026720  
     117A      4.063066   118A      4.130765   119A      4.197285  
     120A      4.211335   121A      4.301147   122A      4.315849  
     123A      4.398593   124A      4.467828   125A      4.484408  
     126A      4.502718   127A      4.651019   128A      4.947760  
     129A      5.195294   130A      5.263207   131A      5.354002  
     132A      5.472025   133A      5.513518   134A      5.586660  
     135A      5.859762   136A      6.223430   137A      6.542345  
     138A      6.754373   139A      6.969814   140A      7.172265  
     141A      7.311706   142A      7.362943   143A      7.366110  
     144A      7.409070   145A      7.522907   146A      7.794607  
     147A      8.030718   148A      8.036123   149A      8.878379  
     150A      9.989041   151A     10.122593   152A     10.122648  
     153A     10.122942   154A     10.123495   155A     10.157631  
     156A     10.165127   157A     10.177699   158A     10.177741  
     159A     10.184142   160A     10.360718   161A     10.378572  
     162A     10.380522   163A     10.429366   164A     10.841554  
     165A     11.079126   166A     12.923432   167A     12.924408  
     168A     12.925287   169A     12.935710   170A     12.995672  
     171A     13.007242   172A     13.012864   173A     13.027630  
     174A     13.053738   175A     13.094097   176A     14.256038  
     177A     14.269458   178A     14.280746   179A     14.332240  
     180A     14.663018   181A     14.715961   182A     17.431769  
     183A     69.875732   184A     70.596584  

    Final Occupation by Irrep:
              A 
    DOCC [     5 ]
    NA   [     5 ]
    NB   [     5 ]

  @DF-RHF Final Energy:   -76.06054472611960

   => Energetics <=

    Nuclear Repulsion Energy =              9.1801978479270687
    One-Electron Energy =                -123.0167455205318845
    Two-Electron Energy =                  37.7760029464852067
    Total Energy =                        -76.0605447261196019

Computation Completed


Properties will be evaluated at   0.000000,   0.000000,   0.000000 [a0]

Properties computed using the SCF density matrix


 Multipole Moments:

 ------------------------------------------------------------------------------------
     Multipole            Electronic (a.u.)      Nuclear  (a.u.)        Total (a.u.)
 ------------------------------------------------------------------------------------

 L = 1.  Multiply by 2.5417464519 to convert [e a0] to [Debye]
 Dipole X            :         -1.4422609            2.2243513            0.7820903
 Dipole Y            :          0.0000000            0.0000000            0.0000000
 Dipole Z            :          0.0000000            0.0000000            0.0000000
 Magnitude           :                                                    0.7820903

 ------------------------------------------------------------------------------------

*** tstop() called on moses-razer at Thu Jan  4 17:49:32 2024
Module time:
	user time   =       3.66 seconds =       0.06 minutes
	system time =       0.08 seconds =       0.00 minutes
	total time  =          1 seconds =       0.02 minutes
Total time:
	user time   =       8.80 seconds =       0.15 minutes
	system time =       0.26 seconds =       0.00 minutes
	total time  =          1 seconds =       0.02 minutes

  //>>>>>>>>>>>>>>>>>>>>>>>>>>>>>>>>>>>//
  //            Monomer B HF           //
  //<<<<<<<<<<<<<<<<<<<<<<<<<<<<<<<<<<<//

   => Libint2 <=

    Primary   basis highest AM E, G, H:  5, 4, 3
    Auxiliary basis highest AM E, G, H:  6, 5, 4
    Onebody   basis highest AM E, G, H:  6, 5, 4
    Solid Harmonics ordering:            gaussian

*** tstart() called on moses-razer
*** at Thu Jan  4 17:49:32 2024

   => Loading Basis Set <=

    Name: AUG-CC-PVTZ
    Role: ORBITAL
    Keyword: BASIS
    atoms 1   entry O          line   331 file /home/kchung25/anaconda3/envs/p415env/share/psi4/basis/aug-cc-pvtz.gbs 
    atoms 2-3 entry H          line    40 file /home/kchung25/anaconda3/envs/p415env/share/psi4/basis/aug-cc-pvtz.gbs 
    atoms 4-5 entry F          line   377 file /home/kchung25/anaconda3/envs/p415env/share/psi4/basis/aug-cc-pvtz.gbs 


         ---------------------------------------------------------
                                   SCF
               by Justin Turney, Rob Parrish, Andy Simmonett
                          and Daniel G. A. Smith
                              RHF Reference
                        6 Threads,  57220 MiB Core
         ---------------------------------------------------------

  ==> Geometry <==

    Molecular point group: c1
    Full point group: C2v

    Geometry (in Angstrom), charge = -2, multiplicity = 1:

       Center              X                  Y                   Z               Mass       
    ------------   -----------------  -----------------  -----------------  -----------------
      Gh(O)           0.000000000000     0.000000000000     0.000000000000    15.994914619570
      Gh(H)           0.588538000000     0.756918000000     0.000000000000     1.007825032230
      Gh(H)           0.588538000000    -0.756918000000     0.000000000000     1.007825032230
         F            1.930402000000     1.930402000000     0.000000000000    18.998403162730
         F            1.930402000000    -1.930402000000     0.000000000000    18.998403162730

  Running in c1 symmetry.

  Rotational constants: A =      0.11847  B =      0.11809  C =      0.05914 [cm^-1]
  Rotational constants: A =   3551.71745  B =   3540.35575  C =   1773.01375 [MHz]
  Nuclear repulsion =   11.102183396067245

  Charge       = -2
  Multiplicity = 1
  Electrons    = 20
  Nalpha       = 10
  Nbeta        = 10

  ==> Algorithm <==

  SCF Algorithm Type is DF.
  DIIS enabled.
  MOM disabled.
  Fractional occupation disabled.
  Guess Type is SAD.
  Energy threshold   = 1.00e-08
  Density threshold  = 1.00e-08
  Integral threshold = 1.00e-12

  ==> Primary Basis <==

  Basis Set: AUG-CC-PVTZ
    Blend: AUG-CC-PVTZ
    Number of shells: 60
    Number of basis functions: 184
    Number of Cartesian functions: 215
    Spherical Harmonics?: true
    Max angular momentum: 3

   => Loading Basis Set <=

    Name: (AUG-CC-PVTZ AUX)
    Role: JKFIT
    Keyword: DF_BASIS_SCF
    atoms 1   entry O          line   286 file /home/kchung25/anaconda3/envs/p415env/share/psi4/basis/aug-cc-pvtz-jkfit.gbs 
    atoms 2-3 entry H          line    70 file /home/kchung25/anaconda3/envs/p415env/share/psi4/basis/aug-cc-pvtz-jkfit.gbs 
    atoms 4-5 entry F          line   348 file /home/kchung25/anaconda3/envs/p415env/share/psi4/basis/aug-cc-pvtz-jkfit.gbs 

  ==> Integral Setup <==

  ==> DiskDFJK: Density-Fitted J/K Matrices <==

    J tasked:                  Yes
    K tasked:                  Yes
    wK tasked:                  No
    OpenMP threads:              6
    Integrals threads:           6
    Memory [MiB]:            42915
    Algorithm:                Core
    Integral Cache:           LOAD
    Schwarz Cutoff:          1E-12
    Fitting Condition:       1E-10

   => Auxiliary Basis Set <=

  Basis Set: (AUG-CC-PVTZ AUX)
    Blend: AUG-CC-PVTZ-JKFIT
    Number of shells: 118
    Number of basis functions: 404
    Number of Cartesian functions: 503
    Spherical Harmonics?: true
    Max angular momentum: 4

  Minimum eigenvalue in the overlap matrix is 2.5971834411E-04.
  Reciprocal condition number of the overlap matrix is 3.2967224702E-05.
    Using symmetric orthogonalization.

  ==> Pre-Iterations <==

  SCF Guess: Superposition of Atomic Densities via on-the-fly atomic UHF (no occupation information).

   -------------------------
    Irrep   Nso     Nmo    
   -------------------------
     A        184     184 
   -------------------------
    Total     184     184
   -------------------------

  ==> Iterations <==

                           Total Energy        Delta E     RMS |[F,P]|

   @DF-RHF iter SAD:  -197.65074114235014   -1.97651e+02   0.00000e+00 
   @DF-RHF iter   1:  -198.53860187572639   -8.87861e-01   4.20471e-03 DIIS/ADIIS
   @DF-RHF iter   2:  -198.60931106023733   -7.07092e-02   4.13213e-03 DIIS/ADIIS
   @DF-RHF iter   3:  -198.76780459275469   -1.58494e-01   1.29732e-04 DIIS/ADIIS
   @DF-RHF iter   4:  -198.76797774862882   -1.73156e-04   5.29167e-05 DIIS
   @DF-RHF iter   5:  -198.76800761360937   -2.98650e-05   5.20067e-06 DIIS
   @DF-RHF iter   6:  -198.76800887663396   -1.26302e-06   9.50972e-07 DIIS
   @DF-RHF iter   7:  -198.76800893394639   -5.73124e-08   2.08655e-07 DIIS
   @DF-RHF iter   8:  -198.76800893637346   -2.42707e-09   3.34017e-08 DIIS
   @DF-RHF iter   9:  -198.76800893644241   -6.89511e-11   6.38738e-09 DIIS
  Energy and wave function converged.


  ==> Post-Iterations <==

    Orbital Energies [Eh]
    ---------------------

    Doubly Occupied:                                                      

       1A    -25.703035     2A    -25.703034     3A     -0.944520  
       4A     -0.944256     5A     -0.051743     6A     -0.049924  
       7A     -0.049828     8A     -0.048720     9A     -0.048636  
      10A     -0.045533  

    Virtual:                                                              

      11A      0.278631    12A      0.295336    13A      0.393207  
      14A      0.396922    15A      0.435150    16A      0.466988  
      17A      0.512622    18A      0.515565    19A      0.569217  
      20A      0.569659    21A      0.579335    22A      0.615180  
      23A      0.674698    24A      0.682612    25A      0.686570  
      26A      0.704132    27A      0.722291    28A      0.727984  
      29A      0.763469    30A      0.819382    31A      0.829983  
      32A      0.967849    33A      1.011810    34A      1.103169  
      35A      1.158045    36A      1.190931    37A      1.197424  
      38A      1.200238    39A      1.204667    40A      1.208103  
      41A      1.241570    42A      1.269172    43A      1.283048  
      44A      1.354065    45A      1.412816    46A      1.419940  
      47A      1.421491    48A      1.461775    49A      1.471847  
      50A      1.493523    51A      1.540278    52A      1.543913  
      53A      1.557124    54A      1.565342    55A      1.572414  
      56A      1.578819    57A      1.583707    58A      1.628870  
      59A      1.692739    60A      1.728149    61A      1.743016  
      62A      1.799989    63A      1.846574    64A      1.946273  
      65A      1.947115    66A      1.988090    67A      2.123965  
      68A      2.144587    69A      2.149898    70A      2.168165  
      71A      2.184082    72A      2.243154    73A      2.255628  
      74A      2.367398    75A      2.558343    76A      2.779463  
      77A      2.858966    78A      2.905824    79A      2.929756  
      80A      2.942343    81A      2.976182    82A      2.999794  
      83A      3.085493    84A      3.183847    85A      3.186885  
      86A      3.420376    87A      3.421737    88A      3.423079  
      89A      3.429391    90A      3.441448    91A      3.457333  
      92A      3.464382    93A      3.464453    94A      3.464605  
      95A      3.486086    96A      3.489637    97A      3.491644  
      98A      3.509955    99A      3.532504   100A      3.538408  
     101A      3.573552   102A      3.577574   103A      3.588256  
     104A      3.591712   105A      3.679903   106A      3.680026  
     107A      3.756046   108A      3.845562   109A      3.861694  
     110A      3.890386   111A      3.912423   112A      3.935957  
     113A      3.971156   114A      3.984817   115A      4.074984  
     116A      4.440164   117A      4.470630   118A      4.833645  
     119A      4.961059   120A      5.056905   121A      5.061113  
     122A      5.242336   123A      5.361180   124A      5.376123  
     125A      5.386107   126A      5.442490   127A      5.740490  
     128A      5.889155   129A      5.904659   130A      5.909669  
     131A      5.918320   132A      6.064524   133A      6.102157  
     134A      6.136021   135A      6.184592   136A      6.264934  
     137A      6.474777   138A      6.720696   139A      6.876812  
     140A      7.137927   141A      7.596962   142A      8.078965  
     143A      8.255092   144A      8.431709   145A      8.677146  
     146A      8.693072   147A      9.325600   148A      9.332458  
     149A      9.407143   150A      9.407375   151A      9.407516  
     152A      9.408729   153A      9.451627   154A      9.460404  
     155A      9.460466   156A      9.461708   157A      9.621268  
     158A      9.667970   159A      9.696361   160A      9.706349  
     161A      9.783169   162A      9.783210   163A      9.905689  
     164A      9.907453   165A      9.908571   166A      9.921290  
     167A      9.993002   168A     10.012875   169A     10.015469  
     170A     10.041086   171A     10.048405   172A     10.061786  
     173A     10.096746   174A     10.236391   175A     10.519047  
     176A     10.755618   177A     11.657390   178A     12.214724  
     179A     12.372405   180A     13.333764   181A     13.670772  
     182A     14.403321   183A     14.498055   184A     68.349216  

    Final Occupation by Irrep:
              A 
    DOCC [    10 ]
    NA   [    10 ]
    NB   [    10 ]

  @DF-RHF Final Energy:  -198.76800893644241

   => Energetics <=

    Nuclear Repulsion Energy =             11.1021833960672449
    One-Electron Energy =                -312.5619240550437326
    Two-Electron Energy =                 102.6917317225340867
    Total Energy =                       -198.7680089364424134

Computation Completed


Properties will be evaluated at   0.000000,   0.000000,   0.000000 [a0]

Properties computed using the SCF density matrix


 Multipole Moments:

 ------------------------------------------------------------------------------------
     Multipole            Electronic (a.u.)      Nuclear  (a.u.)        Total (a.u.)
 ------------------------------------------------------------------------------------

 L = 1.  Multiply by 2.5417464519 to convert [e a0] to [Debye]
 Dipole X            :        -72.9708907           65.6627597           -7.3081311
 Dipole Y            :         -0.0000000            0.0000000           -0.0000000
 Dipole Z            :         -0.0000000            0.0000000           -0.0000000
 Magnitude           :                                                    7.3081311

 ------------------------------------------------------------------------------------

*** tstop() called on moses-razer at Thu Jan  4 17:49:33 2024
Module time:
	user time   =       3.45 seconds =       0.06 minutes
	system time =       0.08 seconds =       0.00 minutes
	total time  =          1 seconds =       0.02 minutes
Total time:
	user time   =      12.28 seconds =       0.20 minutes
	system time =       0.34 seconds =       0.01 minutes
	total time  =          2 seconds =       0.03 minutes
  Constructing Basis Sets for SAPT...

   => Loading Basis Set <=

    Name: (AUG-CC-PVTZ AUX)
    Role: RIFIT
    Keyword: DF_BASIS_SAPT
    atoms 1   entry O          line   264 file /home/kchung25/anaconda3/envs/p415env/share/psi4/basis/aug-cc-pvtz-ri.gbs 
    atoms 2-3 entry H          line    30 file /home/kchung25/anaconda3/envs/p415env/share/psi4/basis/aug-cc-pvtz-ri.gbs 
    atoms 4-5 entry F          line   322 file /home/kchung25/anaconda3/envs/p415env/share/psi4/basis/aug-cc-pvtz-ri.gbs 

   => Loading Basis Set <=

    Name: (AUG-CC-PVTZ AUX)
    Role: JKFIT
    Keyword: DF_BASIS_ELST
    atoms 1   entry O          line   286 file /home/kchung25/anaconda3/envs/p415env/share/psi4/basis/aug-cc-pvtz-jkfit.gbs 
    atoms 2-3 entry H          line    70 file /home/kchung25/anaconda3/envs/p415env/share/psi4/basis/aug-cc-pvtz-jkfit.gbs 
    atoms 4-5 entry F          line   348 file /home/kchung25/anaconda3/envs/p415env/share/psi4/basis/aug-cc-pvtz-jkfit.gbs 


  //>>>>>>>>>>>>>>>>>>>>>>>>>>>>>>>>>>>//
  //               SAPT2+              //
  //<<<<<<<<<<<<<<<<<<<<<<<<<<<<<<<<<<<//


*** tstart() called on moses-razer
*** at Thu Jan  4 17:49:33 2024

        SAPT2+  
    Ed Hohenstein
     6 June 2009

      Orbital Information
  --------------------------
    NSO        =       184
    NMO        =       184
    NRI        =       410
    NOCC A     =         5
    NOCC B     =        10
    FOCC A     =         0
    FOCC B     =         0
    NVIR A     =       179
    NVIR B     =       174

    Estimated memory usage: 182.0 MB

    Natural Orbital Cutoff:   1.000E-06
    Disp(T3) Truncation:            Yes
    CCD (vv|vv) Truncation:         Yes
    MBPT T2 Truncation:             Yes

    Monomer A: 101 virtual orbitals dropped
    Monomer B: 65 virtual orbitals dropped

    Elst10,r            =    -0.074714283116 [Eh]
    Exch10 (S^2)        =     0.035789295807 [Eh]
    Exch10              =     0.035982484343 [Eh]
    Ind20,r (A<-B)      =    -0.014120406244 [Eh]
    Ind20,r (B<-A)      =    -0.013311804492 [Eh]
    Ind20,r             =    -0.027432210735 [Eh]
    Exch-Ind20,r (A<-B) =     0.002573201576 [Eh]
    Exch-Ind20,r (B<-A) =     0.008165001207 [Eh]
    Exch-Ind20,r        =     0.010738202783 [Eh]
    Disp20              =    -0.011819781905 [Eh]
    Disp20 (NO)         =    -0.010080086312 [Eh]
    Exch-Disp20         =     0.002939984546 [Eh]
    Elst12,r            =     0.001954122314 [Eh]
    Exch11              =     0.000451716492 [Eh]
    Exch12              =     0.009129714934 [Eh]
    Ind22               =    -0.005355854565 [Eh]
    Disp21              =     0.000137990605 [Eh]
    Disp22 (SDQ)        =    -0.001168444873 [Eh]

    (i =   1 of  10)          1 seconds
    (i =   2 of  10)          1 seconds
    (i =   3 of  10)          1 seconds
    (i =   4 of  10)          1 seconds
    (i =   5 of  10)          2 seconds
    (i =   6 of  10)          2 seconds
    (i =   7 of  10)          2 seconds
    (i =   8 of  10)          3 seconds
    (i =   9 of  10)          3 seconds
    (i =  10 of  10)          3 seconds

    Disp220 (T)         =    -0.000870116319 [Eh]

    (i =   1 of   5)          1 seconds
    (i =   2 of   5)          2 seconds
    (i =   3 of   5)          3 seconds
    (i =   4 of   5)          5 seconds
    (i =   5 of   5)          6 seconds

    Disp202 (T)         =    -0.001248917572 [Eh]

    Disp22 (T)          =    -0.002119033891 [Eh]

    Est. Disp220 (T)    =    -0.001020287406 [Eh]
    Est. Disp202 (T)    =    -0.001464464972 [Eh]

    Est. Disp22 (T)     =    -0.002484752379 [Eh]

    SAPT Results 
  --------------------------------------------------------------------------------------------------------
    Electrostatics                -72.76016080 [mEh]     -45.65769022 [kcal/mol]    -191.03177587 [kJ/mol]
      Elst10,r                    -74.71428312 [mEh]     -46.88392048 [kcal/mol]    -196.16232330 [kJ/mol]
      Elst12,r                      1.95412231 [mEh]       1.22623027 [kcal/mol]       5.13054743 [kJ/mol]

    Exchange                       45.56391577 [mEh]      28.59178881 [kcal/mol]     119.62804437 [kJ/mol]
      Exch10                       35.98248434 [mEh]      22.57934982 [kcal/mol]      94.47199963 [kJ/mol]
      Exch10(S^2)                  35.78929581 [mEh]      22.45812218 [kcal/mol]      93.96478320 [kJ/mol]
      Exch11(S^2)                   0.45171649 [mEh]       0.28345638 [kcal/mol]       1.18598149 [kJ/mol]
      Exch12(S^2)                   9.12971493 [mEh]       5.72898261 [kcal/mol]      23.97006326 [kJ/mol]

    Induction                     -26.58718138 [mEh]     -16.68370820 [kcal/mol]     -69.80463510 [kJ/mol]
      Ind20,r                     -27.43221074 [mEh]     -17.21397212 [kcal/mol]     -72.02325936 [kJ/mol]
      Ind22                        -5.35585456 [mEh]      -3.36084948 [kcal/mol]     -14.06179422 [kJ/mol]
      Exch-Ind20,r                 10.73820278 [mEh]       6.73832398 [kcal/mol]      28.19314752 [kJ/mol]
      Exch-Ind22                    2.09652270 [mEh]       1.31558785 [kcal/mol]       5.50441958 [kJ/mol]
      delta HF,r (2)               -6.63384156 [mEh]      -4.16279843 [kcal/mol]     -17.41714862 [kJ/mol]

    Dispersion                    -12.39500401 [mEh]      -7.77798244 [kcal/mol]     -32.54307853 [kJ/mol]
      Disp20                      -11.81978190 [mEh]      -7.41702512 [kcal/mol]     -31.03283312 [kJ/mol]
      Disp21                        0.13799060 [mEh]       0.08659041 [kcal/mol]       0.36229428 [kJ/mol]
      Disp22 (SDQ)                 -1.16844487 [mEh]      -0.73321023 [kcal/mol]      -3.06775159 [kJ/mol]
      Disp22 (T)                   -2.11903389 [mEh]      -1.32971384 [kcal/mol]      -5.56352271 [kJ/mol]
      Est. Disp22 (T)              -2.48475238 [mEh]      -1.55920566 [kcal/mol]      -6.52371647 [kJ/mol]
      Exch-Disp20                   2.93998455 [mEh]       1.84486816 [kcal/mol]       7.71892836 [kJ/mol]

  Total HF                        -62.05964829 [mEh]     -38.94301724 [kcal/mol]    -162.93758412 [kJ/mol]
  Total SAPT0                     -70.93944564 [mEh]     -44.51517421 [kcal/mol]    -186.25148888 [kJ/mol]
  Total SAPT2                     -62.66322377 [mEh]     -39.32176657 [kcal/mol]    -164.52227135 [kJ/mol]
  Total SAPT2+                    -66.17843042 [mEh]     -41.52759205 [kcal/mol]    -173.75144513 [kJ/mol]

  Special recipe for scaled SAPT0 (see Manual):
    Electrostatics sSAPT0         -74.71428312 [mEh]     -46.88392048 [kcal/mol]    -196.16232330 [kJ/mol]
    Exchange sSAPT0                35.98248434 [mEh]      22.57934982 [kcal/mol]      94.47199963 [kJ/mol]
    Induction sSAPT0              -23.15301658 [mEh]     -14.52873725 [kcal/mol]     -60.78823666 [kJ/mol]
    Dispersion sSAPT0              -8.83193031 [mEh]      -5.54211994 [kcal/mol]     -23.18822982 [kJ/mol]
  Total sSAPT0                    -70.71674566 [mEh]     -44.37542786 [kcal/mol]    -185.66679015 [kJ/mol]
  --------------------------------------------------------------------------------------------------------

*** tstop() called on moses-razer at Thu Jan  4 17:49:48 2024
Module time:
	user time   =      87.06 seconds =       1.45 minutes
	system time =       2.74 seconds =       0.05 minutes
	total time  =         15 seconds =       0.25 minutes
Total time:
	user time   =      99.65 seconds =       1.66 minutes
	system time =       3.08 seconds =       0.05 minutes
	total time  =         17 seconds =       0.28 minutes

    Psi4 stopped on: Thursday, 04 January 2024 05:49PM
    Psi4 wall time for execution: 0:00:17.36

*** Psi4 exiting successfully. Buy a developer a beer!
