
    -----------------------------------------------------------------------
          Psi4: An Open-Source Ab Initio Electronic Structure Package
                               Psi4 1.9 release

                         Git: Rev {} zzzzzzz 


    D. G. A. Smith, L. A. Burns, A. C. Simmonett, R. M. Parrish,
    M. C. Schieber, R. Galvelis, P. Kraus, H. Kruse, R. Di Remigio,
    A. Alenaizan, A. M. James, S. Lehtola, J. P. Misiewicz, M. Scheurer,
    R. A. Shaw, J. B. Schriber, Y. Xie, Z. L. Glick, D. A. Sirianni,
    J. S. O'Brien, J. M. Waldrop, A. Kumar, E. G. Hohenstein,
    B. P. Pritchard, B. R. Brooks, H. F. Schaefer III, A. Yu. Sokolov,
    K. Patkowski, A. E. DePrince III, U. Bozkaya, R. A. King,
    F. A. Evangelista, J. M. Turney, T. D. Crawford, C. D. Sherrill,
    J. Chem. Phys. 152(18) 184108 (2020). https://doi.org/10.1063/5.0006002

                            Additional Code Authors
    E. T. Seidl, C. L. Janssen, E. F. Valeev, M. L. Leininger,
    J. F. Gonthier, R. M. Richard, H. R. McAlexander, M. Saitow, X. Wang,
    P. Verma, M. H. Lechner, A. Jiang, S. Behnle, A. G. Heide,
    M. F. Herbst, and D. L. Poole

             Previous Authors, Complete List of Code Contributors,
                       and Citations for Specific Modules
    https://github.com/psi4/psi4/blob/master/codemeta.json
    https://github.com/psi4/psi4/graphs/contributors
    http://psicode.org/psi4manual/master/introduction.html#citing-psifour

    -----------------------------------------------------------------------


    Psi4 started on: Thursday, 04 January 2024 06:01PM

    Process ID: 496019
    Host:       moses-razer
    PSIDATADIR: /home/kchung25/anaconda3/envs/psi4_19/share/psi4
    Memory:     500.0 MiB
    Threads:    6
    
  ==> Input File <==

--------------------------------------------------------------------------
MEMORY 60 GB

molecule dimer {
0 1
O      0.000000     0.000000     0.000000
H      0.588538     0.756918     0.000000
H      0.588538    -0.756918     0.000000
--
-2 1
Br     2.851055     2.851055     0.000000
Br     2.851055    -2.851055     0.000000

units ang
no_reorient
no_com
symmetry c1
}

set {
basis        aug-cc-pVTZ
scf_type     df
}

energy("sapt2+")
--------------------------------------------------------------------------

  Memory set to  55.879 GiB by Python driver.

Scratch directory: /scratch/
   => Loading Basis Set <=

    Name: AUG-CC-PVTZ
    Role: ORBITAL
    Keyword: BASIS
    atoms 1   entry O          line   331 file /home/kchung25/anaconda3/envs/p415env/share/psi4/basis/aug-cc-pvtz.gbs 
    atoms 2-3 entry H          line    40 file /home/kchung25/anaconda3/envs/p415env/share/psi4/basis/aug-cc-pvtz.gbs 
    atoms 4-5 entry BR         line  4564 file /home/kchung25/anaconda3/envs/p415env/share/psi4/basis/aug-cc-pvtz.gbs 

   => Loading Basis Set <=

    Name: AUG-CC-PVTZ
    Role: ORBITAL
    Keyword: BASIS
    atoms 1   entry O          line   331 file /home/kchung25/anaconda3/envs/p415env/share/psi4/basis/aug-cc-pvtz.gbs 
    atoms 2-3 entry H          line    40 file /home/kchung25/anaconda3/envs/p415env/share/psi4/basis/aug-cc-pvtz.gbs 
    atoms 4-5 entry BR         line  4564 file /home/kchung25/anaconda3/envs/p415env/share/psi4/basis/aug-cc-pvtz.gbs 


  //>>>>>>>>>>>>>>>>>>>>>>>>>>>>>>>>>>>//
  //              Dimer HF             //
  //<<<<<<<<<<<<<<<<<<<<<<<<<<<<<<<<<<<//

   => Libint2 <=

    Primary   basis highest AM E, G, H:  5, 4, 3
    Auxiliary basis highest AM E, G, H:  6, 5, 4
    Onebody   basis highest AM E, G, H:  6, 5, 4
    Solid Harmonics ordering:            gaussian

*** tstart() called on moses-razer
*** at Thu Jan  4 18:01:57 2024

   => Loading Basis Set <=

    Name: AUG-CC-PVTZ
    Role: ORBITAL
    Keyword: BASIS
    atoms 1   entry O          line   331 file /home/kchung25/anaconda3/envs/p415env/share/psi4/basis/aug-cc-pvtz.gbs 
    atoms 2-3 entry H          line    40 file /home/kchung25/anaconda3/envs/p415env/share/psi4/basis/aug-cc-pvtz.gbs 
    atoms 4-5 entry BR         line  4564 file /home/kchung25/anaconda3/envs/p415env/share/psi4/basis/aug-cc-pvtz.gbs 


         ---------------------------------------------------------
                                   SCF
               by Justin Turney, Rob Parrish, Andy Simmonett
                          and Daniel G. A. Smith
                              RHF Reference
                        6 Threads,  57220 MiB Core
         ---------------------------------------------------------

  ==> Geometry <==

    Molecular point group: c1
    Full point group: C2v

    Geometry (in Angstrom), charge = -2, multiplicity = 1:

       Center              X                  Y                   Z               Mass       
    ------------   -----------------  -----------------  -----------------  -----------------
         O            0.000000000000     0.000000000000     0.000000000000    15.994914619570
         H            0.588538000000     0.756918000000     0.000000000000     1.007825032230
         H            0.588538000000    -0.756918000000     0.000000000000     1.007825032230
         BR           2.851055000000     2.851055000000     0.000000000000    78.918337600000
         BR           2.851055000000    -2.851055000000     0.000000000000    78.918337600000

  Running in c1 symmetry.

  Rotational constants: A =      0.01313  B =      0.01313  C =      0.00656 [cm^-1]
  Rotational constants: A =    393.69673  B =    393.55674  C =    196.81336 [MHz]
  Nuclear repulsion =  217.075056297649212

  Charge       = -2
  Multiplicity = 1
  Electrons    = 82
  Nalpha       = 41
  Nbeta        = 41

  ==> Algorithm <==

  SCF Algorithm Type is DF.
  DIIS enabled.
  MOM disabled.
  Fractional occupation disabled.
  Guess Type is SAD.
  Energy threshold   = 1.00e-08
  Density threshold  = 1.00e-08
  Integral threshold = 1.00e-12

  ==> Primary Basis <==

  Basis Set: AUG-CC-PVTZ
    Blend: AUG-CC-PVTZ
    Number of shells: 70
    Number of basis functions: 210
    Number of Cartesian functions: 243
    Spherical Harmonics?: true
    Max angular momentum: 3

   => Loading Basis Set <=

    Name: (AUG-CC-PVTZ AUX)
    Role: JKFIT
    Keyword: DF_BASIS_SCF
    atoms 1   entry O          line   286 file /home/kchung25/anaconda3/envs/p415env/share/psi4/basis/aug-cc-pvtz-jkfit.gbs 
    atoms 2-3 entry H          line    70 file /home/kchung25/anaconda3/envs/p415env/share/psi4/basis/aug-cc-pvtz-jkfit.gbs 
    atoms 4-5 entry BR         line  1492 file /home/kchung25/anaconda3/envs/p415env/share/psi4/basis/aug-cc-pvtz-jkfit.gbs 

  ==> Integral Setup <==

  ==> DiskDFJK: Density-Fitted J/K Matrices <==

    J tasked:                  Yes
    K tasked:                  Yes
    wK tasked:                  No
    OpenMP threads:              6
    Integrals threads:           6
    Memory [MiB]:            42915
    Algorithm:                Core
    Integral Cache:           SAVE
    Schwarz Cutoff:          1E-12
    Fitting Condition:       1E-10

   => Auxiliary Basis Set <=

  Basis Set: (AUG-CC-PVTZ AUX)
    Blend: AUG-CC-PVTZ-JKFIT
    Number of shells: 174
    Number of basis functions: 692
    Number of Cartesian functions: 899
    Spherical Harmonics?: true
    Max angular momentum: 4

  Minimum eigenvalue in the overlap matrix is 2.9410723791E-04.
  Reciprocal condition number of the overlap matrix is 3.9219841507E-05.
    Using symmetric orthogonalization.

  ==> Pre-Iterations <==

  SCF Guess: Superposition of Atomic Densities via on-the-fly atomic UHF (no occupation information).

   -------------------------
    Irrep   Nso     Nmo    
   -------------------------
     A        210     210 
   -------------------------
    Total     210     210
   -------------------------

  ==> Iterations <==

                           Total Energy        Delta E     RMS |[F,P]|

   @DF-RHF iter SAD: -5216.33199891761797   -5.21633e+03   0.00000e+00 
   @DF-RHF iter   1: -5220.44222891110076   -4.11023e+00   7.36881e-03 ADIIS/DIIS
   @DF-RHF iter   2: -5220.90306919460090   -4.60840e-01   4.12647e-03 ADIIS/DIIS
   @DF-RHF iter   3: -5221.06196209529298   -1.58893e-01   1.57785e-04 ADIIS/DIIS
   @DF-RHF iter   4: -5221.06245220311484   -4.90108e-04   8.29044e-05 DIIS
   @DF-RHF iter   5: -5221.06255623129073   -1.04028e-04   1.36360e-05 DIIS
   @DF-RHF iter   6: -5221.06256515287350   -8.92158e-06   2.53356e-06 DIIS
   @DF-RHF iter   7: -5221.06256557428787   -4.21414e-07   6.77454e-07 DIIS
   @DF-RHF iter   8: -5221.06256560246584   -2.81780e-08   2.02121e-07 DIIS
   @DF-RHF iter   9: -5221.06256560558177   -3.11593e-09   4.06699e-08 DIIS
   @DF-RHF iter  10: -5221.06256560565907   -7.73070e-11   9.21336e-09 DIIS
  Energy and wave function converged.


  ==> Post-Iterations <==

    Orbital Energies [Eh]
    ---------------------

    Doubly Occupied:                                                      

       1A   -489.643934     2A   -489.643934     3A    -64.783981  
       4A    -64.783981     5A    -58.138472     6A    -58.138472  
       7A    -58.138458     8A    -58.138458     9A    -58.138443  
      10A    -58.138443    11A    -20.295404    12A     -9.456301  
      13A     -9.456301    14A     -7.063742    15A     -7.063742  
      16A     -7.063648    17A     -7.063648    18A     -7.063556  
      19A     -7.063556    20A     -2.805446    21A     -2.805446  
      22A     -2.805431    23A     -2.805431    24A     -2.805320  
      25A     -2.805319    26A     -2.805198    27A     -2.805198  
      28A     -2.805182    29A     -2.805181    30A     -1.082525  
      31A     -0.609938    32A     -0.609873    33A     -0.446208  
      34A     -0.320904    35A     -0.242668    36A     -0.065678  
      37A     -0.064123    38A     -0.063217    39A     -0.063064  
      40A     -0.062549    41A     -0.060398  

    Virtual:                                                              

      42A      0.244555    43A      0.251189    44A      0.313153  
      45A      0.317263    46A      0.320953    47A      0.336029  
      48A      0.341320    49A      0.351338    50A      0.379561  
      51A      0.382886    52A      0.418591    53A      0.420406  
      54A      0.439286    55A      0.442324    56A      0.511150  
      57A      0.524783    58A      0.534354    59A      0.558411  
      60A      0.561043    61A      0.564505    62A      0.574939  
      63A      0.582667    64A      0.583330    65A      0.632429  
      66A      0.650907    67A      0.652103    68A      0.656011  
      69A      0.683247    70A      0.683810    71A      0.719099  
      72A      0.777055    73A      0.800354    74A      0.826103  
      75A      0.828490    76A      0.836872    77A      0.853837  
      78A      0.897440    79A      0.901040    80A      0.972663  
      81A      0.978573    82A      0.986274    83A      1.003723  
      84A      1.019390    85A      1.052444    86A      1.080090  
      87A      1.081122    88A      1.102524    89A      1.105989  
      90A      1.106707    91A      1.109823    92A      1.121620  
      93A      1.122078    94A      1.134677    95A      1.135084  
      96A      1.147663    97A      1.152383    98A      1.159415  
      99A      1.175809   100A      1.216372   101A      1.228792  
     102A      1.228847   103A      1.248633   104A      1.259137  
     105A      1.269966   106A      1.287022   107A      1.287973  
     108A      1.288081   109A      1.288790   110A      1.296241  
     111A      1.307709   112A      1.322762   113A      1.323526  
     114A      1.323603   115A      1.361474   116A      1.386892  
     117A      1.405195   118A      1.448684   119A      1.493607  
     120A      1.540463   121A      1.541047   122A      1.587709  
     123A      1.637189   124A      1.683273   125A      1.730010  
     126A      1.817043   127A      1.865646   128A      1.881012  
     129A      2.097945   130A      2.140632   131A      2.413360  
     132A      2.476737   133A      2.486889   134A      2.491481  
     135A      2.493972   136A      2.505736   137A      2.531595  
     138A      2.556883   139A      2.569412   140A      2.589596  
     141A      2.600887   142A      2.631280   143A      2.636182  
     144A      2.643655   145A      2.646754   146A      2.650435  
     147A      2.650550   148A      2.662608   149A      2.662701  
     150A      2.663029   151A      2.663209   152A      2.664582  
     153A      2.664967   154A      2.671446   155A      2.673280  
     156A      2.673558   157A      2.684474   158A      2.700738  
     159A      2.703914   160A      2.746236   161A      2.749834  
     162A      2.758581   163A      2.768686   164A      2.793814  
     165A      2.830113   166A      2.886460   167A      2.894300  
     168A      2.900942   169A      2.938575   170A      2.996381  
     171A      3.003143   172A      3.183037   173A      3.186437  
     174A      3.196759   175A      3.970478   176A      4.047415  
     177A      4.135121   178A      4.214567   179A      4.307551  
     180A      4.422273   181A      4.464928   182A      4.569151  
     183A      4.569362   184A      4.669817   185A      4.695987  
     186A      4.704213   187A      4.871244   188A      5.084040  
     189A      5.273648   190A      5.436788   191A      5.479797  
     192A      5.613080   193A      5.646365   194A      5.804450  
     195A      5.963726   196A      6.471273   197A      6.807947  
     198A      6.988679   199A      7.202370   200A      7.410155  
     201A      7.542841   202A      7.602889   203A      7.608277  
     204A      7.621025   205A      7.665030   206A      7.987701  
     207A      8.191682   208A      8.283094   209A      9.119158  
     210A     16.643500  

    Final Occupation by Irrep:
              A 
    DOCC [    41 ]
    NA   [    41 ]
    NB   [    41 ]

  @DF-RHF Final Energy: -5221.06256560565907

   => Energetics <=

    Nuclear Repulsion Energy =            217.0750562976492120
    One-Electron Energy =               -7734.2337047553264711
    Two-Electron Energy =                2296.0960828520182986
    Total Energy =                      -5221.0625656056590742

Computation Completed


Properties will be evaluated at   0.000000,   0.000000,   0.000000 [a0]

Properties computed using the SCF density matrix


 Multipole Moments:

 ------------------------------------------------------------------------------------
     Multipole            Electronic (a.u.)      Nuclear  (a.u.)        Total (a.u.)
 ------------------------------------------------------------------------------------

 L = 1.  Multiply by 2.5417464519 to convert [e a0] to [Debye]
 Dipole X            :       -389.0141047          379.3642696           -9.6498352
 Dipole Y            :         -0.0000000            0.0000000           -0.0000000
 Dipole Z            :          0.0000000            0.0000000            0.0000000
 Magnitude           :                                                    9.6498352

 ------------------------------------------------------------------------------------

*** tstop() called on moses-razer at Thu Jan  4 18:02:03 2024
Module time:
	user time   =      15.24 seconds =       0.25 minutes
	system time =       1.40 seconds =       0.02 minutes
	total time  =          6 seconds =       0.10 minutes
Total time:
	user time   =      15.24 seconds =       0.25 minutes
	system time =       1.40 seconds =       0.02 minutes
	total time  =          6 seconds =       0.10 minutes

  //>>>>>>>>>>>>>>>>>>>>>>>>>>>>>>>>>>>//
  //            Monomer A HF           //
  //<<<<<<<<<<<<<<<<<<<<<<<<<<<<<<<<<<<//

   => Libint2 <=

    Primary   basis highest AM E, G, H:  5, 4, 3
    Auxiliary basis highest AM E, G, H:  6, 5, 4
    Onebody   basis highest AM E, G, H:  6, 5, 4
    Solid Harmonics ordering:            gaussian

*** tstart() called on moses-razer
*** at Thu Jan  4 18:02:03 2024

   => Loading Basis Set <=

    Name: AUG-CC-PVTZ
    Role: ORBITAL
    Keyword: BASIS
    atoms 1   entry O          line   331 file /home/kchung25/anaconda3/envs/p415env/share/psi4/basis/aug-cc-pvtz.gbs 
    atoms 2-3 entry H          line    40 file /home/kchung25/anaconda3/envs/p415env/share/psi4/basis/aug-cc-pvtz.gbs 
    atoms 4-5 entry BR         line  4564 file /home/kchung25/anaconda3/envs/p415env/share/psi4/basis/aug-cc-pvtz.gbs 


         ---------------------------------------------------------
                                   SCF
               by Justin Turney, Rob Parrish, Andy Simmonett
                          and Daniel G. A. Smith
                              RHF Reference
                        6 Threads,  57220 MiB Core
         ---------------------------------------------------------

  ==> Geometry <==

    Molecular point group: c1
    Full point group: C2v

    Geometry (in Angstrom), charge = 0, multiplicity = 1:

       Center              X                  Y                   Z               Mass       
    ------------   -----------------  -----------------  -----------------  -----------------
         O            0.000000000000     0.000000000000     0.000000000000    15.994914619570
         H            0.588538000000     0.756918000000     0.000000000000     1.007825032230
         H            0.588538000000    -0.756918000000     0.000000000000     1.007825032230
      Gh(BR)          2.851055000000     2.851055000000     0.000000000000    78.918337600000
      Gh(BR)          2.851055000000    -2.851055000000     0.000000000000    78.918337600000

  Running in c1 symmetry.

  Rotational constants: A =      0.01313  B =      0.01313  C =      0.00656 [cm^-1]
  Rotational constants: A =    393.69673  B =    393.55674  C =    196.81336 [MHz]
  Nuclear repulsion =    9.180197847927069

  Charge       = 0
  Multiplicity = 1
  Electrons    = 10
  Nalpha       = 5
  Nbeta        = 5

  ==> Algorithm <==

  SCF Algorithm Type is DF.
  DIIS enabled.
  MOM disabled.
  Fractional occupation disabled.
  Guess Type is SAD.
  Energy threshold   = 1.00e-08
  Density threshold  = 1.00e-08
  Integral threshold = 1.00e-12

  ==> Primary Basis <==

  Basis Set: AUG-CC-PVTZ
    Blend: AUG-CC-PVTZ
    Number of shells: 70
    Number of basis functions: 210
    Number of Cartesian functions: 243
    Spherical Harmonics?: true
    Max angular momentum: 3

   => Loading Basis Set <=

    Name: (AUG-CC-PVTZ AUX)
    Role: JKFIT
    Keyword: DF_BASIS_SCF
    atoms 1   entry O          line   286 file /home/kchung25/anaconda3/envs/p415env/share/psi4/basis/aug-cc-pvtz-jkfit.gbs 
    atoms 2-3 entry H          line    70 file /home/kchung25/anaconda3/envs/p415env/share/psi4/basis/aug-cc-pvtz-jkfit.gbs 
    atoms 4-5 entry BR         line  1492 file /home/kchung25/anaconda3/envs/p415env/share/psi4/basis/aug-cc-pvtz-jkfit.gbs 

  ==> Integral Setup <==

  ==> DiskDFJK: Density-Fitted J/K Matrices <==

    J tasked:                  Yes
    K tasked:                  Yes
    wK tasked:                  No
    OpenMP threads:              6
    Integrals threads:           6
    Memory [MiB]:            42915
    Algorithm:                Core
    Integral Cache:           LOAD
    Schwarz Cutoff:          1E-12
    Fitting Condition:       1E-10

   => Auxiliary Basis Set <=

  Basis Set: (AUG-CC-PVTZ AUX)
    Blend: AUG-CC-PVTZ-JKFIT
    Number of shells: 174
    Number of basis functions: 692
    Number of Cartesian functions: 899
    Spherical Harmonics?: true
    Max angular momentum: 4

  Minimum eigenvalue in the overlap matrix is 2.9410723791E-04.
  Reciprocal condition number of the overlap matrix is 3.9219841507E-05.
    Using symmetric orthogonalization.

  ==> Pre-Iterations <==

  SCF Guess: Superposition of Atomic Densities via on-the-fly atomic UHF (no occupation information).

   -------------------------
    Irrep   Nso     Nmo    
   -------------------------
     A        210     210 
   -------------------------
    Total     210     210
   -------------------------

  ==> Iterations <==

                           Total Energy        Delta E     RMS |[F,P]|

   @DF-RHF iter SAD:   -75.47651207259022   -7.54765e+01   0.00000e+00 
   @DF-RHF iter   1:   -75.97615500586355   -4.99643e-01   2.23135e-03 ADIIS/DIIS
   @DF-RHF iter   2:   -76.02868394197412   -5.25289e-02   1.52019e-03 ADIIS/DIIS
   @DF-RHF iter   3:   -76.06008745946150   -3.14035e-02   1.03622e-04 ADIIS/DIIS
   @DF-RHF iter   4:   -76.06047738081786   -3.89921e-04   2.46070e-05 DIIS
   @DF-RHF iter   5:   -76.06050149027558   -2.41095e-05   5.59776e-06 DIIS
   @DF-RHF iter   6:   -76.06050346426645   -1.97399e-06   1.22641e-06 DIIS
   @DF-RHF iter   7:   -76.06050356860659   -1.04340e-07   2.21517e-07 DIIS
   @DF-RHF iter   8:   -76.06050357159531   -2.98871e-09   3.68391e-08 DIIS
   @DF-RHF iter   9:   -76.06050357166052   -6.52136e-11   9.07469e-09 DIIS
  Energy and wave function converged.


  ==> Post-Iterations <==

    Orbital Energies [Eh]
    ---------------------

    Doubly Occupied:                                                      

       1A    -20.567611     2A     -1.352973     3A     -0.716505  
       4A     -0.585125     5A     -0.510296  

    Virtual:                                                              

       6A      0.024072     7A      0.038428     8A      0.061551  
       9A      0.065249    10A      0.074819    11A      0.078941  
      12A      0.083916    13A      0.097247    14A      0.108439  
      15A      0.113198    16A      0.169646    17A      0.174289  
      18A      0.194019    19A      0.200218    20A      0.239163  
      21A      0.261255    22A      0.264253    23A      0.270115  
      24A      0.284385    25A      0.304977    26A      0.305929  
      27A      0.306015    28A      0.313397    29A      0.320695  
      30A      0.321134    31A      0.327341    32A      0.329602  
      33A      0.330717    34A      0.343574    35A      0.360279  
      36A      0.368253    37A      0.412000    38A      0.413510  
      39A      0.414602    40A      0.415642    41A      0.476246  
      42A      0.481188    43A      0.516760    44A      0.558833  
      45A      0.610027    46A      0.707141    47A      0.717387  
      48A      0.735046    49A      0.761726    50A      0.763087  
      51A      0.834720    52A      0.842990    53A      0.876100  
      54A      0.884879    55A      0.902062    56A      0.908293  
      57A      0.910940    58A      0.948569    59A      0.972194  
      60A      0.981642    61A      0.982460    62A      0.988304  
      63A      0.990971    64A      0.994524    65A      1.007842  
      66A      1.022155    67A      1.024730    68A      1.030716  
      69A      1.031544    70A      1.048591    71A      1.048961  
      72A      1.049105    73A      1.049397    74A      1.058122  
      75A      1.064939    76A      1.079448    77A      1.084756  
      78A      1.101562    79A      1.105130    80A      1.113848  
      81A      1.122917    82A      1.123943    83A      1.132585  
      84A      1.137819    85A      1.163549    86A      1.174934  
      87A      1.204237    88A      1.214142    89A      1.233653  
      90A      1.263512    91A      1.274289    92A      1.296544  
      93A      1.308452    94A      1.330082    95A      1.394778  
      96A      1.461218    97A      1.514230    98A      1.554196  
      99A      1.601925   100A      1.612789   101A      1.845231  
     102A      1.870056   103A      2.243529   104A      2.282392  
     105A      2.294482   106A      2.354993   107A      2.385475  
     108A      2.436179   109A      2.494921   110A      2.519234  
     111A      2.534217   112A      2.716024   113A      2.719794  
     114A      2.784330   115A      2.853318   116A      2.853942  
     117A      2.854830   118A      2.858635   119A      2.864992  
     120A      2.902690   121A      2.920450   122A      2.928177  
     123A      2.996307   124A      3.020044   125A      3.112813  
     126A      3.112884   127A      3.113029   128A      3.113357  
     129A      3.117854   130A      3.119067   131A      3.121800  
     132A      3.123258   133A      3.164903   134A      3.195112  
     135A      3.195613   136A      3.247940   137A      3.275304  
     138A      3.275639   139A      3.286981   140A      3.291576  
     141A      3.303733   142A      3.305984   143A      3.317841  
     144A      3.344640   145A      3.353117   146A      3.377080  
     147A      3.429999   148A      3.441896   149A      3.700479  
     150A      3.790497   151A      4.028610   152A      4.151636  
     153A      4.184395   154A      4.286623   155A      4.294520  
     156A      4.392075   157A      4.416751   158A      4.418758  
     159A      4.594173   160A      4.811602   161A      4.988785  
     162A      5.161772   163A      5.192763   164A      5.340492  
     165A      5.367034   166A      5.530407   167A      5.692678  
     168A      6.199803   169A      6.540813   170A      6.721188  
     171A      6.931265   172A      7.143421   173A      7.274626  
     174A      7.333924   175A      7.337550   176A      7.352838  
     177A      7.396718   178A      7.704394   179A      7.922448  
     180A      8.006094   181A      8.844227   182A      9.351955  
     183A      9.448355   184A     13.440542   185A     13.443178  
     186A     13.447056   187A     13.452293   188A     13.532311  
     189A     13.547424   190A     16.372484   191A     26.117171  
     192A     26.118381   193A     26.128411   194A     26.131796  
     195A     26.141878   196A     26.142662   197A     26.151074  
     198A     26.179171   199A     26.232466   200A     26.234352  
     201A     45.316652   202A     45.389540   203A    138.388109  
     204A    138.392480   205A    138.398883   206A    138.406561  
     207A    138.529916   208A    138.551541   209A    708.206890  
     210A    708.412082  

    Final Occupation by Irrep:
              A 
    DOCC [     5 ]
    NA   [     5 ]
    NB   [     5 ]

  @DF-RHF Final Energy:   -76.06050357166052

   => Energetics <=

    Nuclear Repulsion Energy =              9.1801978479270687
    One-Electron Energy =                -123.0163781764880184
    Two-Electron Energy =                  37.7756767569004239
    Total Energy =                        -76.0605035716605187

Computation Completed


Properties will be evaluated at   0.000000,   0.000000,   0.000000 [a0]

Properties computed using the SCF density matrix


 Multipole Moments:

 ------------------------------------------------------------------------------------
     Multipole            Electronic (a.u.)      Nuclear  (a.u.)        Total (a.u.)
 ------------------------------------------------------------------------------------

 L = 1.  Multiply by 2.5417464519 to convert [e a0] to [Debye]
 Dipole X            :         -1.4420441            2.2243513            0.7823071
 Dipole Y            :         -0.0000000            0.0000000           -0.0000000
 Dipole Z            :         -0.0000000            0.0000000           -0.0000000
 Magnitude           :                                                    0.7823071

 ------------------------------------------------------------------------------------

*** tstop() called on moses-razer at Thu Jan  4 18:02:07 2024
Module time:
	user time   =       8.19 seconds =       0.14 minutes
	system time =       0.40 seconds =       0.01 minutes
	total time  =          4 seconds =       0.07 minutes
Total time:
	user time   =      23.46 seconds =       0.39 minutes
	system time =       1.80 seconds =       0.03 minutes
	total time  =         10 seconds =       0.17 minutes

  //>>>>>>>>>>>>>>>>>>>>>>>>>>>>>>>>>>>//
  //            Monomer B HF           //
  //<<<<<<<<<<<<<<<<<<<<<<<<<<<<<<<<<<<//

   => Libint2 <=

    Primary   basis highest AM E, G, H:  5, 4, 3
    Auxiliary basis highest AM E, G, H:  6, 5, 4
    Onebody   basis highest AM E, G, H:  6, 5, 4
    Solid Harmonics ordering:            gaussian

*** tstart() called on moses-razer
*** at Thu Jan  4 18:02:07 2024

   => Loading Basis Set <=

    Name: AUG-CC-PVTZ
    Role: ORBITAL
    Keyword: BASIS
    atoms 1   entry O          line   331 file /home/kchung25/anaconda3/envs/p415env/share/psi4/basis/aug-cc-pvtz.gbs 
    atoms 2-3 entry H          line    40 file /home/kchung25/anaconda3/envs/p415env/share/psi4/basis/aug-cc-pvtz.gbs 
    atoms 4-5 entry BR         line  4564 file /home/kchung25/anaconda3/envs/p415env/share/psi4/basis/aug-cc-pvtz.gbs 


         ---------------------------------------------------------
                                   SCF
               by Justin Turney, Rob Parrish, Andy Simmonett
                          and Daniel G. A. Smith
                              RHF Reference
                        6 Threads,  57220 MiB Core
         ---------------------------------------------------------

  ==> Geometry <==

    Molecular point group: c1
    Full point group: C2v

    Geometry (in Angstrom), charge = -2, multiplicity = 1:

       Center              X                  Y                   Z               Mass       
    ------------   -----------------  -----------------  -----------------  -----------------
      Gh(O)           0.000000000000     0.000000000000     0.000000000000    15.994914619570
      Gh(H)           0.588538000000     0.756918000000     0.000000000000     1.007825032230
      Gh(H)           0.588538000000    -0.756918000000     0.000000000000     1.007825032230
         BR           2.851055000000     2.851055000000     0.000000000000    78.918337600000
         BR           2.851055000000    -2.851055000000     0.000000000000    78.918337600000

  Running in c1 symmetry.

  Rotational constants: A =      0.01313  B =      0.01313  C =      0.00656 [cm^-1]
  Rotational constants: A =    393.69673  B =    393.55674  C =    196.81336 [MHz]
  Nuclear repulsion =  113.684597994558160

  Charge       = -2
  Multiplicity = 1
  Electrons    = 72
  Nalpha       = 36
  Nbeta        = 36

  ==> Algorithm <==

  SCF Algorithm Type is DF.
  DIIS enabled.
  MOM disabled.
  Fractional occupation disabled.
  Guess Type is SAD.
  Energy threshold   = 1.00e-08
  Density threshold  = 1.00e-08
  Integral threshold = 1.00e-12

  ==> Primary Basis <==

  Basis Set: AUG-CC-PVTZ
    Blend: AUG-CC-PVTZ
    Number of shells: 70
    Number of basis functions: 210
    Number of Cartesian functions: 243
    Spherical Harmonics?: true
    Max angular momentum: 3

   => Loading Basis Set <=

    Name: (AUG-CC-PVTZ AUX)
    Role: JKFIT
    Keyword: DF_BASIS_SCF
    atoms 1   entry O          line   286 file /home/kchung25/anaconda3/envs/p415env/share/psi4/basis/aug-cc-pvtz-jkfit.gbs 
    atoms 2-3 entry H          line    70 file /home/kchung25/anaconda3/envs/p415env/share/psi4/basis/aug-cc-pvtz-jkfit.gbs 
    atoms 4-5 entry BR         line  1492 file /home/kchung25/anaconda3/envs/p415env/share/psi4/basis/aug-cc-pvtz-jkfit.gbs 

  ==> Integral Setup <==

  ==> DiskDFJK: Density-Fitted J/K Matrices <==

    J tasked:                  Yes
    K tasked:                  Yes
    wK tasked:                  No
    OpenMP threads:              6
    Integrals threads:           6
    Memory [MiB]:            42915
    Algorithm:                Core
    Integral Cache:           LOAD
    Schwarz Cutoff:          1E-12
    Fitting Condition:       1E-10

   => Auxiliary Basis Set <=

  Basis Set: (AUG-CC-PVTZ AUX)
    Blend: AUG-CC-PVTZ-JKFIT
    Number of shells: 174
    Number of basis functions: 692
    Number of Cartesian functions: 899
    Spherical Harmonics?: true
    Max angular momentum: 4

  Minimum eigenvalue in the overlap matrix is 2.9410723791E-04.
  Reciprocal condition number of the overlap matrix is 3.9219841507E-05.
    Using symmetric orthogonalization.

  ==> Pre-Iterations <==

  SCF Guess: Superposition of Atomic Densities via on-the-fly atomic UHF (no occupation information).

   -------------------------
    Irrep   Nso     Nmo    
   -------------------------
     A        210     210 
   -------------------------
    Total     210     210
   -------------------------

  ==> Iterations <==

                           Total Energy        Delta E     RMS |[F,P]|

   @DF-RHF iter SAD: -5140.82848417313198   -5.14083e+03   0.00000e+00 
   @DF-RHF iter   1: -5144.41838645831376   -3.58990e+00   7.07484e-03 ADIIS/DIIS
   @DF-RHF iter   2: -5144.83661864601345   -4.18232e-01   3.94131e-03 ADIIS/DIIS
   @DF-RHF iter   3: -5144.97734613631656   -1.40727e-01   7.05319e-05 DIIS
   @DF-RHF iter   4: -5144.97744358076670   -9.74445e-05   9.39586e-06 DIIS
   @DF-RHF iter   5: -5144.97744802268789   -4.44192e-06   3.39773e-06 DIIS
   @DF-RHF iter   6: -5144.97744849963146   -4.76944e-07   8.63256e-07 DIIS
   @DF-RHF iter   7: -5144.97744858904207   -8.94106e-08   2.05281e-07 DIIS
   @DF-RHF iter   8: -5144.97744859247177   -3.42970e-09   5.03231e-08 DIIS
   @DF-RHF iter   9: -5144.97744859291834   -4.46562e-10   7.95212e-09 DIIS
  Energy and wave function converged.


  ==> Post-Iterations <==

    Orbital Energies [Eh]
    ---------------------

    Doubly Occupied:                                                      

       1A   -489.632267     2A   -489.632267     3A    -64.772257  
       4A    -64.772257     5A    -58.126741     6A    -58.126741  
       7A    -58.126741     8A    -58.126741     9A    -58.126717  
      10A    -58.126717    11A     -9.444531    12A     -9.444531  
      13A     -7.051907    14A     -7.051907    15A     -7.051904  
      16A     -7.051904    17A     -7.051758    18A     -7.051758  
      19A     -2.793653    20A     -2.793653    21A     -2.793651  
      22A     -2.793651    23A     -2.793476    24A     -2.793476  
      25A     -2.793472    26A     -2.793471    27A     -2.793418  
      28A     -2.793417    29A     -0.597271    30A     -0.597151  
      31A     -0.051257    32A     -0.051233    33A     -0.051104  
      34A     -0.050687    35A     -0.050675    36A     -0.047541  

    Virtual:                                                              

      37A      0.230764    38A      0.248145    39A      0.314135  
      40A      0.319411    41A      0.321712    42A      0.340801  
      43A      0.341585    44A      0.355256    45A      0.355788  
      46A      0.366397    47A      0.377547    48A      0.399384  
      49A      0.437420    50A      0.442260    51A      0.531061  
      52A      0.538624    53A      0.541051    54A      0.565246  
      55A      0.573355    56A      0.575842    57A      0.589600  
      58A      0.593369    59A      0.595953    60A      0.630466  
      61A      0.632972    62A      0.650601    63A      0.660891  
      64A      0.665988    65A      0.677337    66A      0.697845  
      67A      0.732159    68A      0.759095    69A      0.833312  
      70A      0.836009    71A      0.844728    72A      0.859135  
      73A      0.870240    74A      0.923225    75A      0.940687  
      76A      0.992685    77A      1.032543    78A      1.051229  
      79A      1.077046    80A      1.079815    81A      1.079908  
      82A      1.085936    83A      1.098116    84A      1.108987  
      85A      1.114589    86A      1.125573    87A      1.135005  
      88A      1.143959    89A      1.143995    90A      1.159654  
      91A      1.174576    92A      1.175731    93A      1.177358  
      94A      1.183804    95A      1.199748    96A      1.209148  
      97A      1.210898    98A      1.247563    99A      1.252360  
     100A      1.279241   101A      1.284502   102A      1.291044  
     103A      1.298782   104A      1.299194   105A      1.299699  
     106A      1.300870   107A      1.323803   108A      1.327778  
     109A      1.337186   110A      1.342817   111A      1.399096  
     112A      1.399104   113A      1.484400   114A      1.507631  
     115A      1.508976   116A      1.524791   117A      1.595997  
     118A      1.679698   119A      1.707959   120A      1.815792  
     121A      1.916266   122A      1.991221   123A      2.018673  
     124A      2.028621   125A      2.100303   126A      2.175518  
     127A      2.359685   128A      2.499896   129A      2.504090  
     130A      2.507712   131A      2.518497   132A      2.568067  
     133A      2.576642   134A      2.631268   135A      2.648962  
     136A      2.650118   137A      2.662198   138A      2.664942  
     139A      2.665597   140A      2.667294   141A      2.674170  
     142A      2.674454   143A      2.674625   144A      2.674747  
     145A      2.674915   146A      2.677161   147A      2.681300  
     148A      2.682678   149A      2.686975   150A      2.688079  
     151A      2.699621   152A      2.714772   153A      2.723118  
     154A      2.766352   155A      2.769939   156A      2.781866  
     157A      2.791497   158A      2.814166   159A      2.835329  
     160A      2.839727   161A      2.863687   162A      2.887708  
     163A      2.938197   164A      2.960070   165A      2.994314  
     166A      3.255005   167A      3.456845   168A      3.482708  
     169A      3.554804   170A      3.619428   171A      3.622259  
     172A      3.894185   173A      4.038151   174A      4.165851  
     175A      4.264365   176A      4.643765   177A      4.720606  
     178A      4.755796   179A      4.882161   180A      4.943058  
     181A      4.982374   182A      5.159587   183A      5.170173  
     184A      5.195733   185A      5.495344   186A      5.842740  
     187A      5.898345   188A      5.930193   189A      6.150547  
     190A      6.447589   191A      6.697267   192A      6.928266  
     193A      7.377763   194A      7.923989   195A      8.102489  
     196A      8.303791   197A      8.480751   198A      8.553416  
     199A      9.178160   200A      9.183004   201A      9.920303  
     202A     10.087856   203A     10.275082   204A     10.507096  
     205A     11.514190   206A     11.902641   207A     12.400538  
     208A     13.871051   209A     14.126952   210A     66.184685  

    Final Occupation by Irrep:
              A 
    DOCC [    36 ]
    NA   [    36 ]
    NB   [    36 ]

  @DF-RHF Final Energy: -5144.97744859291834

   => Energetics <=

    Nuclear Repulsion Energy =            113.6845979945581604
    One-Electron Energy =               -7420.9202863750606411
    Two-Electron Energy =                2162.2582397875835341
    Total Energy =                      -5144.9774485929192451

Computation Completed


Properties will be evaluated at   0.000000,   0.000000,   0.000000 [a0]

Properties computed using the SCF density matrix


 Multipole Moments:

 ------------------------------------------------------------------------------------
     Multipole            Electronic (a.u.)      Nuclear  (a.u.)        Total (a.u.)
 ------------------------------------------------------------------------------------

 L = 1.  Multiply by 2.5417464519 to convert [e a0] to [Debye]
 Dipole X            :       -387.9214262          377.1399183          -10.7815079
 Dipole Y            :         -0.0000000            0.0000000           -0.0000000
 Dipole Z            :         -0.0000000            0.0000000           -0.0000000
 Magnitude           :                                                   10.7815079

 ------------------------------------------------------------------------------------

*** tstop() called on moses-razer at Thu Jan  4 18:02:12 2024
Module time:
	user time   =      11.36 seconds =       0.19 minutes
	system time =       1.02 seconds =       0.02 minutes
	total time  =          5 seconds =       0.08 minutes
Total time:
	user time   =      34.84 seconds =       0.58 minutes
	system time =       2.82 seconds =       0.05 minutes
	total time  =         15 seconds =       0.25 minutes
  Constructing Basis Sets for SAPT...

   => Loading Basis Set <=

    Name: (AUG-CC-PVTZ AUX)
    Role: RIFIT
    Keyword: DF_BASIS_SAPT
    atoms 1   entry O          line   264 file /home/kchung25/anaconda3/envs/p415env/share/psi4/basis/aug-cc-pvtz-ri.gbs 
    atoms 2-3 entry H          line    30 file /home/kchung25/anaconda3/envs/p415env/share/psi4/basis/aug-cc-pvtz-ri.gbs 
    atoms 4-5 entry BR         line  1248 file /home/kchung25/anaconda3/envs/p415env/share/psi4/basis/aug-cc-pvtz-ri.gbs 

   => Loading Basis Set <=

    Name: (AUG-CC-PVTZ AUX)
    Role: JKFIT
    Keyword: DF_BASIS_ELST
    atoms 1   entry O          line   286 file /home/kchung25/anaconda3/envs/p415env/share/psi4/basis/aug-cc-pvtz-jkfit.gbs 
    atoms 2-3 entry H          line    70 file /home/kchung25/anaconda3/envs/p415env/share/psi4/basis/aug-cc-pvtz-jkfit.gbs 
    atoms 4-5 entry BR         line  1492 file /home/kchung25/anaconda3/envs/p415env/share/psi4/basis/aug-cc-pvtz-jkfit.gbs 


  //>>>>>>>>>>>>>>>>>>>>>>>>>>>>>>>>>>>//
  //               SAPT2+              //
  //<<<<<<<<<<<<<<<<<<<<<<<<<<<<<<<<<<<//


*** tstart() called on moses-razer
*** at Thu Jan  4 18:02:12 2024

        SAPT2+  
    Ed Hohenstein
     6 June 2009

      Orbital Information
  --------------------------
    NSO        =       210
    NMO        =       210
    NRI        =       580
    NOCC A     =         5
    NOCC B     =        36
    FOCC A     =         0
    FOCC B     =         0
    NVIR A     =       205
    NVIR B     =       174

    Estimated memory usage: 1502.1 MB

    Natural Orbital Cutoff:   1.000E-06
    Disp(T3) Truncation:            Yes
    CCD (vv|vv) Truncation:         Yes
    MBPT T2 Truncation:             Yes

    Monomer A: 127 virtual orbitals dropped
    Monomer B: 73 virtual orbitals dropped

    Elst10,r            =    -0.024596672102 [Eh]
    Exch10 (S^2)        =     0.003978902771 [Eh]
    Exch10              =     0.003980636764 [Eh]
    Ind20,r (A<-B)      =    -0.002408770607 [Eh]
    Ind20,r (B<-A)      =    -0.002834221924 [Eh]
    Ind20,r             =    -0.005242992531 [Eh]
    Exch-Ind20,r (A<-B) =     0.000170095070 [Eh]
    Exch-Ind20,r (B<-A) =     0.001824064186 [Eh]
    Exch-Ind20,r        =     0.001994159256 [Eh]
    Disp20              =    -0.003553475935 [Eh]
    Disp20 (NO)         =    -0.003133372725 [Eh]
    Exch-Disp20         =     0.000482050311 [Eh]
    Elst12,r            =     0.000964474797 [Eh]
    Exch11              =     0.000209705604 [Eh]
    Exch12              =     0.000395942199 [Eh]
    Ind22               =    -0.000540245415 [Eh]
    Disp21              =     0.000201852967 [Eh]
    Disp22 (SDQ)        =    -0.000019128726 [Eh]

    (i =   1 of  36)          1 seconds
    (i =   2 of  36)          1 seconds
    (i =   3 of  36)          1 seconds
    (i =   4 of  36)          2 seconds
    (i =   5 of  36)          2 seconds
    (i =   6 of  36)          2 seconds
    (i =   7 of  36)          3 seconds
    (i =   8 of  36)          3 seconds
    (i =   9 of  36)          3 seconds
    (i =  10 of  36)          4 seconds
    (i =  11 of  36)          4 seconds
    (i =  12 of  36)          4 seconds
    (i =  13 of  36)          5 seconds
    (i =  14 of  36)          5 seconds
    (i =  15 of  36)          5 seconds
    (i =  16 of  36)          6 seconds
    (i =  17 of  36)          6 seconds
    (i =  18 of  36)          6 seconds
    (i =  19 of  36)          6 seconds
    (i =  20 of  36)          7 seconds
    (i =  21 of  36)          7 seconds
    (i =  22 of  36)          7 seconds
    (i =  23 of  36)          8 seconds
    (i =  24 of  36)          8 seconds
    (i =  25 of  36)          8 seconds
    (i =  26 of  36)          9 seconds
    (i =  27 of  36)          9 seconds
    (i =  28 of  36)          9 seconds
    (i =  29 of  36)         10 seconds
    (i =  30 of  36)         10 seconds
    (i =  31 of  36)         10 seconds
    (i =  32 of  36)         11 seconds
    (i =  33 of  36)         11 seconds
    (i =  34 of  36)         11 seconds
    (i =  35 of  36)         12 seconds
    (i =  36 of  36)         12 seconds

    Disp220 (T)         =    -0.000348984740 [Eh]

    (i =   1 of   5)         16 seconds
    (i =   2 of   5)         33 seconds
    (i =   3 of   5)         49 seconds
    (i =   4 of   5)         65 seconds
    (i =   5 of   5)         82 seconds

    Disp202 (T)         =    -0.000253685496 [Eh]

    Disp22 (T)          =    -0.000602670236 [Eh]

    Est. Disp220 (T)    =    -0.000395774453 [Eh]
    Est. Disp202 (T)    =    -0.000287698076 [Eh]

    Est. Disp22 (T)     =    -0.000683472529 [Eh]

    SAPT Results 
  --------------------------------------------------------------------------------------------------------
    Electrostatics                -23.63219730 [mEh]     -14.82942769 [kcal/mol]     -62.04632548 [kJ/mol]
      Elst10,r                    -24.59667210 [mEh]     -15.43464477 [kcal/mol]     -64.57855371 [kJ/mol]
      Elst12,r                      0.96447480 [mEh]       0.60521707 [kcal/mol]       2.53222823 [kJ/mol]

    Exchange                        4.58628457 [mEh]       2.87793702 [kcal/mol]      12.04128847 [kJ/mol]
      Exch10                        3.98063676 [mEh]       2.49788728 [kcal/mol]      10.45116038 [kJ/mol]
      Exch10(S^2)                   3.97890277 [mEh]       2.49679918 [kcal/mol]      10.44660778 [kJ/mol]
      Exch11(S^2)                   0.20970560 [mEh]       0.13159225 [kcal/mol]       0.55058199 [kJ/mol]
      Exch12(S^2)                   0.39594220 [mEh]       0.24845748 [kcal/mol]       1.03954610 [kJ/mol]

    Induction                      -4.33217015 [mEh]      -2.71847781 [kcal/mol]     -11.37411116 [kJ/mol]
      Ind20,r                      -5.24299253 [mEh]      -3.29002748 [kcal/mol]     -13.76547499 [kJ/mol]
      Ind22                        -0.54024541 [mEh]      -0.33900912 [kcal/mol]      -1.41841414 [kJ/mol]
      Exch-Ind20,r                  1.99415926 [mEh]       1.25135383 [kcal/mol]       5.23566441 [kJ/mol]
      Exch-Ind22                    0.20548101 [mEh]       0.12894128 [kcal/mol]       0.53949031 [kJ/mol]
      delta HF,r (2)               -0.74857247 [mEh]      -0.46973632 [kcal/mol]      -1.96537674 [kJ/mol]

    Dispersion                     -3.57217391 [mEh]      -2.24157297 [kcal/mol]      -9.37874131 [kJ/mol]
      Disp20                       -3.55347593 [mEh]      -2.22983981 [kcal/mol]      -9.32964978 [kJ/mol]
      Disp21                        0.20185297 [mEh]       0.12666465 [kcal/mol]       0.52996489 [kJ/mol]
      Disp22 (SDQ)                 -0.01912873 [mEh]      -0.01200346 [kcal/mol]      -0.05022246 [kJ/mol]
      Disp22 (T)                   -0.60267024 [mEh]      -0.37818128 [kcal/mol]      -1.58231049 [kJ/mol]
      Est. Disp22 (T)              -0.68347253 [mEh]      -0.42888549 [kcal/mol]      -1.79445688 [kJ/mol]
      Exch-Disp20                   0.48205031 [mEh]       0.30249114 [kcal/mol]       1.26562292 [kJ/mol]

  Total HF                        -24.61344108 [mEh]     -15.44516746 [kcal/mol]     -64.62258065 [kJ/mol]
  Total SAPT0                     -27.68486670 [mEh]     -17.37251614 [kcal/mol]     -72.68660752 [kJ/mol]
  Total SAPT2                     -26.44950851 [mEh]     -16.59731717 [kcal/mol]     -69.44317502 [kJ/mol]
  Total SAPT2+                    -26.95025680 [mEh]     -16.91154146 [kcal/mol]     -70.75788947 [kJ/mol]

  Special recipe for scaled SAPT0 (see Manual):
    Electrostatics sSAPT0         -24.59667210 [mEh]     -15.43464477 [kcal/mol]     -64.57855371 [kJ/mol]
    Exchange sSAPT0                 3.98063676 [mEh]       2.49788728 [kcal/mol]      10.45116038 [kJ/mol]
    Induction sSAPT0               -3.99479746 [mEh]      -2.50677325 [kcal/mol]     -10.48833929 [kJ/mol]
    Dispersion sSAPT0              -3.07079512 [mEh]      -1.92695303 [kcal/mol]      -8.06237148 [kJ/mol]
  Total sSAPT0                    -27.68162792 [mEh]     -17.37048377 [kcal/mol]     -72.67810409 [kJ/mol]
  --------------------------------------------------------------------------------------------------------

*** tstop() called on moses-razer at Thu Jan  4 18:04:38 2024
Module time:
	user time   =     808.48 seconds =      13.47 minutes
	system time =      12.79 seconds =       0.21 minutes
	total time  =        146 seconds =       2.43 minutes
Total time:
	user time   =     843.62 seconds =      14.06 minutes
	system time =      15.61 seconds =       0.26 minutes
	total time  =        161 seconds =       2.68 minutes

    Psi4 stopped on: Thursday, 04 January 2024 06:04PM
    Psi4 wall time for execution: 0:02:40.32

*** Psi4 exiting successfully. Buy a developer a beer!
