
    -----------------------------------------------------------------------
          Psi4: An Open-Source Ab Initio Electronic Structure Package
                               Psi4 1.9 release

                         Git: Rev {} zzzzzzz 


    D. G. A. Smith, L. A. Burns, A. C. Simmonett, R. M. Parrish,
    M. C. Schieber, R. Galvelis, P. Kraus, H. Kruse, R. Di Remigio,
    A. Alenaizan, A. M. James, S. Lehtola, J. P. Misiewicz, M. Scheurer,
    R. A. Shaw, J. B. Schriber, Y. Xie, Z. L. Glick, D. A. Sirianni,
    J. S. O'Brien, J. M. Waldrop, A. Kumar, E. G. Hohenstein,
    B. P. Pritchard, B. R. Brooks, H. F. Schaefer III, A. Yu. Sokolov,
    K. Patkowski, A. E. DePrince III, U. Bozkaya, R. A. King,
    F. A. Evangelista, J. M. Turney, T. D. Crawford, C. D. Sherrill,
    J. Chem. Phys. 152(18) 184108 (2020). https://doi.org/10.1063/5.0006002

                            Additional Code Authors
    E. T. Seidl, C. L. Janssen, E. F. Valeev, M. L. Leininger,
    J. F. Gonthier, R. M. Richard, H. R. McAlexander, M. Saitow, X. Wang,
    P. Verma, M. H. Lechner, A. Jiang, S. Behnle, A. G. Heide,
    M. F. Herbst, and D. L. Poole

             Previous Authors, Complete List of Code Contributors,
                       and Citations for Specific Modules
    https://github.com/psi4/psi4/blob/master/codemeta.json
    https://github.com/psi4/psi4/graphs/contributors
    http://psicode.org/psi4manual/master/introduction.html#citing-psifour

    -----------------------------------------------------------------------


    Psi4 started on: Sunday, 07 January 2024 07:13AM

    Process ID: 570583
    Host:       moses-razer
    PSIDATADIR: /home/kchung25/anaconda3/envs/psi4_19/share/psi4
    Memory:     500.0 MiB
    Threads:    6
    
  ==> Input File <==

--------------------------------------------------------------------------
MEMORY 60 GB

molecule dimer {
1 1
Li     0.000000     0.000000     0.000000
--
0 1
O      1.852804     0.610325     0.422366
H      2.273260     1.457225     0.600686
H      2.485926     0.051439    -0.025591
O     -1.159180     1.378186     0.408450
H     -1.049995     1.647269     1.320449
H     -1.096509     2.226849    -0.094508
O     -0.329423    -1.475069     1.145804
H     -0.434844    -2.362818     0.770701
H     -1.017858    -1.314900     1.802054
O      0.503397    -1.152424    -1.784085
H      0.322310    -0.760718    -2.631013
H      1.362436    -1.632825    -1.984484

units ang
no_reorient
no_com
symmetry c1
}

set {
basis        aug-cc-pVTZ
scf_type     df
}

energy("sapt2+")
--------------------------------------------------------------------------

  Memory set to  55.879 GiB by Python driver.

Scratch directory: /scratch/
   => Loading Basis Set <=

    Name: AUG-CC-PVTZ
    Role: ORBITAL
    Keyword: BASIS
    atoms 1                     entry LI         line    85 file /home/kchung25/anaconda3/envs/p415env/share/psi4/basis/aug-cc-pvtz.gbs 
    atoms 2, 5, 8, 11           entry O          line   331 file /home/kchung25/anaconda3/envs/p415env/share/psi4/basis/aug-cc-pvtz.gbs 
    atoms 3-4, 6-7, 9-10, 12-13 entry H          line    40 file /home/kchung25/anaconda3/envs/p415env/share/psi4/basis/aug-cc-pvtz.gbs 

   => Loading Basis Set <=

    Name: AUG-CC-PVTZ
    Role: ORBITAL
    Keyword: BASIS
    atoms 1                     entry LI         line    85 file /home/kchung25/anaconda3/envs/p415env/share/psi4/basis/aug-cc-pvtz.gbs 
    atoms 2, 5, 8, 11           entry O          line   331 file /home/kchung25/anaconda3/envs/p415env/share/psi4/basis/aug-cc-pvtz.gbs 
    atoms 3-4, 6-7, 9-10, 12-13 entry H          line    40 file /home/kchung25/anaconda3/envs/p415env/share/psi4/basis/aug-cc-pvtz.gbs 


  //>>>>>>>>>>>>>>>>>>>>>>>>>>>>>>>>>>>//
  //              Dimer HF             //
  //<<<<<<<<<<<<<<<<<<<<<<<<<<<<<<<<<<<//

   => Libint2 <=

    Primary   basis highest AM E, G, H:  5, 4, 3
    Auxiliary basis highest AM E, G, H:  6, 5, 4
    Onebody   basis highest AM E, G, H:  6, 5, 4
    Solid Harmonics ordering:            gaussian

*** tstart() called on moses-razer
*** at Sun Jan  7 07:13:52 2024

   => Loading Basis Set <=

    Name: AUG-CC-PVTZ
    Role: ORBITAL
    Keyword: BASIS
    atoms 1                     entry LI         line    85 file /home/kchung25/anaconda3/envs/p415env/share/psi4/basis/aug-cc-pvtz.gbs 
    atoms 2, 5, 8, 11           entry O          line   331 file /home/kchung25/anaconda3/envs/p415env/share/psi4/basis/aug-cc-pvtz.gbs 
    atoms 3-4, 6-7, 9-10, 12-13 entry H          line    40 file /home/kchung25/anaconda3/envs/p415env/share/psi4/basis/aug-cc-pvtz.gbs 


         ---------------------------------------------------------
                                   SCF
               by Justin Turney, Rob Parrish, Andy Simmonett
                          and Daniel G. A. Smith
                              RHF Reference
                        6 Threads,  57220 MiB Core
         ---------------------------------------------------------

  ==> Geometry <==

    Molecular point group: c1
    Full point group: C1

    Geometry (in Angstrom), charge = 1, multiplicity = 1:

       Center              X                  Y                   Z               Mass       
    ------------   -----------------  -----------------  -----------------  -----------------
         LI           0.000000000000     0.000000000000     0.000000000000     7.016003436600
         O            1.852804000000     0.610325000000     0.422366000000    15.994914619570
         H            2.273260000000     1.457225000000     0.600686000000     1.007825032230
         H            2.485926000000     0.051439000000    -0.025591000000     1.007825032230
         O           -1.159180000000     1.378186000000     0.408450000000    15.994914619570
         H           -1.049995000000     1.647269000000     1.320449000000     1.007825032230
         H           -1.096509000000     2.226849000000    -0.094508000000     1.007825032230
         O           -0.329423000000    -1.475069000000     1.145804000000    15.994914619570
         H           -0.434844000000    -2.362818000000     0.770701000000     1.007825032230
         H           -1.017858000000    -1.314900000000     1.802054000000     1.007825032230
         O            0.503397000000    -1.152424000000    -1.784085000000    15.994914619570
         H            0.322310000000    -0.760718000000    -2.631013000000     1.007825032230
         H            1.362436000000    -1.632825000000    -1.984484000000     1.007825032230

  Running in c1 symmetry.

  Rotational constants: A =      0.10069  B =      0.07998  C =      0.07183 [cm^-1]
  Rotational constants: A =   3018.67160  B =   2397.79705  C =   2153.40812 [MHz]
  Nuclear repulsion =  162.002893777711108

  Charge       = 1
  Multiplicity = 1
  Electrons    = 42
  Nalpha       = 21
  Nbeta        = 21

  ==> Algorithm <==

  SCF Algorithm Type is DF.
  DIIS enabled.
  MOM disabled.
  Fractional occupation disabled.
  Guess Type is SAD.
  Energy threshold   = 1.00e-08
  Density threshold  = 1.00e-08
  Integral threshold = 1.00e-12

  ==> Primary Basis <==

  Basis Set: AUG-CC-PVTZ
    Blend: AUG-CC-PVTZ
    Number of shells: 142
    Number of basis functions: 414
    Number of Cartesian functions: 475
    Spherical Harmonics?: true
    Max angular momentum: 3

   => Loading Basis Set <=

    Name: (AUG-CC-PVTZ AUX)
    Role: JKFIT
    Keyword: DF_BASIS_SCF
    atoms 1                     entry LI         line    54 file /home/kchung25/anaconda3/envs/p415env/share/psi4/basis/def2-universal-jkfit.gbs 
    atoms 2, 5, 8, 11           entry O          line   286 file /home/kchung25/anaconda3/envs/p415env/share/psi4/basis/aug-cc-pvtz-jkfit.gbs 
    atoms 3-4, 6-7, 9-10, 12-13 entry H          line    70 file /home/kchung25/anaconda3/envs/p415env/share/psi4/basis/aug-cc-pvtz-jkfit.gbs 

  ==> Integral Setup <==

  ==> DiskDFJK: Density-Fitted J/K Matrices <==

    J tasked:                  Yes
    K tasked:                  Yes
    wK tasked:                  No
    OpenMP threads:              6
    Integrals threads:           6
    Memory [MiB]:            42915
    Algorithm:                Core
    Integral Cache:           SAVE
    Schwarz Cutoff:          1E-12
    Fitting Condition:       1E-10

   => Auxiliary Basis Set <=

  Basis Set: (AUG-CC-PVTZ AUX)
    Blend: AUG-CC-PVTZ-JKFIT + DEF2-UNIVERSAL-JKFIT
    Number of shells: 249
    Number of basis functions: 835
    Number of Cartesian functions: 1024
    Spherical Harmonics?: true
    Max angular momentum: 4

  Minimum eigenvalue in the overlap matrix is 1.9895805387E-05.
  Reciprocal condition number of the overlap matrix is 1.4013696394E-06.
    Using symmetric orthogonalization.

  ==> Pre-Iterations <==

  SCF Guess: Superposition of Atomic Densities via on-the-fly atomic UHF (no occupation information).

   -------------------------
    Irrep   Nso     Nmo    
   -------------------------
     A        414     414 
   -------------------------
    Total     414     414
   -------------------------

  ==> Iterations <==

                           Total Energy        Delta E     RMS |[F,P]|

   @DF-RHF iter SAD:  -309.56533888142656   -3.09565e+02   0.00000e+00 
   @DF-RHF iter   1:  -311.27606913210411   -1.71073e+00   2.30166e-03 DIIS/ADIIS
   @DF-RHF iter   2:  -311.50261354395991   -2.26544e-01   1.50155e-03 DIIS/ADIIS
   @DF-RHF iter   3:  -311.62180621427314   -1.19193e-01   1.12844e-04 DIIS/ADIIS
   @DF-RHF iter   4:  -311.62349703713909   -1.69082e-03   2.87471e-05 DIIS
   @DF-RHF iter   5:  -311.62360735772756   -1.10321e-04   8.14425e-06 DIIS
   @DF-RHF iter   6:  -311.62361691083800   -9.55311e-06   3.55073e-06 DIIS
   @DF-RHF iter   7:  -311.62361815765337   -1.24682e-06   6.82722e-07 DIIS
   @DF-RHF iter   8:  -311.62361825448909   -9.68357e-08   1.19860e-07 DIIS
   @DF-RHF iter   9:  -311.62361825727942   -2.79033e-09   2.28352e-08 DIIS
   @DF-RHF iter  10:  -311.62361825736946   -9.00400e-11   6.59673e-09 DIIS
  Energy and wave function converged.


  ==> Post-Iterations <==

    Orbital Energies [Eh]
    ---------------------

    Doubly Occupied:                                                      

       1A    -20.758506     2A    -20.746954     3A    -20.741059  
       4A    -20.738863     5A     -2.532167     6A     -1.543603  
       7A     -1.530701     8A     -1.525568     9A     -1.523521  
      10A     -0.904514    11A     -0.902264    12A     -0.896068  
      13A     -0.875399    14A     -0.796979    15A     -0.786679  
      16A     -0.775558    17A     -0.762488    18A     -0.711500  
      19A     -0.698245    20A     -0.691043    21A     -0.682418  

    Virtual:                                                              

      22A     -0.100077    23A     -0.080095    24A     -0.073800  
      25A     -0.070315    26A     -0.048223    27A     -0.044415  
      28A     -0.042990    29A     -0.040684    30A     -0.038630  
      31A     -0.032966    32A     -0.030854    33A     -0.026934  
      34A     -0.020879    35A     -0.014641    36A     -0.002337  
      37A      0.007751    38A      0.024079    39A      0.028190  
      40A      0.032118    41A      0.040482    42A      0.041885  
      43A      0.048639    44A      0.052609    45A      0.054593  
      46A      0.059908    47A      0.064437    48A      0.066699  
      49A      0.074460    50A      0.076859    51A      0.087838  
      52A      0.089301    53A      0.097414    54A      0.113131  
      55A      0.117256    56A      0.127307    57A      0.130327  
      58A      0.140681    59A      0.142452    60A      0.156507  
      61A      0.166382    62A      0.175267    63A      0.193087  
      64A      0.201959    65A      0.205598    66A      0.207259  
      67A      0.214488    68A      0.223063    69A      0.225943  
      70A      0.236241    71A      0.241315    72A      0.252501  
      73A      0.256931    74A      0.267556    75A      0.268965  
      76A      0.271659    77A      0.280960    78A      0.287025  
      79A      0.288198    80A      0.295166    81A      0.300691  
      82A      0.307812    83A      0.308719    84A      0.312927  
      85A      0.319943    86A      0.325456    87A      0.326440  
      88A      0.334334    89A      0.340489    90A      0.346110  
      91A      0.346705    92A      0.359064    93A      0.362746  
      94A      0.368605    95A      0.374100    96A      0.378048  
      97A      0.381715    98A      0.387582    99A      0.395972  
     100A      0.409489   101A      0.413573   102A      0.428582  
     103A      0.433382   104A      0.447234   105A      0.473324  
     106A      0.495775   107A      0.515895   108A      0.517963  
     109A      0.545352   110A      0.572095   111A      0.579801  
     112A      0.589648   113A      0.597989   114A      0.608153  
     115A      0.618340   116A      0.621203   117A      0.628538  
     118A      0.636863   119A      0.650359   120A      0.664893  
     121A      0.669863   122A      0.680390   123A      0.696534  
     124A      0.701257   125A      0.708391   126A      0.726826  
     127A      0.733988   128A      0.741326   129A      0.749948  
     130A      0.761352   131A      0.767864   132A      0.774688  
     133A      0.788340   134A      0.791585   135A      0.801124  
     136A      0.806375   137A      0.820149   138A      0.822434  
     139A      0.834393   140A      0.837617   141A      0.841496  
     142A      0.846848   143A      0.856570   144A      0.866145  
     145A      0.883823   146A      0.887553   147A      0.891582  
     148A      0.898419   149A      0.907364   150A      0.912940  
     151A      0.918273   152A      0.928513   153A      0.946478  
     154A      0.953941   155A      0.962714   156A      0.968298  
     157A      0.978720   158A      0.985239   159A      0.993421  
     160A      0.997657   161A      1.013689   162A      1.018108  
     163A      1.020029   164A      1.030508   165A      1.054185  
     166A      1.059611   167A      1.075857   168A      1.079323  
     169A      1.097219   170A      1.099154   171A      1.104070  
     172A      1.111149   173A      1.123615   174A      1.130487  
     175A      1.143377   176A      1.153047   177A      1.161907  
     178A      1.176341   179A      1.182694   180A      1.190341  
     181A      1.208228   182A      1.230734   183A      1.250149  
     184A      1.271371   185A      1.276244   186A      1.292918  
     187A      1.306846   188A      1.325890   189A      1.346424  
     190A      1.363766   191A      1.378994   192A      1.406214  
     193A      1.434135   194A      1.437256   195A      1.449719  
     196A      1.473157   197A      1.495404   198A      1.506833  
     199A      1.536608   200A      1.553284   201A      1.569823  
     202A      1.579119   203A      1.590726   204A      1.615981  
     205A      1.634336   206A      1.637155   207A      1.663009  
     208A      1.669203   209A      1.693883   210A      1.709399  
     211A      1.719101   212A      1.722876   213A      1.735829  
     214A      1.744504   215A      1.757324   216A      1.811936  
     217A      1.828257   218A      1.848246   219A      1.866045  
     220A      1.877909   221A      1.904548   222A      1.931676  
     223A      1.946955   224A      1.964902   225A      1.991783  
     226A      2.009313   227A      2.044932   228A      2.064663  
     229A      2.105147   230A      2.188090   231A      2.198055  
     232A      2.207911   233A      2.242624   234A      2.249666  
     235A      2.256999   236A      2.267482   237A      2.277197  
     238A      2.320542   239A      2.329934   240A      2.364727  
     241A      2.380184   242A      2.395286   243A      2.404483  
     244A      2.418360   245A      2.428625   246A      2.463354  
     247A      2.474574   248A      2.485911   249A      2.509190  
     250A      2.529247   251A      2.549201   252A      2.571793  
     253A      2.588055   254A      2.599152   255A      2.607947  
     256A      2.614990   257A      2.618054   258A      2.628505  
     259A      2.666851   260A      2.669612   261A      2.678426  
     262A      2.698154   263A      2.710827   264A      2.720975  
     265A      2.747954   266A      2.776127   267A      2.783060  
     268A      2.790275   269A      2.810689   270A      2.817850  
     271A      2.837469   272A      2.878245   273A      2.896320  
     274A      2.934823   275A      2.941351   276A      2.996364  
     277A      3.019311   278A      3.606901   279A      3.642571  
     280A      3.675719   281A      3.708403   282A      3.715221  
     283A      3.770160   284A      3.806390   285A      3.824029  
     286A      3.936522   287A      3.955415   288A      3.961311  
     289A      3.983304   290A      4.042721   291A      4.049701  
     292A      4.091066   293A      4.107542   294A      4.112613  
     295A      4.137188   296A      4.150607   297A      4.180470  
     298A      4.183170   299A      4.193503   300A      4.211235  
     301A      4.214353   302A      4.248654   303A      4.305459  
     304A      4.335451   305A      4.343816   306A      4.354650  
     307A      4.365840   308A      4.372513   309A      4.398184  
     310A      4.405659   311A      4.424445   312A      4.432861  
     313A      4.451877   314A      4.457494   315A      4.469620  
     316A      4.473946   317A      4.503636   318A      4.510559  
     319A      4.521321   320A      4.531560   321A      4.574443  
     322A      4.639263   323A      4.662683   324A      4.680811  
     325A      4.688967   326A      4.725962   327A      4.743951  
     328A      4.754263   329A      4.779545   330A      4.882535  
     331A      4.978498   332A      4.994260   333A      5.003603  
     334A      5.009697   335A      5.029072   336A      5.046437  
     337A      5.072210   338A      5.085660   339A      5.145017  
     340A      5.155820   341A      5.204360   342A      5.214337  
     343A      5.228781   344A      5.256147   345A      5.316157  
     346A      5.338183   347A      5.382406   348A      5.403640  
     349A      5.435333   350A      5.455336   351A      5.638975  
     352A      5.671627   353A      5.757884   354A      5.802593  
     355A      6.119405   356A      6.132491   357A      6.210460  
     358A      6.233559   359A      6.450857   360A      6.464556  
     361A      6.485629   362A      6.524302   363A      6.629660  
     364A      6.659740   365A      6.681867   366A      6.699231  
     367A      6.742209   368A      6.793822   369A      6.832175  
     370A      6.857632   371A      6.975922   372A      7.009850  
     373A      7.036693   374A      7.046758   375A      7.079432  
     376A      7.128713   377A      7.144848   378A      7.146824  
     379A      7.159570   380A      7.181994   381A      7.198448  
     382A      7.210888   383A      7.218254   384A      7.224898  
     385A      7.232436   386A      7.243546   387A      7.250189  
     388A      7.255881   389A      7.279699   390A      7.295106  
     391A      7.312187   392A      7.337422   393A      7.362323  
     394A      7.374945   395A      7.438044   396A      7.492971  
     397A      7.543687   398A      7.620059   399A      7.683541  
     400A      7.710338   401A      7.764196   402A      7.795413  
     403A      7.815698   404A      7.828063   405A      7.834250  
     406A      7.910908   407A      8.628936   408A      8.682070  
     409A      8.707440   410A      8.734955   411A     15.521186  
     412A     15.797516   413A     15.879362   414A     16.044593  

    Final Occupation by Irrep:
              A 
    DOCC [    21 ]
    NA   [    21 ]
    NB   [    21 ]

  @DF-RHF Final Energy:  -311.62361825736946

   => Energetics <=

    Nuclear Repulsion Energy =            162.0028937777111082
    One-Electron Energy =                -745.0048217272678812
    Two-Electron Energy =                 271.3783096921873721
    Total Energy =                       -311.6236182573694578

Computation Completed


Properties will be evaluated at   0.000000,   0.000000,   0.000000 [a0]

Properties computed using the SCF density matrix


 Multipole Moments:

 ------------------------------------------------------------------------------------
     Multipole            Electronic (a.u.)      Nuclear  (a.u.)        Total (a.u.)
 ------------------------------------------------------------------------------------

 L = 1.  Multiply by 2.5417464519 to convert [e a0] to [Debye]
 Dipole X            :        -17.6671065           18.4919339            0.8248274
 Dipole Y            :         11.3094843          -10.9610446            0.3484397
 Dipole Z            :         -2.8182734            2.4539492           -0.3643242
 Magnitude           :                                                    0.9666864

 ------------------------------------------------------------------------------------

*** tstop() called on moses-razer at Sun Jan  7 07:13:58 2024
Module time:
	user time   =      34.53 seconds =       0.58 minutes
	system time =       1.44 seconds =       0.02 minutes
	total time  =          6 seconds =       0.10 minutes
Total time:
	user time   =      34.53 seconds =       0.58 minutes
	system time =       1.44 seconds =       0.02 minutes
	total time  =          6 seconds =       0.10 minutes

  //>>>>>>>>>>>>>>>>>>>>>>>>>>>>>>>>>>>//
  //            Monomer A HF           //
  //<<<<<<<<<<<<<<<<<<<<<<<<<<<<<<<<<<<//

   => Libint2 <=

    Primary   basis highest AM E, G, H:  5, 4, 3
    Auxiliary basis highest AM E, G, H:  6, 5, 4
    Onebody   basis highest AM E, G, H:  6, 5, 4
    Solid Harmonics ordering:            gaussian

*** tstart() called on moses-razer
*** at Sun Jan  7 07:13:58 2024

   => Loading Basis Set <=

    Name: AUG-CC-PVTZ
    Role: ORBITAL
    Keyword: BASIS
    atoms 1                     entry LI         line    85 file /home/kchung25/anaconda3/envs/p415env/share/psi4/basis/aug-cc-pvtz.gbs 
    atoms 2, 5, 8, 11           entry O          line   331 file /home/kchung25/anaconda3/envs/p415env/share/psi4/basis/aug-cc-pvtz.gbs 
    atoms 3-4, 6-7, 9-10, 12-13 entry H          line    40 file /home/kchung25/anaconda3/envs/p415env/share/psi4/basis/aug-cc-pvtz.gbs 


         ---------------------------------------------------------
                                   SCF
               by Justin Turney, Rob Parrish, Andy Simmonett
                          and Daniel G. A. Smith
                              RHF Reference
                        6 Threads,  57220 MiB Core
         ---------------------------------------------------------

  ==> Geometry <==

    Molecular point group: c1
    Full point group: C1

    Geometry (in Angstrom), charge = 1, multiplicity = 1:

       Center              X                  Y                   Z               Mass       
    ------------   -----------------  -----------------  -----------------  -----------------
         LI           0.000000000000     0.000000000000     0.000000000000     7.016003436600
      Gh(O)           1.852804000000     0.610325000000     0.422366000000    15.994914619570
      Gh(H)           2.273260000000     1.457225000000     0.600686000000     1.007825032230
      Gh(H)           2.485926000000     0.051439000000    -0.025591000000     1.007825032230
      Gh(O)          -1.159180000000     1.378186000000     0.408450000000    15.994914619570
      Gh(H)          -1.049995000000     1.647269000000     1.320449000000     1.007825032230
      Gh(H)          -1.096509000000     2.226849000000    -0.094508000000     1.007825032230
      Gh(O)          -0.329423000000    -1.475069000000     1.145804000000    15.994914619570
      Gh(H)          -0.434844000000    -2.362818000000     0.770701000000     1.007825032230
      Gh(H)          -1.017858000000    -1.314900000000     1.802054000000     1.007825032230
      Gh(O)           0.503397000000    -1.152424000000    -1.784085000000    15.994914619570
      Gh(H)           0.322310000000    -0.760718000000    -2.631013000000     1.007825032230
      Gh(H)           1.362436000000    -1.632825000000    -1.984484000000     1.007825032230

  Running in c1 symmetry.

  Rotational constants: A =      0.10069  B =      0.07998  C =      0.07183 [cm^-1]
  Rotational constants: A =   3018.67160  B =   2397.79705  C =   2153.40812 [MHz]
  Nuclear repulsion =    0.000000000000000

  Charge       = 1
  Multiplicity = 1
  Electrons    = 2
  Nalpha       = 1
  Nbeta        = 1

  ==> Algorithm <==

  SCF Algorithm Type is DF.
  DIIS enabled.
  MOM disabled.
  Fractional occupation disabled.
  Guess Type is SAD.
  Energy threshold   = 1.00e-08
  Density threshold  = 1.00e-08
  Integral threshold = 1.00e-12

  ==> Primary Basis <==

  Basis Set: AUG-CC-PVTZ
    Blend: AUG-CC-PVTZ
    Number of shells: 142
    Number of basis functions: 414
    Number of Cartesian functions: 475
    Spherical Harmonics?: true
    Max angular momentum: 3

   => Loading Basis Set <=

    Name: (AUG-CC-PVTZ AUX)
    Role: JKFIT
    Keyword: DF_BASIS_SCF
    atoms 1                     entry LI         line    54 file /home/kchung25/anaconda3/envs/p415env/share/psi4/basis/def2-universal-jkfit.gbs 
    atoms 2, 5, 8, 11           entry O          line   286 file /home/kchung25/anaconda3/envs/p415env/share/psi4/basis/aug-cc-pvtz-jkfit.gbs 
    atoms 3-4, 6-7, 9-10, 12-13 entry H          line    70 file /home/kchung25/anaconda3/envs/p415env/share/psi4/basis/aug-cc-pvtz-jkfit.gbs 

  ==> Integral Setup <==

  ==> DiskDFJK: Density-Fitted J/K Matrices <==

    J tasked:                  Yes
    K tasked:                  Yes
    wK tasked:                  No
    OpenMP threads:              6
    Integrals threads:           6
    Memory [MiB]:            42915
    Algorithm:                Core
    Integral Cache:           LOAD
    Schwarz Cutoff:          1E-12
    Fitting Condition:       1E-10

   => Auxiliary Basis Set <=

  Basis Set: (AUG-CC-PVTZ AUX)
    Blend: AUG-CC-PVTZ-JKFIT + DEF2-UNIVERSAL-JKFIT
    Number of shells: 249
    Number of basis functions: 835
    Number of Cartesian functions: 1024
    Spherical Harmonics?: true
    Max angular momentum: 4

  Minimum eigenvalue in the overlap matrix is 1.9895805387E-05.
  Reciprocal condition number of the overlap matrix is 1.4013696394E-06.
    Using symmetric orthogonalization.

  ==> Pre-Iterations <==

  SCF Guess: Superposition of Atomic Densities via on-the-fly atomic UHF (no occupation information).

   -------------------------
    Irrep   Nso     Nmo    
   -------------------------
     A        414     414 
   -------------------------
    Total     414     414
   -------------------------

  ==> Iterations <==

                           Total Energy        Delta E     RMS |[F,P]|

   @DF-RHF iter SAD:    -7.31416422384788   -7.31416e+00   0.00000e+00 
   @DF-RHF iter   1:    -7.23638288200228    7.77813e-02   5.48707e-06 DIIS
   @DF-RHF iter   2:    -7.23638480355955   -1.92156e-06   6.68938e-07 DIIS
   @DF-RHF iter   3:    -7.23638483500091   -3.14414e-08   3.45944e-08 DIIS
   @DF-RHF iter   4:    -7.23638483506245   -6.15392e-11   2.34476e-10 DIIS
  Energy and wave function converged.


  ==> Post-Iterations <==

    Orbital Energies [Eh]
    ---------------------

    Doubly Occupied:                                                      

       1A     -2.792353  

    Virtual:                                                              

       2A     -0.196302     3A     -0.128603     4A     -0.128601  
       5A     -0.128599     6A     -0.073770     7A     -0.056394  
       8A     -0.056392     9A     -0.056389    10A     -0.051394  
      11A     -0.051093    12A     -0.050616    13A     -0.047689  
      14A     -0.045819    15A     -0.025939    16A     -0.012072  
      17A     -0.009538    18A     -0.008617    19A     -0.008319  
      20A      0.001302    21A      0.007588    22A      0.010044  
      23A      0.013811    24A      0.017950    25A      0.020319  
      26A      0.022326    27A      0.034582    28A      0.042937  
      29A      0.049095    30A      0.051065    31A      0.061417  
      32A      0.067490    33A      0.082063    34A      0.090004  
      35A      0.092948    36A      0.096370    37A      0.100961  
      38A      0.119622    39A      0.138460    40A      0.139325  
      41A      0.143661    42A      0.149915    43A      0.158586  
      44A      0.160408    45A      0.165864    46A      0.170412  
      47A      0.175747    48A      0.180668    49A      0.192914  
      50A      0.196216    51A      0.200568    52A      0.218720  
      53A      0.219298    54A      0.223562    55A      0.227380  
      56A      0.229513    57A      0.247480    58A      0.252170  
      59A      0.255102    60A      0.258562    61A      0.264083  
      62A      0.272668    63A      0.277530    64A      0.279049  
      65A      0.290023    66A      0.296626    67A      0.302553  
      68A      0.306679    69A      0.309697    70A      0.311690  
      71A      0.318753    72A      0.328154    73A      0.338673  
      74A      0.348229    75A      0.354704    76A      0.359403  
      77A      0.368870    78A      0.371474    79A      0.375694  
      80A      0.382092    81A      0.386797    82A      0.393485  
      83A      0.400492    84A      0.422289    85A      0.435805  
      86A      0.447033    87A      0.454147    88A      0.475321  
      89A      0.497518    90A      0.519613    91A      0.540151  
      92A      0.550231    93A      0.563905    94A      0.569725  
      95A      0.573810    96A      0.598062    97A      0.604040  
      98A      0.606233    99A      0.620408   100A      0.632272  
     101A      0.637062   102A      0.644733   103A      0.650880  
     104A      0.667358   105A      0.670153   106A      0.682257  
     107A      0.688040   108A      0.702366   109A      0.717090  
     110A      0.719414   111A      0.723797   112A      0.746512  
     113A      0.749683   114A      0.761232   115A      0.766440  
     116A      0.775227   117A      0.784486   118A      0.787736  
     119A      0.796587   120A      0.808549   121A      0.824393  
     122A      0.830449   123A      0.838938   124A      0.848092  
     125A      0.850308   126A      0.858247   127A      0.862942  
     128A      0.877663   129A      0.888314   130A      0.894217  
     131A      0.909647   132A      0.914158   133A      0.922524  
     134A      0.927789   135A      0.935469   136A      0.943452  
     137A      0.946226   138A      0.955986   139A      0.971776  
     140A      0.977265   141A      0.980884   142A      0.990851  
     143A      1.002395   144A      1.023600   145A      1.025599  
     146A      1.036984   147A      1.045372   148A      1.052253  
     149A      1.063832   150A      1.072431   151A      1.081065  
     152A      1.098613   153A      1.102666   154A      1.117030  
     155A      1.121809   156A      1.125456   157A      1.138179  
     158A      1.152278   159A      1.163794   160A      1.168209  
     161A      1.194005   162A      1.213742   163A      1.223335  
     164A      1.229107   165A      1.243342   166A      1.249760  
     167A      1.266671   168A      1.283816   169A      1.295732  
     170A      1.301835   171A      1.324284   172A      1.338723  
     173A      1.348651   174A      1.362249   175A      1.376929  
     176A      1.391769   177A      1.425727   178A      1.473919  
     179A      1.485268   180A      1.500088   181A      1.531359  
     182A      1.553248   183A      1.570881   184A      1.623854  
     185A      1.634489   186A      1.639441   187A      1.654808  
     188A      1.664171   189A      1.677695   190A      1.687748  
     191A      1.703331   192A      1.718930   193A      1.739525  
     194A      1.754288   195A      1.768549   196A      1.776292  
     197A      1.790264   198A      1.805864   199A      1.821702  
     200A      1.830933   201A      1.860033   202A      1.865070  
     203A      1.887942   204A      1.897773   205A      1.906893  
     206A      1.919736   207A      1.941952   208A      1.951143  
     209A      1.965028   210A      2.154017   211A      2.221806  
     212A      2.233175   213A      2.261897   214A      2.281500  
     215A      2.302798   216A      2.318033   217A      2.336283  
     218A      2.356742   219A      2.361748   220A      2.386666  
     221A      2.399161   222A      2.399866   223A      2.413749  
     224A      2.420482   225A      2.443986   226A      2.456556  
     227A      2.481406   228A      2.491354   229A      2.499252  
     230A      2.553083   231A      2.575901   232A      2.595722  
     233A      2.619848   234A      2.652199   235A      2.667652  
     236A      2.679135   237A      2.709068   238A      2.728801  
     239A      2.748303   240A      2.766224   241A      2.804450  
     242A      2.849882   243A      2.860178   244A      2.872917  
     245A      2.925768   246A      2.973358   247A      2.977426  
     248A      2.997599   249A      3.029300   250A      3.038501  
     251A      3.062502   252A      3.075102   253A      3.090217  
     254A      3.114575   255A      3.121897   256A      3.136480  
     257A      3.151967   258A      3.155693   259A      3.185227  
     260A      3.194347   261A      3.200019   262A      3.221719  
     263A      3.233295   264A      3.273895   265A      3.289274  
     266A      3.434038   267A      3.470900   268A      3.505370  
     269A      3.513936   270A      3.523646   271A      3.545659  
     272A      3.584687   273A      3.623207   274A      4.135497  
     275A      4.207119   276A      4.216597   277A      4.238711  
     278A      4.248027   279A      4.322282   280A      4.344988  
     281A      4.367452   282A      4.397984   283A      4.402266  
     284A      4.423575   285A      4.437171   286A      4.457578  
     287A      4.479678   288A      4.512786   289A      4.543669  
     290A      4.551660   291A      4.574442   292A      4.586893  
     293A      4.601192   294A      4.645766   295A      4.674867  
     296A      4.688755   297A      4.740929   298A      4.806681  
     299A      4.812982   300A      4.840747   301A      4.845996  
     302A      4.858337   303A      4.867348   304A      4.894149  
     305A      4.901113   306A      4.928925   307A      4.939137  
     308A      4.969009   309A      5.009525   310A      5.050376  
     311A      5.064116   312A      5.098571   313A      5.133404  
     314A      5.144159   315A      5.306583   316A      5.319904  
     317A      5.356267   318A      5.362292   319A      5.383413  
     320A      5.407289   321A      5.437298   322A      5.463365  
     323A      5.507480   324A      5.514131   325A      5.541191  
     326A      5.588227   327A      5.650240   328A      5.704504  
     329A      5.740675   330A      5.781825   331A      5.987888  
     332A      6.101174   333A      6.142116   334A      6.168287  
     335A      6.198977   336A      6.207663   337A      6.229071  
     338A      6.269654   339A      6.396098   340A      6.455691  
     341A      6.608500   342A      6.658895   343A      6.809185  
     344A      6.863106   345A      6.876758   346A      6.948866  
     347A      7.491954   348A      7.512343   349A      7.523954  
     350A      7.537550   351A      7.567675   352A      7.623315  
     353A      7.661771   354A      7.699296   355A      7.833555  
     356A      7.863021   357A      7.885065   358A      7.888356  
     359A      7.900954   360A      7.928362   361A      8.026355  
     362A      8.038349   363A      8.048005   364A      8.053876  
     365A      8.073252   366A      8.141265   367A      8.431304  
     368A      8.469016   369A      8.542684   370A      8.549593  
     371A      8.591534   372A      8.608958   373A      8.629588  
     374A      8.651072   375A      9.552921   376A      9.655541  
     377A      9.679575   378A      9.685413   379A      9.701610  
     380A      9.733820   381A      9.758910   382A      9.765379  
     383A      9.781671   384A      9.802453   385A      9.819013  
     386A      9.842514   387A      9.934782   388A      9.977421  
     389A     10.005175   390A     10.043250   391A     10.891511  
     392A     10.899516   393A     10.901893   394A     10.991733  
     395A     11.526753   396A     11.584324   397A     11.596385  
     398A     11.647612   399A     11.934019   400A     11.942492  
     401A     11.995240   402A     12.075276   403A     13.288048  
     404A     13.297275   405A     13.319943   406A     13.413198  
     407A     13.673154   408A     13.711818   409A     13.741117  
     410A     13.793345   411A     64.423573   412A     64.781409  
     413A     65.073581   414A     65.385782  

    Final Occupation by Irrep:
              A 
    DOCC [     1 ]
    NA   [     1 ]
    NB   [     1 ]

  @DF-RHF Final Energy:    -7.23638483506245

   => Energetics <=

    Nuclear Repulsion Energy =              0.0000000000000000
    One-Electron Energy =                  -8.8880642977214652
    Two-Electron Energy =                   1.6516794626590179
    Total Energy =                         -7.2363848350624469

Computation Completed


Properties will be evaluated at   0.000000,   0.000000,   0.000000 [a0]

Properties computed using the SCF density matrix


 Multipole Moments:

 ------------------------------------------------------------------------------------
     Multipole            Electronic (a.u.)      Nuclear  (a.u.)        Total (a.u.)
 ------------------------------------------------------------------------------------

 L = 1.  Multiply by 2.5417464519 to convert [e a0] to [Debye]
 Dipole X            :          0.0000019            0.0000000            0.0000019
 Dipole Y            :          0.0000007            0.0000000            0.0000007
 Dipole Z            :         -0.0000156            0.0000000           -0.0000156
 Magnitude           :                                                    0.0000157

 ------------------------------------------------------------------------------------

*** tstop() called on moses-razer at Sun Jan  7 07:14:01 2024
Module time:
	user time   =      12.01 seconds =       0.20 minutes
	system time =       0.30 seconds =       0.01 minutes
	total time  =          3 seconds =       0.05 minutes
Total time:
	user time   =      46.64 seconds =       0.78 minutes
	system time =       1.74 seconds =       0.03 minutes
	total time  =          9 seconds =       0.15 minutes

  //>>>>>>>>>>>>>>>>>>>>>>>>>>>>>>>>>>>//
  //            Monomer B HF           //
  //<<<<<<<<<<<<<<<<<<<<<<<<<<<<<<<<<<<//

   => Libint2 <=

    Primary   basis highest AM E, G, H:  5, 4, 3
    Auxiliary basis highest AM E, G, H:  6, 5, 4
    Onebody   basis highest AM E, G, H:  6, 5, 4
    Solid Harmonics ordering:            gaussian

*** tstart() called on moses-razer
*** at Sun Jan  7 07:14:01 2024

   => Loading Basis Set <=

    Name: AUG-CC-PVTZ
    Role: ORBITAL
    Keyword: BASIS
    atoms 1                     entry LI         line    85 file /home/kchung25/anaconda3/envs/p415env/share/psi4/basis/aug-cc-pvtz.gbs 
    atoms 2, 5, 8, 11           entry O          line   331 file /home/kchung25/anaconda3/envs/p415env/share/psi4/basis/aug-cc-pvtz.gbs 
    atoms 3-4, 6-7, 9-10, 12-13 entry H          line    40 file /home/kchung25/anaconda3/envs/p415env/share/psi4/basis/aug-cc-pvtz.gbs 


         ---------------------------------------------------------
                                   SCF
               by Justin Turney, Rob Parrish, Andy Simmonett
                          and Daniel G. A. Smith
                              RHF Reference
                        6 Threads,  57220 MiB Core
         ---------------------------------------------------------

  ==> Geometry <==

    Molecular point group: c1
    Full point group: C1

    Geometry (in Angstrom), charge = 0, multiplicity = 1:

       Center              X                  Y                   Z               Mass       
    ------------   -----------------  -----------------  -----------------  -----------------
      Gh(LI)          0.000000000000     0.000000000000     0.000000000000     7.016003436600
         O            1.852804000000     0.610325000000     0.422366000000    15.994914619570
         H            2.273260000000     1.457225000000     0.600686000000     1.007825032230
         H            2.485926000000     0.051439000000    -0.025591000000     1.007825032230
         O           -1.159180000000     1.378186000000     0.408450000000    15.994914619570
         H           -1.049995000000     1.647269000000     1.320449000000     1.007825032230
         H           -1.096509000000     2.226849000000    -0.094508000000     1.007825032230
         O           -0.329423000000    -1.475069000000     1.145804000000    15.994914619570
         H           -0.434844000000    -2.362818000000     0.770701000000     1.007825032230
         H           -1.017858000000    -1.314900000000     1.802054000000     1.007825032230
         O            0.503397000000    -1.152424000000    -1.784085000000    15.994914619570
         H            0.322310000000    -0.760718000000    -2.631013000000     1.007825032230
         H            1.362436000000    -1.632825000000    -1.984484000000     1.007825032230

  Running in c1 symmetry.

  Rotational constants: A =      0.10069  B =      0.07998  C =      0.07183 [cm^-1]
  Rotational constants: A =   3018.67160  B =   2397.79705  C =   2153.40812 [MHz]
  Nuclear repulsion =  131.324717602759506

  Charge       = 0
  Multiplicity = 1
  Electrons    = 40
  Nalpha       = 20
  Nbeta        = 20

  ==> Algorithm <==

  SCF Algorithm Type is DF.
  DIIS enabled.
  MOM disabled.
  Fractional occupation disabled.
  Guess Type is SAD.
  Energy threshold   = 1.00e-08
  Density threshold  = 1.00e-08
  Integral threshold = 1.00e-12

  ==> Primary Basis <==

  Basis Set: AUG-CC-PVTZ
    Blend: AUG-CC-PVTZ
    Number of shells: 142
    Number of basis functions: 414
    Number of Cartesian functions: 475
    Spherical Harmonics?: true
    Max angular momentum: 3

   => Loading Basis Set <=

    Name: (AUG-CC-PVTZ AUX)
    Role: JKFIT
    Keyword: DF_BASIS_SCF
    atoms 1                     entry LI         line    54 file /home/kchung25/anaconda3/envs/p415env/share/psi4/basis/def2-universal-jkfit.gbs 
    atoms 2, 5, 8, 11           entry O          line   286 file /home/kchung25/anaconda3/envs/p415env/share/psi4/basis/aug-cc-pvtz-jkfit.gbs 
    atoms 3-4, 6-7, 9-10, 12-13 entry H          line    70 file /home/kchung25/anaconda3/envs/p415env/share/psi4/basis/aug-cc-pvtz-jkfit.gbs 

  ==> Integral Setup <==

  ==> DiskDFJK: Density-Fitted J/K Matrices <==

    J tasked:                  Yes
    K tasked:                  Yes
    wK tasked:                  No
    OpenMP threads:              6
    Integrals threads:           6
    Memory [MiB]:            42915
    Algorithm:                Core
    Integral Cache:           LOAD
    Schwarz Cutoff:          1E-12
    Fitting Condition:       1E-10

   => Auxiliary Basis Set <=

  Basis Set: (AUG-CC-PVTZ AUX)
    Blend: AUG-CC-PVTZ-JKFIT + DEF2-UNIVERSAL-JKFIT
    Number of shells: 249
    Number of basis functions: 835
    Number of Cartesian functions: 1024
    Spherical Harmonics?: true
    Max angular momentum: 4

  Minimum eigenvalue in the overlap matrix is 1.9895805387E-05.
  Reciprocal condition number of the overlap matrix is 1.4013696394E-06.
    Using symmetric orthogonalization.

  ==> Pre-Iterations <==

  SCF Guess: Superposition of Atomic Densities via on-the-fly atomic UHF (no occupation information).

   -------------------------
    Irrep   Nso     Nmo    
   -------------------------
     A        414     414 
   -------------------------
    Total     414     414
   -------------------------

  ==> Iterations <==

                           Total Energy        Delta E     RMS |[F,P]|

   @DF-RHF iter SAD:  -301.91567488986499   -3.01916e+02   0.00000e+00 
   @DF-RHF iter   1:  -303.84856420501751   -1.93289e+00   2.31616e-03 DIIS/ADIIS
   @DF-RHF iter   2:  -304.06316573876069   -2.14602e-01   1.64817e-03 DIIS/ADIIS
   @DF-RHF iter   3:  -304.21174635053222   -1.48581e-01   1.11405e-04 DIIS/ADIIS
   @DF-RHF iter   4:  -304.21357207743915   -1.82573e-03   2.83387e-05 DIIS
   @DF-RHF iter   5:  -304.21369883090136   -1.26753e-04   7.57332e-06 DIIS
   @DF-RHF iter   6:  -304.21371058053342   -1.17496e-05   3.19013e-06 DIIS
   @DF-RHF iter   7:  -304.21371171248984   -1.13196e-06   8.99194e-07 DIIS
   @DF-RHF iter   8:  -304.21371188048244   -1.67993e-07   1.62156e-07 DIIS
   @DF-RHF iter   9:  -304.21371188663801   -6.15557e-09   3.28066e-08 DIIS
   @DF-RHF iter  10:  -304.21371188684600   -2.07990e-10   1.12054e-08 DIIS
   @DF-RHF iter  11:  -304.21371188686265   -1.66551e-11   4.94725e-09 DIIS
  Energy and wave function converged.


  ==> Post-Iterations <==

    Orbital Energies [Eh]
    ---------------------

    Doubly Occupied:                                                      

       1A    -20.551540     2A    -20.536858     3A    -20.532297  
       4A    -20.522195     5A     -1.326737     6A     -1.317280  
       7A     -1.313461     8A     -1.301319     9A     -0.692300  
      10A     -0.682100    11A     -0.678353    12A     -0.673465  
      13A     -0.567920    14A     -0.550431    15A     -0.543957  
      16A     -0.521076    17A     -0.492039    18A     -0.477440  
      19A     -0.468001    20A     -0.461655  

    Virtual:                                                              

      21A      0.010182    22A      0.017397    23A      0.019828  
      24A      0.020930    25A      0.048755    26A      0.054567  
      27A      0.058034    28A      0.059286    29A      0.062668  
      30A      0.068625    31A      0.069341    32A      0.075153  
      33A      0.082510    34A      0.084874    35A      0.105086  
      36A      0.114704    37A      0.150349    38A      0.155715  
      39A      0.160470    40A      0.162657    41A      0.165092  
      42A      0.173251    43A      0.179179    44A      0.183317  
      45A      0.186690    46A      0.189071    47A      0.195444  
      48A      0.203395    49A      0.206129    50A      0.212879  
      51A      0.218783    52A      0.231051    53A      0.243914  
      54A      0.253557    55A      0.266441    56A      0.272246  
      57A      0.284102    58A      0.288601    59A      0.307732  
      60A      0.316801    61A      0.327917    62A      0.345544  
      63A      0.347772    64A      0.350896    65A      0.362192  
      66A      0.372277    67A      0.375458    68A      0.380079  
      69A      0.389958    70A      0.402279    71A      0.406108  
      72A      0.409241    73A      0.419801    74A      0.423880  
      75A      0.430783    76A      0.432493    77A      0.433527  
      78A      0.436078    79A      0.440112    80A      0.447436  
      81A      0.457746    82A      0.461827    83A      0.465240  
      84A      0.471278    85A      0.473937    86A      0.480080  
      87A      0.489362    88A      0.497002    89A      0.498614  
      90A      0.504031    91A      0.506145    92A      0.514600  
      93A      0.521597    94A      0.525685    95A      0.527270  
      96A      0.547261    97A      0.550224    98A      0.564258  
      99A      0.577343   100A      0.579938   101A      0.594756  
     102A      0.600637   103A      0.630485   104A      0.665553  
     105A      0.690816   106A      0.719161   107A      0.733358  
     108A      0.755375   109A      0.765648   110A      0.777460  
     111A      0.788028   112A      0.794223   113A      0.795662  
     114A      0.814740   115A      0.816762   116A      0.822929  
     117A      0.837871   118A      0.838415   119A      0.847365  
     120A      0.867901   121A      0.877411   122A      0.883306  
     123A      0.889751   124A      0.899238   125A      0.919221  
     126A      0.921969   127A      0.933477   128A      0.935964  
     129A      0.946729   130A      0.955896   131A      0.958056  
     132A      0.962545   133A      0.981082   134A      0.982597  
     135A      0.989313   136A      0.999188   137A      1.001732  
     138A      1.011151   139A      1.017638   140A      1.026338  
     141A      1.030614   142A      1.033009   143A      1.047389  
     144A      1.063176   145A      1.071347   146A      1.080761  
     147A      1.082201   148A      1.088239   149A      1.094707  
     150A      1.112329   151A      1.119910   152A      1.123219  
     153A      1.140950   154A      1.144573   155A      1.154142  
     156A      1.157339   157A      1.172539   158A      1.177276  
     159A      1.188643   160A      1.190835   161A      1.207742  
     162A      1.216819   163A      1.230870   164A      1.243254  
     165A      1.257716   166A      1.269693   167A      1.281582  
     168A      1.286538   169A      1.293683   170A      1.297627  
     171A      1.312653   172A      1.322035   173A      1.332004  
     174A      1.344402   175A      1.351169   176A      1.363499  
     177A      1.369982   178A      1.388930   179A      1.403116  
     180A      1.425644   181A      1.433491   182A      1.456901  
     183A      1.478172   184A      1.482574   185A      1.503366  
     186A      1.525084   187A      1.535893   188A      1.547163  
     189A      1.585847   190A      1.611861   191A      1.635694  
     192A      1.641996   193A      1.650126   194A      1.683253  
     195A      1.696059   196A      1.700969   197A      1.728354  
     198A      1.752384   199A      1.761140   200A      1.772630  
     201A      1.776975   202A      1.784289   203A      1.805216  
     204A      1.825480   205A      1.844352   206A      1.863725  
     207A      1.870022   208A      1.895898   209A      1.907572  
     210A      1.915939   211A      1.923539   212A      1.941888  
     213A      1.953730   214A      2.000063   215A      2.020507  
     216A      2.058389   217A      2.062829   218A      2.070836  
     219A      2.127696   220A      2.146915   221A      2.164998  
     222A      2.205434   223A      2.216205   224A      2.270522  
     225A      2.275812   226A      2.307602   227A      2.340725  
     228A      2.385969   229A      2.399171   230A      2.428321  
     231A      2.437794   232A      2.452390   233A      2.476997  
     234A      2.494291   235A      2.504840   236A      2.516691  
     237A      2.544096   238A      2.565799   239A      2.590419  
     240A      2.618748   241A      2.627395   242A      2.643112  
     243A      2.665441   244A      2.670894   245A      2.691818  
     246A      2.712667   247A      2.716587   248A      2.731963  
     249A      2.773759   250A      2.790719   251A      2.799355  
     252A      2.809940   253A      2.814835   254A      2.825989  
     255A      2.847166   256A      2.852398   257A      2.865453  
     258A      2.880552   259A      2.894105   260A      2.921738  
     261A      2.923904   262A      2.945911   263A      2.959093  
     264A      2.980449   265A      2.990401   266A      3.014495  
     267A      3.024934   268A      3.031450   269A      3.070977  
     270A      3.101178   271A      3.144489   272A      3.160709  
     273A      3.178749   274A      3.242857   275A      3.252343  
     276A      3.324182   277A      3.349624   278A      3.801942  
     279A      3.856775   280A      3.907140   281A      3.920977  
     282A      3.947414   283A      3.983050   284A      4.014591  
     285A      4.034277   286A      4.141297   287A      4.160169  
     288A      4.169751   289A      4.184689   290A      4.243292  
     291A      4.295762   292A      4.306768   293A      4.318311  
     294A      4.340045   295A      4.345367   296A      4.365461  
     297A      4.386911   298A      4.390981   299A      4.411052  
     300A      4.423528   301A      4.451052   302A      4.486732  
     303A      4.512245   304A      4.543267   305A      4.559731  
     306A      4.562470   307A      4.568680   308A      4.593701  
     309A      4.601887   310A      4.622221   311A      4.623663  
     312A      4.647706   313A      4.658054   314A      4.667627  
     315A      4.683532   316A      4.687345   317A      4.711269  
     318A      4.720272   319A      4.736570   320A      4.757162  
     321A      4.799649   322A      4.854453   323A      4.875901  
     324A      4.894010   325A      4.910903   326A      4.933549  
     327A      4.943954   328A      4.961928   329A      4.992432  
     330A      5.163918   331A      5.181950   332A      5.207822  
     333A      5.217764   334A      5.245126   335A      5.248349  
     336A      5.269245   337A      5.289606   338A      5.330073  
     339A      5.371746   340A      5.403372   341A      5.428402  
     342A      5.432374   343A      5.469419   344A      5.483181  
     345A      5.554750   346A      5.582552   347A      5.606006  
     348A      5.618364   349A      5.666448   350A      5.823904  
     351A      5.869923   352A      5.964723   353A      6.013736  
     354A      6.345614   355A      6.347011   356A      6.423334  
     357A      6.451318   358A      6.662789   359A      6.680912  
     360A      6.698972   361A      6.742143   362A      6.842446  
     363A      6.879558   364A      6.915099   365A      6.920330  
     366A      6.958828   367A      7.016871   368A      7.048688  
     369A      7.078811   370A      7.180212   371A      7.239325  
     372A      7.259018   373A      7.268832   374A      7.281003  
     375A      7.352690   376A      7.360736   377A      7.370648  
     378A      7.375698   379A      7.409663   380A      7.422402  
     381A      7.427446   382A      7.431668   383A      7.442663  
     384A      7.448848   385A      7.458502   386A      7.467476  
     387A      7.475769   388A      7.498271   389A      7.507711  
     390A      7.534450   391A      7.565576   392A      7.573451  
     393A      7.594532   394A      7.660471   395A      7.700289  
     396A      7.756706   397A      7.802604   398A      7.883929  
     399A      7.939557   400A      7.988778   401A      8.008068  
     402A      8.032404   403A      8.047937   404A      8.053176  
     405A      8.129979   406A      8.830719   407A      8.895256  
     408A      8.920693   409A      8.942990   410A     13.020590  
     411A     15.732318   412A     16.026960   413A     16.103630  
     414A     16.256750  

    Final Occupation by Irrep:
              A 
    DOCC [    20 ]
    NA   [    20 ]
    NB   [    20 ]

  @DF-RHF Final Energy:  -304.21371188686265

   => Energetics <=

    Nuclear Repulsion Energy =            131.3247176027595060
    One-Electron Energy =                -682.6560046037786833
    Two-Electron Energy =                 247.1175751141565229
    Total Energy =                       -304.2137118868626544

Computation Completed


Properties will be evaluated at   0.000000,   0.000000,   0.000000 [a0]

Properties computed using the SCF density matrix


 Multipole Moments:

 ------------------------------------------------------------------------------------
     Multipole            Electronic (a.u.)      Nuclear  (a.u.)        Total (a.u.)
 ------------------------------------------------------------------------------------

 L = 1.  Multiply by 2.5417464519 to convert [e a0] to [Debye]
 Dipole X            :        -17.8243629           18.4919339            0.6675710
 Dipole Y            :         11.3382744          -10.9610446            0.3772298
 Dipole Z            :         -2.9014935            2.4539492           -0.4475443
 Magnitude           :                                                    0.8878340

 ------------------------------------------------------------------------------------

*** tstop() called on moses-razer at Sun Jan  7 07:14:06 2024
Module time:
	user time   =      28.82 seconds =       0.48 minutes
	system time =       0.66 seconds =       0.01 minutes
	total time  =          5 seconds =       0.08 minutes
Total time:
	user time   =      75.48 seconds =       1.26 minutes
	system time =       2.40 seconds =       0.04 minutes
	total time  =         14 seconds =       0.23 minutes
  Constructing Basis Sets for SAPT...

   => Loading Basis Set <=

    Name: (AUG-CC-PVTZ AUX)
    Role: RIFIT
    Keyword: DF_BASIS_SAPT
    atoms 1                     entry LI         line    90 file /home/kchung25/anaconda3/envs/p415env/share/psi4/basis/def2-qzvpp-ri.gbs 
    atoms 2, 5, 8, 11           entry O          line   264 file /home/kchung25/anaconda3/envs/p415env/share/psi4/basis/aug-cc-pvtz-ri.gbs 
    atoms 3-4, 6-7, 9-10, 12-13 entry H          line    30 file /home/kchung25/anaconda3/envs/p415env/share/psi4/basis/aug-cc-pvtz-ri.gbs 

   => Loading Basis Set <=

    Name: (AUG-CC-PVTZ AUX)
    Role: JKFIT
    Keyword: DF_BASIS_ELST
    atoms 1                     entry LI         line    54 file /home/kchung25/anaconda3/envs/p415env/share/psi4/basis/def2-universal-jkfit.gbs 
    atoms 2, 5, 8, 11           entry O          line   286 file /home/kchung25/anaconda3/envs/p415env/share/psi4/basis/aug-cc-pvtz-jkfit.gbs 
    atoms 3-4, 6-7, 9-10, 12-13 entry H          line    70 file /home/kchung25/anaconda3/envs/p415env/share/psi4/basis/aug-cc-pvtz-jkfit.gbs 


  //>>>>>>>>>>>>>>>>>>>>>>>>>>>>>>>>>>>//
  //               SAPT2+              //
  //<<<<<<<<<<<<<<<<<<<<<<<<<<<<<<<<<<<//


*** tstart() called on moses-razer
*** at Sun Jan  7 07:14:06 2024

        SAPT2+  
    Ed Hohenstein
     6 June 2009

      Orbital Information
  --------------------------
    NSO        =       414
    NMO        =       414
    NRI        =       893
    NOCC A     =         1
    NOCC B     =        20
    FOCC A     =         0
    FOCC B     =         0
    NVIR A     =       413
    NVIR B     =       394

    Estimated memory usage: 2856.0 MB

    Natural Orbital Cutoff:   1.000E-06
    Disp(T3) Truncation:            Yes
    CCD (vv|vv) Truncation:         Yes
    MBPT T2 Truncation:             Yes

    Monomer A: 406 virtual orbitals dropped
    Monomer B: 63 virtual orbitals dropped

    Elst10,r            =    -0.157034188023 [Eh]
    Exch10 (S^2)        =     0.040665037139 [Eh]
    Exch10              =     0.041115562721 [Eh]
    Ind20,r (A<-B)      =    -0.000049351947 [Eh]
    Ind20,r (B<-A)      =    -0.079582584506 [Eh]
    Ind20,r             =    -0.079631936454 [Eh]
    Exch-Ind20,r (A<-B) =     0.000037784820 [Eh]
    Exch-Ind20,r (B<-A) =     0.025869772216 [Eh]
    Exch-Ind20,r        =     0.025907557036 [Eh]
    Disp20              =    -0.002903125945 [Eh]
    Disp20 (NO)         =    -0.002552007196 [Eh]
    Exch-Disp20         =     0.000326431325 [Eh]
    Elst12,r            =     0.011729161273 [Eh]
    Exch11              =    -0.000580075124 [Eh]
    Exch12              =     0.003578814282 [Eh]
    Ind22               =    -0.008873375244 [Eh]
    Disp21              =    -0.000113338696 [Eh]
    Disp22 (SDQ)        =    -0.000046466704 [Eh]

    (i =   1 of  20)          0 seconds
    (i =   2 of  20)          0 seconds
    (i =   3 of  20)          0 seconds
    (i =   4 of  20)          0 seconds
    (i =   5 of  20)          0 seconds
    (i =   6 of  20)          0 seconds
    (i =   7 of  20)          0 seconds
    (i =   8 of  20)          0 seconds
    (i =   9 of  20)          0 seconds
    (i =  10 of  20)          0 seconds
    (i =  11 of  20)          0 seconds
    (i =  12 of  20)          0 seconds
    (i =  13 of  20)          0 seconds
    (i =  14 of  20)          0 seconds
    (i =  15 of  20)          0 seconds
    (i =  16 of  20)          0 seconds
    (i =  17 of  20)          0 seconds
    (i =  18 of  20)          0 seconds
    (i =  19 of  20)          0 seconds
    (i =  20 of  20)          0 seconds

    Disp220 (T)         =    -0.000030316447 [Eh]

    (i =   1 of   1)          8 seconds

    Disp202 (T)         =    -0.000140693592 [Eh]

    Disp22 (T)          =    -0.000171010040 [Eh]

    Est. Disp220 (T)    =    -0.000034487546 [Eh]
    Est. Disp202 (T)    =    -0.000160050966 [Eh]

    Est. Disp22 (T)     =    -0.000194538512 [Eh]

    SAPT Results 
  --------------------------------------------------------------------------------------------------------
    Electrostatics               -145.30502675 [mEh]     -91.18028087 [kcal/mol]    -381.49829517 [kJ/mol]
      Elst10,r                   -157.03418802 [mEh]     -98.54044069 [kcal/mol]    -412.29320385 [kJ/mol]
      Elst12,r                     11.72916127 [mEh]       7.36015982 [kcal/mol]      30.79490868 [kJ/mol]

    Exchange                       44.11430188 [mEh]      27.68214236 [kcal/mol]     115.82208363 [kJ/mol]
      Exch10                       41.11556272 [mEh]      25.80040513 [kcal/mol]     107.94889505 [kJ/mol]
      Exch10(S^2)                  40.66503714 [mEh]      25.51769606 [kcal/mol]     106.76604030 [kJ/mol]
      Exch11(S^2)                  -0.58007512 [mEh]      -0.36400264 [kcal/mol]      -1.52298703 [kJ/mol]
      Exch12(S^2)                   3.57881428 [mEh]       2.24573987 [kcal/mol]       9.39617560 [kJ/mol]

    Induction                     -63.58941003 [mEh]     -39.90295722 [kcal/mol]    -166.95397302 [kJ/mol]
      Ind20,r                     -79.63193645 [mEh]     -49.96979454 [kcal/mol]    -209.07362036 [kJ/mol]
      Ind22                        -8.87337524 [mEh]      -5.56812703 [kcal/mol]     -23.29704349 [kJ/mol]
      Exch-Ind20,r                 25.90755704 [mEh]      16.25723748 [kcal/mol]      68.02028163 [kJ/mol]
      Exch-Ind22                    2.88687536 [mEh]       1.81154164 [kcal/mol]       7.57949021 [kJ/mol]
      delta HF,r (2)               -3.87853072 [mEh]      -2.43381477 [kcal/mol]     -10.18308101 [kJ/mol]

    Dispersion                     -2.93103853 [mEh]      -1.83925445 [kcal/mol]      -7.69544060 [kJ/mol]
      Disp20                       -2.90312594 [mEh]      -1.82173903 [kcal/mol]      -7.62215612 [kJ/mol]
      Disp21                       -0.11333870 [mEh]      -0.07112111 [kcal/mol]      -0.29757071 [kJ/mol]
      Disp22 (SDQ)                 -0.04646670 [mEh]      -0.02915830 [kcal/mol]      -0.12199831 [kJ/mol]
      Disp22 (T)                   -0.17101004 [mEh]      -0.10731042 [kcal/mol]      -0.44898680 [kJ/mol]
      Est. Disp22 (T)              -0.19453851 [mEh]      -0.12207476 [kcal/mol]      -0.51076079 [kJ/mol]
      Exch-Disp20                   0.32643133 [mEh]       0.20483875 [kcal/mol]       0.85704533 [kJ/mol]

  Total HF                       -173.52153544 [mEh]    -108.88640740 [kcal/mol]    -455.58072854 [kJ/mol]
  Total SAPT0                    -176.09823006 [mEh]    -110.50330768 [kcal/mol]    -462.34583934 [kJ/mol]
  Total SAPT2                    -167.35682952 [mEh]    -105.01799602 [kcal/mol]    -439.39529536 [kJ/mol]
  Total SAPT2+                   -167.71117343 [mEh]    -105.24035018 [kcal/mol]    -440.32562517 [kJ/mol]

  Special recipe for scaled SAPT0 (see Manual):
    Electrostatics sSAPT0        -157.03418802 [mEh]     -98.54044069 [kcal/mol]    -412.29320385 [kJ/mol]
    Exchange sSAPT0                41.11556272 [mEh]      25.80040513 [kcal/mol]     107.94889505 [kJ/mol]
    Induction sSAPT0              -56.73225005 [mEh]     -35.60002437 [kcal/mol]    -148.95050198 [kJ/mol]
    Dispersion sSAPT0              -2.56572443 [mEh]      -1.61001639 [kcal/mol]      -6.73630857 [kJ/mol]
  Total sSAPT0                   -175.21659978 [mEh]    -109.95007633 [kcal/mol]    -460.03111935 [kJ/mol]
  --------------------------------------------------------------------------------------------------------

*** tstop() called on moses-razer at Sun Jan  7 07:18:37 2024
Module time:
	user time   =    1499.59 seconds =      24.99 minutes
	system time =      31.79 seconds =       0.53 minutes
	total time  =        271 seconds =       4.52 minutes
Total time:
	user time   =    1575.85 seconds =      26.26 minutes
	system time =      34.20 seconds =       0.57 minutes
	total time  =        285 seconds =       4.75 minutes

    Psi4 stopped on: Sunday, 07 January 2024 07:18AM
    Psi4 wall time for execution: 0:04:45.66

*** Psi4 exiting successfully. Buy a developer a beer!
