
    -----------------------------------------------------------------------
          Psi4: An Open-Source Ab Initio Electronic Structure Package
                               Psi4 1.9 release

                         Git: Rev {} zzzzzzz 


    D. G. A. Smith, L. A. Burns, A. C. Simmonett, R. M. Parrish,
    M. C. Schieber, R. Galvelis, P. Kraus, H. Kruse, R. Di Remigio,
    A. Alenaizan, A. M. James, S. Lehtola, J. P. Misiewicz, M. Scheurer,
    R. A. Shaw, J. B. Schriber, Y. Xie, Z. L. Glick, D. A. Sirianni,
    J. S. O'Brien, J. M. Waldrop, A. Kumar, E. G. Hohenstein,
    B. P. Pritchard, B. R. Brooks, H. F. Schaefer III, A. Yu. Sokolov,
    K. Patkowski, A. E. DePrince III, U. Bozkaya, R. A. King,
    F. A. Evangelista, J. M. Turney, T. D. Crawford, C. D. Sherrill,
    J. Chem. Phys. 152(18) 184108 (2020). https://doi.org/10.1063/5.0006002

                            Additional Code Authors
    E. T. Seidl, C. L. Janssen, E. F. Valeev, M. L. Leininger,
    J. F. Gonthier, R. M. Richard, H. R. McAlexander, M. Saitow, X. Wang,
    P. Verma, M. H. Lechner, A. Jiang, S. Behnle, A. G. Heide,
    M. F. Herbst, and D. L. Poole

             Previous Authors, Complete List of Code Contributors,
                       and Citations for Specific Modules
    https://github.com/psi4/psi4/blob/master/codemeta.json
    https://github.com/psi4/psi4/graphs/contributors
    http://psicode.org/psi4manual/master/introduction.html#citing-psifour

    -----------------------------------------------------------------------


    Psi4 started on: Sunday, 07 January 2024 06:59AM

    Process ID: 570128
    Host:       moses-razer
    PSIDATADIR: /home/kchung25/anaconda3/envs/psi4_19/share/psi4
    Memory:     500.0 MiB
    Threads:    6
    
  ==> Input File <==

--------------------------------------------------------------------------
MEMORY 60 GB

molecule dimer {
1 1
Li     0.000000     0.000000     0.000000
--
0 1
O      0.555055     1.756291    -0.173155
H      1.019401     2.013188    -0.983328
H      0.529311     2.536414     0.420306
O     -1.811688     0.111938    -0.737650
H     -2.603305     0.554410    -0.404862
H     -2.093361    -0.742220    -1.185759
O      0.926386    -1.366764    -1.203158
H      0.261493    -1.902613    -1.696554
H      1.278228    -0.703441    -1.798368
O     -0.610731    -0.311488     1.950183
H     -1.529573    -0.612056     1.947277
H     -0.415540     0.410401     2.511917

units ang
no_reorient
no_com
symmetry c1
}

set {
basis        aug-cc-pVTZ
scf_type     df
}

energy("sapt2+")
--------------------------------------------------------------------------

  Memory set to  55.879 GiB by Python driver.

Scratch directory: /scratch/
   => Loading Basis Set <=

    Name: AUG-CC-PVTZ
    Role: ORBITAL
    Keyword: BASIS
    atoms 1                     entry LI         line    85 file /home/kchung25/anaconda3/envs/p415env/share/psi4/basis/aug-cc-pvtz.gbs 
    atoms 2, 5, 8, 11           entry O          line   331 file /home/kchung25/anaconda3/envs/p415env/share/psi4/basis/aug-cc-pvtz.gbs 
    atoms 3-4, 6-7, 9-10, 12-13 entry H          line    40 file /home/kchung25/anaconda3/envs/p415env/share/psi4/basis/aug-cc-pvtz.gbs 

   => Loading Basis Set <=

    Name: AUG-CC-PVTZ
    Role: ORBITAL
    Keyword: BASIS
    atoms 1                     entry LI         line    85 file /home/kchung25/anaconda3/envs/p415env/share/psi4/basis/aug-cc-pvtz.gbs 
    atoms 2, 5, 8, 11           entry O          line   331 file /home/kchung25/anaconda3/envs/p415env/share/psi4/basis/aug-cc-pvtz.gbs 
    atoms 3-4, 6-7, 9-10, 12-13 entry H          line    40 file /home/kchung25/anaconda3/envs/p415env/share/psi4/basis/aug-cc-pvtz.gbs 


  //>>>>>>>>>>>>>>>>>>>>>>>>>>>>>>>>>>>//
  //              Dimer HF             //
  //<<<<<<<<<<<<<<<<<<<<<<<<<<<<<<<<<<<//

   => Libint2 <=

    Primary   basis highest AM E, G, H:  5, 4, 3
    Auxiliary basis highest AM E, G, H:  6, 5, 4
    Onebody   basis highest AM E, G, H:  6, 5, 4
    Solid Harmonics ordering:            gaussian

*** tstart() called on moses-razer
*** at Sun Jan  7 06:59:41 2024

   => Loading Basis Set <=

    Name: AUG-CC-PVTZ
    Role: ORBITAL
    Keyword: BASIS
    atoms 1                     entry LI         line    85 file /home/kchung25/anaconda3/envs/p415env/share/psi4/basis/aug-cc-pvtz.gbs 
    atoms 2, 5, 8, 11           entry O          line   331 file /home/kchung25/anaconda3/envs/p415env/share/psi4/basis/aug-cc-pvtz.gbs 
    atoms 3-4, 6-7, 9-10, 12-13 entry H          line    40 file /home/kchung25/anaconda3/envs/p415env/share/psi4/basis/aug-cc-pvtz.gbs 


         ---------------------------------------------------------
                                   SCF
               by Justin Turney, Rob Parrish, Andy Simmonett
                          and Daniel G. A. Smith
                              RHF Reference
                        6 Threads,  57220 MiB Core
         ---------------------------------------------------------

  ==> Geometry <==

    Molecular point group: c1
    Full point group: C1

    Geometry (in Angstrom), charge = 1, multiplicity = 1:

       Center              X                  Y                   Z               Mass       
    ------------   -----------------  -----------------  -----------------  -----------------
         LI           0.000000000000     0.000000000000     0.000000000000     7.016003436600
         O            0.555055000000     1.756291000000    -0.173155000000    15.994914619570
         H            1.019401000000     2.013188000000    -0.983328000000     1.007825032230
         H            0.529311000000     2.536414000000     0.420306000000     1.007825032230
         O           -1.811688000000     0.111938000000    -0.737650000000    15.994914619570
         H           -2.603305000000     0.554410000000    -0.404862000000     1.007825032230
         H           -2.093361000000    -0.742220000000    -1.185759000000     1.007825032230
         O            0.926386000000    -1.366764000000    -1.203158000000    15.994914619570
         H            0.261493000000    -1.902613000000    -1.696554000000     1.007825032230
         H            1.278228000000    -0.703441000000    -1.798368000000     1.007825032230
         O           -0.610731000000    -0.311488000000     1.950183000000    15.994914619570
         H           -1.529573000000    -0.612056000000     1.947277000000     1.007825032230
         H           -0.415540000000     0.410401000000     2.511917000000     1.007825032230

  Running in c1 symmetry.

  Rotational constants: A =      0.09802  B =      0.08070  C =      0.07470 [cm^-1]
  Rotational constants: A =   2938.41599  B =   2419.26837  C =   2239.35681 [MHz]
  Nuclear repulsion =  162.634802839882269

  Charge       = 1
  Multiplicity = 1
  Electrons    = 42
  Nalpha       = 21
  Nbeta        = 21

  ==> Algorithm <==

  SCF Algorithm Type is DF.
  DIIS enabled.
  MOM disabled.
  Fractional occupation disabled.
  Guess Type is SAD.
  Energy threshold   = 1.00e-08
  Density threshold  = 1.00e-08
  Integral threshold = 1.00e-12

  ==> Primary Basis <==

  Basis Set: AUG-CC-PVTZ
    Blend: AUG-CC-PVTZ
    Number of shells: 142
    Number of basis functions: 414
    Number of Cartesian functions: 475
    Spherical Harmonics?: true
    Max angular momentum: 3

   => Loading Basis Set <=

    Name: (AUG-CC-PVTZ AUX)
    Role: JKFIT
    Keyword: DF_BASIS_SCF
    atoms 1                     entry LI         line    54 file /home/kchung25/anaconda3/envs/p415env/share/psi4/basis/def2-universal-jkfit.gbs 
    atoms 2, 5, 8, 11           entry O          line   286 file /home/kchung25/anaconda3/envs/p415env/share/psi4/basis/aug-cc-pvtz-jkfit.gbs 
    atoms 3-4, 6-7, 9-10, 12-13 entry H          line    70 file /home/kchung25/anaconda3/envs/p415env/share/psi4/basis/aug-cc-pvtz-jkfit.gbs 

  ==> Integral Setup <==

  ==> DiskDFJK: Density-Fitted J/K Matrices <==

    J tasked:                  Yes
    K tasked:                  Yes
    wK tasked:                  No
    OpenMP threads:              6
    Integrals threads:           6
    Memory [MiB]:            42915
    Algorithm:                Core
    Integral Cache:           SAVE
    Schwarz Cutoff:          1E-12
    Fitting Condition:       1E-10

   => Auxiliary Basis Set <=

  Basis Set: (AUG-CC-PVTZ AUX)
    Blend: AUG-CC-PVTZ-JKFIT + DEF2-UNIVERSAL-JKFIT
    Number of shells: 249
    Number of basis functions: 835
    Number of Cartesian functions: 1024
    Spherical Harmonics?: true
    Max angular momentum: 4

  Minimum eigenvalue in the overlap matrix is 1.4976599647E-05.
  Reciprocal condition number of the overlap matrix is 1.0288619908E-06.
    Using symmetric orthogonalization.

  ==> Pre-Iterations <==

  SCF Guess: Superposition of Atomic Densities via on-the-fly atomic UHF (no occupation information).

   -------------------------
    Irrep   Nso     Nmo    
   -------------------------
     A        414     414 
   -------------------------
    Total     414     414
   -------------------------

  ==> Iterations <==

                           Total Energy        Delta E     RMS |[F,P]|

   @DF-RHF iter SAD:  -309.55986068831663   -3.09560e+02   0.00000e+00 
   @DF-RHF iter   1:  -311.26850242921824   -1.70864e+00   2.28800e-03 ADIIS/DIIS
   @DF-RHF iter   2:  -311.49402573886175   -2.25523e-01   1.48438e-03 ADIIS/DIIS
   @DF-RHF iter   3:  -311.61022740998214   -1.16202e-01   1.13253e-04 ADIIS/DIIS
   @DF-RHF iter   4:  -311.61196976878330   -1.74236e-03   2.86774e-05 DIIS
   @DF-RHF iter   5:  -311.61208439344784   -1.14625e-04   7.54933e-06 DIIS
   @DF-RHF iter   6:  -311.61209389086645   -9.49742e-06   3.24010e-06 DIIS
   @DF-RHF iter   7:  -311.61209490599049   -1.01512e-06   7.03386e-07 DIIS
   @DF-RHF iter   8:  -311.61209500721685   -1.01226e-07   1.32352e-07 DIIS
   @DF-RHF iter   9:  -311.61209501072807   -3.51122e-09   2.99839e-08 DIIS
   @DF-RHF iter  10:  -311.61209501085870   -1.30626e-10   1.15472e-08 DIIS
   @DF-RHF iter  11:  -311.61209501087052   -1.18234e-11   3.67849e-09 DIIS
  Energy and wave function converged.


  ==> Post-Iterations <==

    Orbital Energies [Eh]
    ---------------------

    Doubly Occupied:                                                      

       1A    -20.759938     2A    -20.757486     3A    -20.752967  
       4A    -20.733447     5A     -2.538939     6A     -1.542439  
       7A     -1.533891     8A     -1.531363     9A     -1.525180  
      10A     -0.917429    11A     -0.912375    12A     -0.905364  
      13A     -0.898245    14A     -0.805355    15A     -0.778787  
      16A     -0.768214    17A     -0.750670    18A     -0.711710  
      19A     -0.706157    20A     -0.702031    21A     -0.680829  

    Virtual:                                                              

      22A     -0.104984    23A     -0.083255    24A     -0.080659  
      25A     -0.066012    26A     -0.051987    27A     -0.046642  
      28A     -0.045637    29A     -0.042335    30A     -0.036665  
      31A     -0.033027    32A     -0.032366    33A     -0.025295  
      34A     -0.019696    35A     -0.011508    36A     -0.008664  
      37A      0.003350    38A      0.018924    39A      0.028235  
      40A      0.030819    41A      0.038265    42A      0.042530  
      43A      0.046046    44A      0.050830    45A      0.054143  
      46A      0.058890    47A      0.060666    48A      0.067886  
      49A      0.071270    50A      0.078893    51A      0.084658  
      52A      0.090829    53A      0.102714    54A      0.112109  
      55A      0.113576    56A      0.119433    57A      0.125598  
      58A      0.141548    59A      0.143992    60A      0.159527  
      61A      0.166848    62A      0.171324    63A      0.187745  
      64A      0.189756    65A      0.198278    66A      0.205995  
      67A      0.210019    68A      0.216798    69A      0.225309  
      70A      0.231542    71A      0.244576    72A      0.250314  
      73A      0.260931    74A      0.262607    75A      0.266052  
      76A      0.269540    77A      0.272566    78A      0.275506  
      79A      0.285814    80A      0.287018    81A      0.295750  
      82A      0.302885    83A      0.305684    84A      0.309390  
      85A      0.321714    86A      0.329264    87A      0.332936  
      88A      0.336099    89A      0.343095    90A      0.352945  
      91A      0.358312    92A      0.363177    93A      0.364989  
      94A      0.371756    95A      0.379039    96A      0.379751  
      97A      0.388172    98A      0.390174    99A      0.395963  
     100A      0.408951   101A      0.413036   102A      0.429815  
     103A      0.434682   104A      0.439635   105A      0.465435  
     106A      0.471989   107A      0.500360   108A      0.522892  
     109A      0.542709   110A      0.563706   111A      0.573772  
     112A      0.591333   113A      0.593698   114A      0.598798  
     115A      0.607419   116A      0.616050   117A      0.624313  
     118A      0.635391   119A      0.642849   120A      0.651090  
     121A      0.670056   122A      0.676348   123A      0.685910  
     124A      0.693564   125A      0.697848   126A      0.709924  
     127A      0.719692   128A      0.743010   129A      0.755191  
     130A      0.757709   131A      0.770556   132A      0.780556  
     133A      0.789656   134A      0.797845   135A      0.802776  
     136A      0.808329   137A      0.818271   138A      0.826216  
     139A      0.830531   140A      0.848502   141A      0.851525  
     142A      0.857591   143A      0.863235   144A      0.868448  
     145A      0.870007   146A      0.881441   147A      0.889995  
     148A      0.895164   149A      0.899599   150A      0.915490  
     151A      0.925768   152A      0.934626   153A      0.941935  
     154A      0.945381   155A      0.959861   156A      0.966470  
     157A      0.974351   158A      0.983295   159A      0.988833  
     160A      0.994302   161A      1.005372   162A      1.011917  
     163A      1.019198   164A      1.038664   165A      1.045156  
     166A      1.049913   167A      1.060929   168A      1.077821  
     169A      1.095744   170A      1.097397   171A      1.115737  
     172A      1.125745   173A      1.132420   174A      1.139094  
     175A      1.148168   176A      1.168331   177A      1.187624  
     178A      1.200049   179A      1.203582   180A      1.213269  
     181A      1.218797   182A      1.236893   183A      1.263379  
     184A      1.275296   185A      1.285333   186A      1.296591  
     187A      1.302990   188A      1.318896   189A      1.352362  
     190A      1.361320   191A      1.377235   192A      1.389173  
     193A      1.411243   194A      1.419412   195A      1.447817  
     196A      1.473502   197A      1.493191   198A      1.506365  
     199A      1.544222   200A      1.556125   201A      1.564122  
     202A      1.582155   203A      1.594618   204A      1.605386  
     205A      1.625399   206A      1.646180   207A      1.653827  
     208A      1.671253   209A      1.680136   210A      1.698565  
     211A      1.705711   212A      1.716278   213A      1.726261  
     214A      1.747733   215A      1.786812   216A      1.794130  
     217A      1.830206   218A      1.862780   219A      1.881325  
     220A      1.892841   221A      1.907936   222A      1.920138  
     223A      1.935612   224A      1.968751   225A      1.992780  
     226A      2.024940   227A      2.048737   228A      2.089264  
     229A      2.103844   230A      2.170344   231A      2.194647  
     232A      2.210342   233A      2.226366   234A      2.248612  
     235A      2.261159   236A      2.278987   237A      2.303578  
     238A      2.317412   239A      2.338231   240A      2.367584  
     241A      2.373936   242A      2.385026   243A      2.411706  
     244A      2.423536   245A      2.445774   246A      2.453465  
     247A      2.472363   248A      2.484548   249A      2.506837  
     250A      2.526129   251A      2.552222   252A      2.560161  
     253A      2.588385   254A      2.598152   255A      2.608519  
     256A      2.617179   257A      2.625613   258A      2.647661  
     259A      2.653896   260A      2.668936   261A      2.680582  
     262A      2.706927   263A      2.709513   264A      2.721101  
     265A      2.744785   266A      2.750665   267A      2.766165  
     268A      2.788246   269A      2.797579   270A      2.817252  
     271A      2.837840   272A      2.845657   273A      2.858464  
     274A      2.895148   275A      2.932120   276A      3.026684  
     277A      3.100501   278A      3.642949   279A      3.676333  
     280A      3.697714   281A      3.746224   282A      3.772504  
     283A      3.777681   284A      3.809829   285A      3.852089  
     286A      3.907029   287A      3.919420   288A      3.950913  
     289A      3.991474   290A      4.028366   291A      4.081223  
     292A      4.111467   293A      4.129264   294A      4.150514  
     295A      4.157959   296A      4.160622   297A      4.170205  
     298A      4.177246   299A      4.210584   300A      4.215286  
     301A      4.251610   302A      4.270620   303A      4.289123  
     304A      4.308454   305A      4.328771   306A      4.334615  
     307A      4.352429   308A      4.366151   309A      4.382357  
     310A      4.390137   311A      4.398712   312A      4.426640  
     313A      4.444422   314A      4.467502   315A      4.480851  
     316A      4.482476   317A      4.511255   318A      4.517069  
     319A      4.557426   320A      4.559620   321A      4.583229  
     322A      4.609283   323A      4.626655   324A      4.642826  
     325A      4.661809   326A      4.683377   327A      4.693829  
     328A      4.715440   329A      4.744710   330A      4.867289  
     331A      4.937826   332A      4.961878   333A      4.970570  
     334A      5.002560   335A      5.012286   336A      5.041412  
     337A      5.092677   338A      5.124906   339A      5.154611  
     340A      5.183394   341A      5.192105   342A      5.228602  
     343A      5.233243   344A      5.271744   345A      5.311857  
     346A      5.332823   347A      5.362471   348A      5.392901  
     349A      5.439494   350A      5.488239   351A      5.664713  
     352A      5.685039   353A      5.802897   354A      5.815601  
     355A      6.032408   356A      6.095574   357A      6.146304  
     358A      6.225488   359A      6.436101   360A      6.468555  
     361A      6.509848   362A      6.540138   363A      6.606095  
     364A      6.638353   365A      6.658771   366A      6.682905  
     367A      6.708037   368A      6.747496   369A      6.777606  
     370A      6.815549   371A      6.982977   372A      6.999377  
     373A      7.040821   374A      7.083407   375A      7.100497  
     376A      7.123074   377A      7.152806   378A      7.162602  
     379A      7.175210   380A      7.179364   381A      7.183779  
     382A      7.202651   383A      7.212881   384A      7.225880  
     385A      7.228868   386A      7.238910   387A      7.243873  
     388A      7.267272   389A      7.271792   390A      7.280325  
     391A      7.305830   392A      7.345023   393A      7.368808  
     394A      7.428687   395A      7.465450   396A      7.477697  
     397A      7.560827   398A      7.625119   399A      7.700286  
     400A      7.709916   401A      7.746204   402A      7.767966  
     403A      7.778215   404A      7.819049   405A      7.872756  
     406A      7.958524   407A      8.558299   408A      8.597365  
     409A      8.667901   410A      8.736562   411A     15.315341  
     412A     15.603501   413A     15.859508   414A     16.551335  

    Final Occupation by Irrep:
              A 
    DOCC [    21 ]
    NA   [    21 ]
    NB   [    21 ]

  @DF-RHF Final Energy:  -311.61209501087052

   => Energetics <=

    Nuclear Repulsion Energy =            162.6348028398822692
    One-Electron Energy =                -746.0681631144614130
    Two-Electron Energy =                 271.8212652637086535
    Total Energy =                       -311.6120950108705188

Computation Completed


Properties will be evaluated at   0.000000,   0.000000,   0.000000 [a0]

Properties computed using the SCF density matrix


 Multipole Moments:

 ------------------------------------------------------------------------------------
     Multipole            Electronic (a.u.)      Nuclear  (a.u.)        Total (a.u.)
 ------------------------------------------------------------------------------------

 L = 1.  Multiply by 2.5417464519 to convert [e a0] to [Debye]
 Dipole X            :         19.6537822          -20.9403764           -1.2865943
 Dipole Y            :         -4.8704487            5.8088272            0.9383785
 Dipole Z            :          4.1074558           -4.7235802           -0.6161244
 Magnitude           :                                                    1.7074801

 ------------------------------------------------------------------------------------

*** tstop() called on moses-razer at Sun Jan  7 06:59:48 2024
Module time:
	user time   =      36.47 seconds =       0.61 minutes
	system time =       1.63 seconds =       0.03 minutes
	total time  =          7 seconds =       0.12 minutes
Total time:
	user time   =      36.47 seconds =       0.61 minutes
	system time =       1.63 seconds =       0.03 minutes
	total time  =          7 seconds =       0.12 minutes

  //>>>>>>>>>>>>>>>>>>>>>>>>>>>>>>>>>>>//
  //            Monomer A HF           //
  //<<<<<<<<<<<<<<<<<<<<<<<<<<<<<<<<<<<//

   => Libint2 <=

    Primary   basis highest AM E, G, H:  5, 4, 3
    Auxiliary basis highest AM E, G, H:  6, 5, 4
    Onebody   basis highest AM E, G, H:  6, 5, 4
    Solid Harmonics ordering:            gaussian

*** tstart() called on moses-razer
*** at Sun Jan  7 06:59:48 2024

   => Loading Basis Set <=

    Name: AUG-CC-PVTZ
    Role: ORBITAL
    Keyword: BASIS
    atoms 1                     entry LI         line    85 file /home/kchung25/anaconda3/envs/p415env/share/psi4/basis/aug-cc-pvtz.gbs 
    atoms 2, 5, 8, 11           entry O          line   331 file /home/kchung25/anaconda3/envs/p415env/share/psi4/basis/aug-cc-pvtz.gbs 
    atoms 3-4, 6-7, 9-10, 12-13 entry H          line    40 file /home/kchung25/anaconda3/envs/p415env/share/psi4/basis/aug-cc-pvtz.gbs 


         ---------------------------------------------------------
                                   SCF
               by Justin Turney, Rob Parrish, Andy Simmonett
                          and Daniel G. A. Smith
                              RHF Reference
                        6 Threads,  57220 MiB Core
         ---------------------------------------------------------

  ==> Geometry <==

    Molecular point group: c1
    Full point group: C1

    Geometry (in Angstrom), charge = 1, multiplicity = 1:

       Center              X                  Y                   Z               Mass       
    ------------   -----------------  -----------------  -----------------  -----------------
         LI           0.000000000000     0.000000000000     0.000000000000     7.016003436600
      Gh(O)           0.555055000000     1.756291000000    -0.173155000000    15.994914619570
      Gh(H)           1.019401000000     2.013188000000    -0.983328000000     1.007825032230
      Gh(H)           0.529311000000     2.536414000000     0.420306000000     1.007825032230
      Gh(O)          -1.811688000000     0.111938000000    -0.737650000000    15.994914619570
      Gh(H)          -2.603305000000     0.554410000000    -0.404862000000     1.007825032230
      Gh(H)          -2.093361000000    -0.742220000000    -1.185759000000     1.007825032230
      Gh(O)           0.926386000000    -1.366764000000    -1.203158000000    15.994914619570
      Gh(H)           0.261493000000    -1.902613000000    -1.696554000000     1.007825032230
      Gh(H)           1.278228000000    -0.703441000000    -1.798368000000     1.007825032230
      Gh(O)          -0.610731000000    -0.311488000000     1.950183000000    15.994914619570
      Gh(H)          -1.529573000000    -0.612056000000     1.947277000000     1.007825032230
      Gh(H)          -0.415540000000     0.410401000000     2.511917000000     1.007825032230

  Running in c1 symmetry.

  Rotational constants: A =      0.09802  B =      0.08070  C =      0.07470 [cm^-1]
  Rotational constants: A =   2938.41599  B =   2419.26837  C =   2239.35681 [MHz]
  Nuclear repulsion =    0.000000000000000

  Charge       = 1
  Multiplicity = 1
  Electrons    = 2
  Nalpha       = 1
  Nbeta        = 1

  ==> Algorithm <==

  SCF Algorithm Type is DF.
  DIIS enabled.
  MOM disabled.
  Fractional occupation disabled.
  Guess Type is SAD.
  Energy threshold   = 1.00e-08
  Density threshold  = 1.00e-08
  Integral threshold = 1.00e-12

  ==> Primary Basis <==

  Basis Set: AUG-CC-PVTZ
    Blend: AUG-CC-PVTZ
    Number of shells: 142
    Number of basis functions: 414
    Number of Cartesian functions: 475
    Spherical Harmonics?: true
    Max angular momentum: 3

   => Loading Basis Set <=

    Name: (AUG-CC-PVTZ AUX)
    Role: JKFIT
    Keyword: DF_BASIS_SCF
    atoms 1                     entry LI         line    54 file /home/kchung25/anaconda3/envs/p415env/share/psi4/basis/def2-universal-jkfit.gbs 
    atoms 2, 5, 8, 11           entry O          line   286 file /home/kchung25/anaconda3/envs/p415env/share/psi4/basis/aug-cc-pvtz-jkfit.gbs 
    atoms 3-4, 6-7, 9-10, 12-13 entry H          line    70 file /home/kchung25/anaconda3/envs/p415env/share/psi4/basis/aug-cc-pvtz-jkfit.gbs 

  ==> Integral Setup <==

  ==> DiskDFJK: Density-Fitted J/K Matrices <==

    J tasked:                  Yes
    K tasked:                  Yes
    wK tasked:                  No
    OpenMP threads:              6
    Integrals threads:           6
    Memory [MiB]:            42915
    Algorithm:                Core
    Integral Cache:           LOAD
    Schwarz Cutoff:          1E-12
    Fitting Condition:       1E-10

   => Auxiliary Basis Set <=

  Basis Set: (AUG-CC-PVTZ AUX)
    Blend: AUG-CC-PVTZ-JKFIT + DEF2-UNIVERSAL-JKFIT
    Number of shells: 249
    Number of basis functions: 835
    Number of Cartesian functions: 1024
    Spherical Harmonics?: true
    Max angular momentum: 4

  Minimum eigenvalue in the overlap matrix is 1.4976599647E-05.
  Reciprocal condition number of the overlap matrix is 1.0288619908E-06.
    Using symmetric orthogonalization.

  ==> Pre-Iterations <==

  SCF Guess: Superposition of Atomic Densities via on-the-fly atomic UHF (no occupation information).

   -------------------------
    Irrep   Nso     Nmo    
   -------------------------
     A        414     414 
   -------------------------
    Total     414     414
   -------------------------

  ==> Iterations <==

                           Total Energy        Delta E     RMS |[F,P]|

   @DF-RHF iter SAD:    -7.31418359482243   -7.31418e+00   0.00000e+00 
   @DF-RHF iter   1:    -7.23638289466726    7.78007e-02   5.48758e-06 DIIS
   @DF-RHF iter   2:    -7.23638481701388   -1.92235e-06   6.69221e-07 DIIS
   @DF-RHF iter   3:    -7.23638484851960   -3.15057e-08   3.47633e-08 DIIS
   @DF-RHF iter   4:    -7.23638484858176   -6.21538e-11   2.30961e-10 DIIS
  Energy and wave function converged.


  ==> Post-Iterations <==

    Orbital Energies [Eh]
    ---------------------

    Doubly Occupied:                                                      

       1A     -2.792353  

    Virtual:                                                              

       2A     -0.196302     3A     -0.128603     4A     -0.128602  
       5A     -0.128599     6A     -0.073772     7A     -0.056393  
       8A     -0.056391     9A     -0.056387    10A     -0.051420  
      11A     -0.051254    12A     -0.050775    13A     -0.046965  
      14A     -0.043562    15A     -0.025641    16A     -0.010189  
      17A     -0.009297    18A     -0.008528    19A     -0.007804  
      20A     -0.006576    21A      0.002060    22A      0.012059  
      23A      0.014281    24A      0.018211    25A      0.020253  
      26A      0.023277    27A      0.039042    28A      0.041934  
      29A      0.048082    30A      0.054518    31A      0.061304  
      32A      0.080303    33A      0.082928    34A      0.090807  
      35A      0.092433    36A      0.093778    37A      0.107564  
      38A      0.115722    39A      0.131788    40A      0.133056  
      41A      0.142650    42A      0.147620    43A      0.154572  
      44A      0.157261    45A      0.162808    46A      0.165286  
      47A      0.177558    48A      0.179777    49A      0.188258  
      50A      0.198712    51A      0.204136    52A      0.210994  
      53A      0.214613    54A      0.227946    55A      0.229721  
      56A      0.240978    57A      0.245796    58A      0.250074  
      59A      0.258975    60A      0.261949    61A      0.270803  
      62A      0.273988    63A      0.283650    64A      0.285793  
      65A      0.294571    66A      0.301318    67A      0.302642  
      68A      0.306403    69A      0.310382    70A      0.313458  
      71A      0.319680    72A      0.344322    73A      0.346926  
      74A      0.348783    75A      0.355048    76A      0.360571  
      77A      0.361924    78A      0.374656    79A      0.380154  
      80A      0.388076    81A      0.393067    82A      0.402686  
      83A      0.412494    84A      0.415969    85A      0.424064  
      86A      0.436149    87A      0.442362    88A      0.455210  
      89A      0.477666    90A      0.529630    91A      0.553506  
      92A      0.558443    93A      0.561770    94A      0.566617  
      95A      0.584940    96A      0.596932    97A      0.604746  
      98A      0.615049    99A      0.624559   100A      0.630052  
     101A      0.641708   102A      0.649346   103A      0.664454  
     104A      0.670574   105A      0.678267   106A      0.685081  
     107A      0.698930   108A      0.705677   109A      0.710732  
     110A      0.712187   111A      0.723371   112A      0.731425  
     113A      0.734248   114A      0.749930   115A      0.760330  
     116A      0.770162   117A      0.780259   118A      0.788006  
     119A      0.804013   120A      0.808211   121A      0.812962  
     122A      0.823297   123A      0.839913   124A      0.846244  
     125A      0.856927   126A      0.859938   127A      0.868557  
     128A      0.885881   129A      0.889549   130A      0.899930  
     131A      0.907371   132A      0.916320   133A      0.924827  
     134A      0.926848   135A      0.943571   136A      0.948391  
     137A      0.952171   138A      0.962418   139A      0.969492  
     140A      0.981774   141A      0.989165   142A      0.998490  
     143A      1.018425   144A      1.021508   145A      1.029433  
     146A      1.036976   147A      1.042866   148A      1.058253  
     149A      1.069412   150A      1.090409   151A      1.096415  
     152A      1.103930   153A      1.111249   154A      1.131172  
     155A      1.142887   156A      1.161117   157A      1.164581  
     158A      1.171414   159A      1.184891   160A      1.188298  
     161A      1.198093   162A      1.213985   163A      1.230345  
     164A      1.233521   165A      1.245442   166A      1.254602  
     167A      1.271900   168A      1.281824   169A      1.293384  
     170A      1.300187   171A      1.321106   172A      1.338153  
     173A      1.354255   174A      1.360968   175A      1.375546  
     176A      1.402353   177A      1.429541   178A      1.461369  
     179A      1.473298   180A      1.520728   181A      1.545585  
     182A      1.572609   183A      1.594588   184A      1.606590  
     185A      1.623210   186A      1.649361   187A      1.657599  
     188A      1.685196   189A      1.697496   190A      1.705233  
     191A      1.724249   192A      1.731949   193A      1.754081  
     194A      1.756007   195A      1.766733   196A      1.784647  
     197A      1.790724   198A      1.801540   199A      1.807188  
     200A      1.830897   201A      1.840982   202A      1.853443  
     203A      1.865105   204A      1.885695   205A      1.904822  
     206A      1.914082   207A      1.926116   208A      1.948432  
     209A      1.990966   210A      2.198500   211A      2.238570  
     212A      2.253990   213A      2.267212   214A      2.301954  
     215A      2.303841   216A      2.309603   217A      2.325764  
     218A      2.354902   219A      2.367863   220A      2.381491  
     221A      2.404840   222A      2.417034   223A      2.431847  
     224A      2.445221   225A      2.467728   226A      2.471587  
     227A      2.504073   228A      2.521498   229A      2.558719  
     230A      2.561351   231A      2.571433   232A      2.599088  
     233A      2.605314   234A      2.665122   235A      2.689519  
     236A      2.702796   237A      2.719749   238A      2.727009  
     239A      2.751765   240A      2.775774   241A      2.793651  
     242A      2.819644   243A      2.869657   244A      2.897302  
     245A      2.932564   246A      2.990402   247A      2.993376  
     248A      3.006331   249A      3.026093   250A      3.036978  
     251A      3.064992   252A      3.066838   253A      3.083274  
     254A      3.091692   255A      3.096899   256A      3.099540  
     257A      3.133744   258A      3.141443   259A      3.151743  
     260A      3.168908   261A      3.192870   262A      3.217034  
     263A      3.238642   264A      3.306019   265A      3.309957  
     266A      3.411170   267A      3.445496   268A      3.501102  
     269A      3.538355   270A      3.564747   271A      3.570440  
     272A      3.619340   273A      3.661249   274A      4.139482  
     275A      4.185640   276A      4.203152   277A      4.233100  
     278A      4.271160   279A      4.361311   280A      4.373416  
     281A      4.391804   282A      4.412605   283A      4.433794  
     284A      4.445359   285A      4.471077   286A      4.485453  
     287A      4.512052   288A      4.535708   289A      4.543216  
     290A      4.563121   291A      4.587108   292A      4.591858  
     293A      4.620612   294A      4.628170   295A      4.654332  
     296A      4.673279   297A      4.734947   298A      4.791423  
     299A      4.811048   300A      4.825735   301A      4.843866  
     302A      4.865892   303A      4.894785   304A      4.913138  
     305A      4.917278   306A      4.945754   307A      4.978127  
     308A      4.998239   309A      5.019763   310A      5.039711  
     311A      5.048259   312A      5.098620   313A      5.107501  
     314A      5.120111   315A      5.267567   316A      5.273605  
     317A      5.312333   318A      5.348608   319A      5.382207  
     320A      5.406610   321A      5.409903   322A      5.434810  
     323A      5.470992   324A      5.512681   325A      5.526199  
     326A      5.614763   327A      5.623046   328A      5.676390  
     329A      5.703906   330A      5.768453   331A      6.000605  
     332A      6.054134   333A      6.130097   334A      6.142207  
     335A      6.161453   336A      6.188283   337A      6.224261  
     338A      6.289501   339A      6.504036   340A      6.528790  
     341A      6.650878   342A      6.744287   343A      6.821493  
     344A      6.851993   345A      6.887736   346A      6.990558  
     347A      7.454618   348A      7.493995   349A      7.516134  
     350A      7.532887   351A      7.545771   352A      7.609543  
     353A      7.622019   354A      7.640607   355A      7.847067  
     356A      7.851826   357A      7.915222   358A      7.971688  
     359A      7.976748   360A      7.994576   361A      8.001410  
     362A      8.025890   363A      8.037286   364A      8.076108  
     365A      8.111511   366A      8.191417   367A      8.450070  
     368A      8.497898   369A      8.507739   370A      8.514743  
     371A      8.548247   372A      8.572047   373A      8.591157  
     374A      8.778829   375A      9.564335   376A      9.635276  
     377A      9.676012   378A      9.716289   379A      9.723638  
     380A      9.735433   381A      9.746812   382A      9.770047  
     383A      9.772786   384A      9.796640   385A      9.817507  
     386A      9.851489   387A      9.923926   388A      9.957494  
     389A      9.971627   390A      9.995211   391A     10.799904  
     392A     10.868736   393A     10.889199   394A     10.916857  
     395A     11.494304   396A     11.549193   397A     11.621191  
     398A     11.688816   399A     11.792350   400A     11.950176  
     401A     11.992220   402A     12.210410   403A     13.258016  
     404A     13.317492   405A     13.330121   406A     13.468462  
     407A     13.651354   408A     13.745663   409A     13.773808  
     410A     13.801974   411A     63.998466   412A     64.513563  
     413A     65.073003   414A     66.239199  

    Final Occupation by Irrep:
              A 
    DOCC [     1 ]
    NA   [     1 ]
    NB   [     1 ]

  @DF-RHF Final Energy:    -7.23638484858176

   => Energetics <=

    Nuclear Repulsion Energy =              0.0000000000000000
    One-Electron Energy =                  -8.8880640206339869
    Two-Electron Energy =                   1.6516791720522295
    Total Energy =                         -7.2363848485817570

Computation Completed


Properties will be evaluated at   0.000000,   0.000000,   0.000000 [a0]

Properties computed using the SCF density matrix


 Multipole Moments:

 ------------------------------------------------------------------------------------
     Multipole            Electronic (a.u.)      Nuclear  (a.u.)        Total (a.u.)
 ------------------------------------------------------------------------------------

 L = 1.  Multiply by 2.5417464519 to convert [e a0] to [Debye]
 Dipole X            :         -0.0000035            0.0000000           -0.0000035
 Dipole Y            :         -0.0000037            0.0000000           -0.0000037
 Dipole Z            :          0.0000058            0.0000000            0.0000058
 Magnitude           :                                                    0.0000077

 ------------------------------------------------------------------------------------

*** tstop() called on moses-razer at Sun Jan  7 06:59:50 2024
Module time:
	user time   =      11.86 seconds =       0.20 minutes
	system time =       0.29 seconds =       0.00 minutes
	total time  =          2 seconds =       0.03 minutes
Total time:
	user time   =      48.36 seconds =       0.81 minutes
	system time =       1.92 seconds =       0.03 minutes
	total time  =          9 seconds =       0.15 minutes

  //>>>>>>>>>>>>>>>>>>>>>>>>>>>>>>>>>>>//
  //            Monomer B HF           //
  //<<<<<<<<<<<<<<<<<<<<<<<<<<<<<<<<<<<//

   => Libint2 <=

    Primary   basis highest AM E, G, H:  5, 4, 3
    Auxiliary basis highest AM E, G, H:  6, 5, 4
    Onebody   basis highest AM E, G, H:  6, 5, 4
    Solid Harmonics ordering:            gaussian

*** tstart() called on moses-razer
*** at Sun Jan  7 06:59:50 2024

   => Loading Basis Set <=

    Name: AUG-CC-PVTZ
    Role: ORBITAL
    Keyword: BASIS
    atoms 1                     entry LI         line    85 file /home/kchung25/anaconda3/envs/p415env/share/psi4/basis/aug-cc-pvtz.gbs 
    atoms 2, 5, 8, 11           entry O          line   331 file /home/kchung25/anaconda3/envs/p415env/share/psi4/basis/aug-cc-pvtz.gbs 
    atoms 3-4, 6-7, 9-10, 12-13 entry H          line    40 file /home/kchung25/anaconda3/envs/p415env/share/psi4/basis/aug-cc-pvtz.gbs 


         ---------------------------------------------------------
                                   SCF
               by Justin Turney, Rob Parrish, Andy Simmonett
                          and Daniel G. A. Smith
                              RHF Reference
                        6 Threads,  57220 MiB Core
         ---------------------------------------------------------

  ==> Geometry <==

    Molecular point group: c1
    Full point group: C1

    Geometry (in Angstrom), charge = 0, multiplicity = 1:

       Center              X                  Y                   Z               Mass       
    ------------   -----------------  -----------------  -----------------  -----------------
      Gh(LI)          0.000000000000     0.000000000000     0.000000000000     7.016003436600
         O            0.555055000000     1.756291000000    -0.173155000000    15.994914619570
         H            1.019401000000     2.013188000000    -0.983328000000     1.007825032230
         H            0.529311000000     2.536414000000     0.420306000000     1.007825032230
         O           -1.811688000000     0.111938000000    -0.737650000000    15.994914619570
         H           -2.603305000000     0.554410000000    -0.404862000000     1.007825032230
         H           -2.093361000000    -0.742220000000    -1.185759000000     1.007825032230
         O            0.926386000000    -1.366764000000    -1.203158000000    15.994914619570
         H            0.261493000000    -1.902613000000    -1.696554000000     1.007825032230
         H            1.278228000000    -0.703441000000    -1.798368000000     1.007825032230
         O           -0.610731000000    -0.311488000000     1.950183000000    15.994914619570
         H           -1.529573000000    -0.612056000000     1.947277000000     1.007825032230
         H           -0.415540000000     0.410401000000     2.511917000000     1.007825032230

  Running in c1 symmetry.

  Rotational constants: A =      0.09802  B =      0.08070  C =      0.07470 [cm^-1]
  Rotational constants: A =   2938.41599  B =   2419.26837  C =   2239.35681 [MHz]
  Nuclear repulsion =  131.914716327926868

  Charge       = 0
  Multiplicity = 1
  Electrons    = 40
  Nalpha       = 20
  Nbeta        = 20

  ==> Algorithm <==

  SCF Algorithm Type is DF.
  DIIS enabled.
  MOM disabled.
  Fractional occupation disabled.
  Guess Type is SAD.
  Energy threshold   = 1.00e-08
  Density threshold  = 1.00e-08
  Integral threshold = 1.00e-12

  ==> Primary Basis <==

  Basis Set: AUG-CC-PVTZ
    Blend: AUG-CC-PVTZ
    Number of shells: 142
    Number of basis functions: 414
    Number of Cartesian functions: 475
    Spherical Harmonics?: true
    Max angular momentum: 3

   => Loading Basis Set <=

    Name: (AUG-CC-PVTZ AUX)
    Role: JKFIT
    Keyword: DF_BASIS_SCF
    atoms 1                     entry LI         line    54 file /home/kchung25/anaconda3/envs/p415env/share/psi4/basis/def2-universal-jkfit.gbs 
    atoms 2, 5, 8, 11           entry O          line   286 file /home/kchung25/anaconda3/envs/p415env/share/psi4/basis/aug-cc-pvtz-jkfit.gbs 
    atoms 3-4, 6-7, 9-10, 12-13 entry H          line    70 file /home/kchung25/anaconda3/envs/p415env/share/psi4/basis/aug-cc-pvtz-jkfit.gbs 

  ==> Integral Setup <==

  ==> DiskDFJK: Density-Fitted J/K Matrices <==

    J tasked:                  Yes
    K tasked:                  Yes
    wK tasked:                  No
    OpenMP threads:              6
    Integrals threads:           6
    Memory [MiB]:            42915
    Algorithm:                Core
    Integral Cache:           LOAD
    Schwarz Cutoff:          1E-12
    Fitting Condition:       1E-10

   => Auxiliary Basis Set <=

  Basis Set: (AUG-CC-PVTZ AUX)
    Blend: AUG-CC-PVTZ-JKFIT + DEF2-UNIVERSAL-JKFIT
    Number of shells: 249
    Number of basis functions: 835
    Number of Cartesian functions: 1024
    Spherical Harmonics?: true
    Max angular momentum: 4

  Minimum eigenvalue in the overlap matrix is 1.4976599647E-05.
  Reciprocal condition number of the overlap matrix is 1.0288619908E-06.
    Using symmetric orthogonalization.

  ==> Pre-Iterations <==

  SCF Guess: Superposition of Atomic Densities via on-the-fly atomic UHF (no occupation information).

   -------------------------
    Irrep   Nso     Nmo    
   -------------------------
     A        414     414 
   -------------------------
    Total     414     414
   -------------------------

  ==> Iterations <==

                           Total Energy        Delta E     RMS |[F,P]|

   @DF-RHF iter SAD:  -301.90680417094416   -3.01907e+02   0.00000e+00 
   @DF-RHF iter   1:  -303.84488570133124   -1.93808e+00   2.31023e-03 ADIIS/DIIS
   @DF-RHF iter   2:  -304.06046990905003   -2.15584e-01   1.62955e-03 ADIIS/DIIS
   @DF-RHF iter   3:  -304.20520673715208   -1.44737e-01   1.12767e-04 ADIIS/DIIS
   @DF-RHF iter   4:  -304.20709796838207   -1.89123e-03   3.12367e-05 DIIS
   @DF-RHF iter   5:  -304.20723734158349   -1.39373e-04   1.08710e-05 DIIS
   @DF-RHF iter   6:  -304.20725327850573   -1.59369e-05   4.20395e-06 DIIS
   @DF-RHF iter   7:  -304.20725571639372   -2.43789e-06   8.80193e-07 DIIS
   @DF-RHF iter   8:  -304.20725592434161   -2.07948e-07   1.86828e-07 DIIS
   @DF-RHF iter   9:  -304.20725593191861   -7.57700e-09   7.02303e-08 DIIS
   @DF-RHF iter  10:  -304.20725593241423   -4.95618e-10   1.89040e-08 DIIS
   @DF-RHF iter  11:  -304.20725593246635   -5.21254e-11   5.06799e-09 DIIS
  Energy and wave function converged.


  ==> Post-Iterations <==

    Orbital Energies [Eh]
    ---------------------

    Doubly Occupied:                                                      

       1A    -20.547874     2A    -20.543087     3A    -20.538689  
       4A    -20.524393     5A     -1.319633     6A     -1.315926  
       7A     -1.314151     8A     -1.312480     9A     -0.708053  
      10A     -0.693063    11A     -0.690632    12A     -0.684201  
      13A     -0.561438    14A     -0.544537    15A     -0.534658  
      16A     -0.524932    17A     -0.491778    18A     -0.480571  
      19A     -0.476031    20A     -0.463178  

    Virtual:                                                              

      21A      0.008793    22A      0.016847    23A      0.017686  
      24A      0.023815    25A      0.047270    26A      0.053813  
      27A      0.055095    28A      0.057141    29A      0.061692  
      30A      0.068007    31A      0.069342    32A      0.076956  
      33A      0.083599    34A      0.088892    35A      0.093387  
      36A      0.116417    37A      0.145738    38A      0.154826  
      39A      0.157857    40A      0.164217    41A      0.169212  
      42A      0.171292    43A      0.175273    44A      0.183843  
      45A      0.186107    46A      0.192394    47A      0.194779  
      48A      0.199485    49A      0.207485    50A      0.214138  
      51A      0.223280    52A      0.228581    53A      0.242015  
      54A      0.248640    55A      0.255494    56A      0.270205  
      57A      0.283835    58A      0.290339    59A      0.307014  
      60A      0.315047    61A      0.326821    62A      0.334803  
      63A      0.337766    64A      0.351207    65A      0.360398  
      66A      0.368987    67A      0.374949    68A      0.381006  
      69A      0.385760    70A      0.397706    71A      0.404468  
      72A      0.409539    73A      0.417259    74A      0.421530  
      75A      0.425065    76A      0.430864    77A      0.434455  
      78A      0.438479    79A      0.443461    80A      0.450910  
      81A      0.453149    82A      0.457713    83A      0.460394  
      84A      0.474801    85A      0.476206    86A      0.482285  
      87A      0.489192    88A      0.499119    89A      0.504289  
      90A      0.509066    91A      0.511131    92A      0.517633  
      93A      0.523429    94A      0.525941    95A      0.533940  
      96A      0.538422    97A      0.554312    98A      0.562368  
      99A      0.567194   100A      0.582467   101A      0.597639  
     102A      0.606310   103A      0.629415   104A      0.643163  
     105A      0.682474   106A      0.719371   107A      0.742787  
     108A      0.745455   109A      0.762214   110A      0.769092  
     111A      0.771378   112A      0.781717   113A      0.799273  
     114A      0.808308   115A      0.812516   116A      0.819138  
     117A      0.828484   118A      0.850362   119A      0.853756  
     120A      0.865669   121A      0.870554   122A      0.878378  
     123A      0.890166   124A      0.892461   125A      0.900986  
     126A      0.912353   127A      0.922640   128A      0.932665  
     129A      0.947265   130A      0.954852   131A      0.957453  
     132A      0.969553   133A      0.976049   134A      0.977546  
     135A      0.997187   136A      1.003979   137A      1.009471  
     138A      1.015844   139A      1.029431   140A      1.033387  
     141A      1.044730   142A      1.049775   143A      1.052856  
     144A      1.058712   145A      1.068139   146A      1.081164  
     147A      1.082228   148A      1.089817   149A      1.098110  
     150A      1.112199   151A      1.116871   152A      1.119653  
     153A      1.132666   154A      1.142999   155A      1.149374  
     156A      1.158497   157A      1.170168   158A      1.183945  
     159A      1.189351   160A      1.196183   161A      1.202720  
     162A      1.220789   163A      1.223981   164A      1.237496  
     165A      1.240613   166A      1.259035   167A      1.277739  
     168A      1.288942   169A      1.307047   170A      1.311230  
     171A      1.319829   172A      1.322727   173A      1.347809  
     174A      1.354748   175A      1.369416   176A      1.383538  
     177A      1.393899   178A      1.408266   179A      1.412533  
     180A      1.432772   181A      1.449623   182A      1.472198  
     183A      1.476965   184A      1.482520   185A      1.505557  
     186A      1.522361   187A      1.541646   188A      1.550412  
     189A      1.576347   190A      1.583520   191A      1.619877  
     192A      1.639699   193A      1.655870   194A      1.691115  
     195A      1.694846   196A      1.721440   197A      1.726350  
     198A      1.744215   199A      1.748363   200A      1.757994  
     201A      1.775887   202A      1.794939   203A      1.813497  
     204A      1.822360   205A      1.835409   206A      1.843515  
     207A      1.872031   208A      1.879190   209A      1.897557  
     210A      1.904852   211A      1.921727   212A      1.940987  
     213A      1.995966   214A      2.004033   215A      2.031622  
     216A      2.052785   217A      2.081853   218A      2.097032  
     219A      2.112610   220A      2.138110   221A      2.187123  
     222A      2.213423   223A      2.231313   224A      2.257300  
     225A      2.301335   226A      2.325429   227A      2.359781  
     228A      2.388077   229A      2.414199   230A      2.419757  
     231A      2.440656   232A      2.455875   233A      2.468222  
     234A      2.489888   235A      2.501931   236A      2.537921  
     237A      2.550383   238A      2.561573   239A      2.578745  
     240A      2.602408   241A      2.638538   242A      2.652153  
     243A      2.663145   244A      2.686577   245A      2.697855  
     246A      2.716863   247A      2.721818   248A      2.740910  
     249A      2.776119   250A      2.784850   251A      2.801648  
     252A      2.809611   253A      2.821904   254A      2.841910  
     255A      2.848835   256A      2.869461   257A      2.876858  
     258A      2.890615   259A      2.904274   260A      2.925029  
     261A      2.930090   262A      2.953560   263A      2.954803  
     264A      2.967591   265A      2.988346   266A      3.003761  
     267A      3.025770   268A      3.043613   269A      3.051680  
     270A      3.064367   271A      3.078395   272A      3.114673  
     273A      3.164490   274A      3.166511   275A      3.197896  
     276A      3.303335   277A      3.472581   278A      3.855845  
     279A      3.896559   280A      3.915156   281A      3.959241  
     282A      3.982233   283A      3.985383   284A      4.027071  
     285A      4.060086   286A      4.110608   287A      4.128360  
     288A      4.162244   289A      4.198359   290A      4.274651  
     291A      4.315710   292A      4.336675   293A      4.343169  
     294A      4.361797   295A      4.366099   296A      4.373483  
     297A      4.377991   298A      4.397953   299A      4.423213  
     300A      4.457326   301A      4.464662   302A      4.490475  
     303A      4.499234   304A      4.524829   305A      4.536977  
     306A      4.544178   307A      4.561332   308A      4.576991  
     309A      4.593806   310A      4.603496   311A      4.617964  
     312A      4.635067   313A      4.647013   314A      4.674745  
     315A      4.688367   316A      4.700062   317A      4.734436  
     318A      4.743133   319A      4.761861   320A      4.766594  
     321A      4.808829   322A      4.827727   323A      4.839988  
     324A      4.859765   325A      4.880493   326A      4.891230  
     327A      4.920083   328A      4.929773   329A      4.953762  
     330A      5.141653   331A      5.169976   332A      5.183229  
     333A      5.198948   334A      5.220073   335A      5.253238  
     336A      5.297996   337A      5.331894   338A      5.365371  
     339A      5.395080   340A      5.407124   341A      5.434242  
     342A      5.448634   343A      5.456443   344A      5.492644  
     345A      5.529223   346A      5.558893   347A      5.573947  
     348A      5.664561   349A      5.695156   350A      5.874129  
     351A      5.895308   352A      5.999520   353A      6.012517  
     354A      6.241161   355A      6.315743   356A      6.362629  
     357A      6.446494   358A      6.655836   359A      6.684107  
     360A      6.723486   361A      6.755447   362A      6.835821  
     363A      6.859091   364A      6.891199   365A      6.903179  
     366A      6.932091   367A      6.969326   368A      6.999940  
     369A      7.042813   370A      7.199045   371A      7.224404  
     372A      7.264262   373A      7.302893   374A      7.317434  
     375A      7.345995   376A      7.371651   377A      7.380740  
     378A      7.394378   379A      7.398851   380A      7.401866  
     381A      7.423628   382A      7.431422   383A      7.444542  
     384A      7.448005   385A      7.457150   386A      7.460454  
     387A      7.484005   388A      7.489303   389A      7.502946  
     390A      7.517017   391A      7.570776   392A      7.589467  
     393A      7.641150   394A      7.680007   395A      7.699533  
     396A      7.771360   397A      7.812673   398A      7.918809  
     399A      7.930748   400A      7.962485   401A      7.990511  
     402A      7.997344   403A      8.036439   404A      8.090055  
     405A      8.169686   406A      8.769767   407A      8.812849  
     408A      8.879244   409A      8.942657   410A     12.926579  
     411A     15.527967   412A     15.832778   413A     16.113872  
     414A     16.771445  

    Final Occupation by Irrep:
              A 
    DOCC [    20 ]
    NA   [    20 ]
    NB   [    20 ]

  @DF-RHF Final Energy:  -304.20725593246635

   => Energetics <=

    Nuclear Repulsion Energy =            131.9147163279268682
    One-Electron Energy =                -683.7053317876024039
    Two-Electron Energy =                 247.5833595272092111
    Total Energy =                       -304.2072559324663530

Computation Completed


Properties will be evaluated at   0.000000,   0.000000,   0.000000 [a0]

Properties computed using the SCF density matrix


 Multipole Moments:

 ------------------------------------------------------------------------------------
     Multipole            Electronic (a.u.)      Nuclear  (a.u.)        Total (a.u.)
 ------------------------------------------------------------------------------------

 L = 1.  Multiply by 2.5417464519 to convert [e a0] to [Debye]
 Dipole X            :         19.8928806          -20.9403764           -1.0474958
 Dipole Y            :         -4.9988575            5.8088272            0.8099697
 Dipole Z            :          4.1928477           -4.7235802           -0.5307325
 Magnitude           :                                                    1.4265257

 ------------------------------------------------------------------------------------

*** tstop() called on moses-razer at Sun Jan  7 06:59:55 2024
Module time:
	user time   =      28.71 seconds =       0.48 minutes
	system time =       0.71 seconds =       0.01 minutes
	total time  =          5 seconds =       0.08 minutes
Total time:
	user time   =      77.09 seconds =       1.28 minutes
	system time =       2.63 seconds =       0.04 minutes
	total time  =         14 seconds =       0.23 minutes
  Constructing Basis Sets for SAPT...

   => Loading Basis Set <=

    Name: (AUG-CC-PVTZ AUX)
    Role: RIFIT
    Keyword: DF_BASIS_SAPT
    atoms 1                     entry LI         line    90 file /home/kchung25/anaconda3/envs/p415env/share/psi4/basis/def2-qzvpp-ri.gbs 
    atoms 2, 5, 8, 11           entry O          line   264 file /home/kchung25/anaconda3/envs/p415env/share/psi4/basis/aug-cc-pvtz-ri.gbs 
    atoms 3-4, 6-7, 9-10, 12-13 entry H          line    30 file /home/kchung25/anaconda3/envs/p415env/share/psi4/basis/aug-cc-pvtz-ri.gbs 

   => Loading Basis Set <=

    Name: (AUG-CC-PVTZ AUX)
    Role: JKFIT
    Keyword: DF_BASIS_ELST
    atoms 1                     entry LI         line    54 file /home/kchung25/anaconda3/envs/p415env/share/psi4/basis/def2-universal-jkfit.gbs 
    atoms 2, 5, 8, 11           entry O          line   286 file /home/kchung25/anaconda3/envs/p415env/share/psi4/basis/aug-cc-pvtz-jkfit.gbs 
    atoms 3-4, 6-7, 9-10, 12-13 entry H          line    70 file /home/kchung25/anaconda3/envs/p415env/share/psi4/basis/aug-cc-pvtz-jkfit.gbs 


  //>>>>>>>>>>>>>>>>>>>>>>>>>>>>>>>>>>>//
  //               SAPT2+              //
  //<<<<<<<<<<<<<<<<<<<<<<<<<<<<<<<<<<<//


*** tstart() called on moses-razer
*** at Sun Jan  7 06:59:55 2024

        SAPT2+  
    Ed Hohenstein
     6 June 2009

      Orbital Information
  --------------------------
    NSO        =       414
    NMO        =       414
    NRI        =       893
    NOCC A     =         1
    NOCC B     =        20
    FOCC A     =         0
    FOCC B     =         0
    NVIR A     =       413
    NVIR B     =       394

    Estimated memory usage: 2856.0 MB

    Natural Orbital Cutoff:   1.000E-06
    Disp(T3) Truncation:            Yes
    CCD (vv|vv) Truncation:         Yes
    MBPT T2 Truncation:             Yes

    Monomer A: 407 virtual orbitals dropped
    Monomer B: 63 virtual orbitals dropped

    Elst10,r            =    -0.149140245827 [Eh]
    Exch10 (S^2)        =     0.037604462954 [Eh]
    Exch10              =     0.037990963406 [Eh]
    Ind20,r (A<-B)      =    -0.000046119425 [Eh]
    Ind20,r (B<-A)      =    -0.077787942131 [Eh]
    Ind20,r             =    -0.077834061556 [Eh]
    Exch-Ind20,r (A<-B) =     0.000035313762 [Eh]
    Exch-Ind20,r (B<-A) =     0.024155641849 [Eh]
    Exch-Ind20,r        =     0.024190955611 [Eh]
    Disp20              =    -0.002826013298 [Eh]
    Disp20 (NO)         =    -0.002385657195 [Eh]
    Exch-Disp20         =     0.000308634508 [Eh]
    Elst12,r            =     0.010833002747 [Eh]
    Exch11              =    -0.000558453985 [Eh]
    Exch12              =     0.003599143172 [Eh]
    Ind22               =    -0.008976722802 [Eh]
    Disp21              =    -0.000111668102 [Eh]
    Disp22 (SDQ)        =    -0.000048858480 [Eh]

    (i =   1 of  20)          0 seconds
    (i =   2 of  20)          0 seconds
    (i =   3 of  20)          0 seconds
    (i =   4 of  20)          0 seconds
    (i =   5 of  20)          0 seconds
    (i =   6 of  20)          0 seconds
    (i =   7 of  20)          0 seconds
    (i =   8 of  20)          0 seconds
    (i =   9 of  20)          0 seconds
    (i =  10 of  20)          0 seconds
    (i =  11 of  20)          0 seconds
    (i =  12 of  20)          0 seconds
    (i =  13 of  20)          0 seconds
    (i =  14 of  20)          0 seconds
    (i =  15 of  20)          0 seconds
    (i =  16 of  20)          0 seconds
    (i =  17 of  20)          0 seconds
    (i =  18 of  20)          0 seconds
    (i =  19 of  20)          0 seconds
    (i =  20 of  20)          0 seconds

    Disp220 (T)         =    -0.000026816356 [Eh]

    (i =   1 of   1)          6 seconds

    Disp202 (T)         =    -0.000132703616 [Eh]

    Disp22 (T)          =    -0.000159519972 [Eh]

    Est. Disp220 (T)    =    -0.000031766248 [Eh]
    Est. Disp202 (T)    =    -0.000157198689 [Eh]

    Est. Disp22 (T)     =    -0.000188964937 [Eh]

    SAPT Results 
  --------------------------------------------------------------------------------------------------------
    Electrostatics               -138.30724308 [mEh]     -86.78910532 [kcal/mol]    -363.12561668 [kJ/mol]
      Elst10,r                   -149.14024583 [mEh]     -93.58691718 [kcal/mol]    -391.56766147 [kJ/mol]
      Elst12,r                     10.83300275 [mEh]       6.79781185 [kcal/mol]      28.44204479 [kJ/mol]

    Exchange                       41.03165259 [mEh]      25.74775073 [kcal/mol]     107.72858904 [kJ/mol]
      Exch10                       37.99096341 [mEh]      23.83968946 [kcal/mol]      99.74526068 [kJ/mol]
      Exch10(S^2)                  37.60446295 [mEh]      23.59715676 [kcal/mol]      98.73050388 [kJ/mol]
      Exch11(S^2)                  -0.55845399 [mEh]      -0.35043517 [kcal/mol]      -1.46622074 [kJ/mol]
      Exch12(S^2)                   3.59914317 [mEh]       2.25849644 [kcal/mol]       9.44954910 [kJ/mol]

    Induction                     -63.49168985 [mEh]     -39.84163688 [kcal/mol]    -166.69740873 [kJ/mol]
      Ind20,r                     -77.83406156 [mEh]     -48.84161101 [kcal/mol]    -204.35330046 [kJ/mol]
      Ind22                        -8.97672280 [mEh]      -5.63297860 [kcal/mol]     -23.56838247 [kJ/mol]
      Exch-Ind20,r                 24.19095561 [mEh]      15.18005383 [kcal/mol]      63.51334521 [kJ/mol]
      Exch-Ind22                    2.78998036 [mEh]       1.75073911 [kcal/mol]       7.32509242 [kJ/mol]
      delta HF,r (2)               -3.66184146 [mEh]      -2.29784020 [kcal/mol]      -9.61416342 [kJ/mol]

    Dispersion                     -2.86687031 [mEh]      -1.79898828 [kcal/mol]      -7.52696696 [kJ/mol]
      Disp20                       -2.82601330 [mEh]      -1.77335012 [kcal/mol]      -7.41969689 [kJ/mol]
      Disp21                       -0.11166810 [mEh]      -0.07007279 [kcal/mol]      -0.29318456 [kJ/mol]
      Disp22 (SDQ)                 -0.04885848 [mEh]      -0.03065916 [kcal/mol]      -0.12827792 [kJ/mol]
      Disp22 (T)                   -0.15951997 [mEh]      -0.10010029 [kcal/mol]      -0.41881963 [kJ/mol]
      Est. Disp22 (T)              -0.18896494 [mEh]      -0.11857729 [kcal/mol]      -0.49612737 [kJ/mol]
      Exch-Disp20                   0.30863451 [mEh]       0.19367108 [kcal/mol]       0.81031979 [kJ/mol]

  Total HF                       -168.45422982 [mEh]    -105.70662511 [kcal/mol]    -442.27651947 [kJ/mol]
  Total SAPT0                    -170.97160861 [mEh]    -107.28630415 [kcal/mol]    -448.88589657 [kJ/mol]
  Total SAPT2                    -163.28465912 [mEh]    -102.46267052 [kcal/mol]    -428.70381347 [kJ/mol]
  Total SAPT2+                   -163.63415064 [mEh]    -102.68197976 [kcal/mol]    -429.62140332 [kJ/mol]

  Special recipe for scaled SAPT0 (see Manual):
    Electrostatics sSAPT0        -149.14024583 [mEh]     -93.58691718 [kcal/mol]    -391.56766147 [kJ/mol]
    Exchange sSAPT0                37.99096341 [mEh]      23.83968946 [kcal/mol]      99.74526068 [kJ/mol]
    Induction sSAPT0              -56.55134730 [mEh]     -35.48650619 [kcal/mol]    -148.47554188 [kJ/mol]
    Dispersion sSAPT0              -2.50776416 [mEh]      -1.57364577 [kcal/mol]      -6.58413390 [kJ/mol]
  Total sSAPT0                   -170.20839389 [mEh]    -106.80737968 [kcal/mol]    -446.88207658 [kJ/mol]
  --------------------------------------------------------------------------------------------------------

*** tstop() called on moses-razer at Sun Jan  7 07:04:25 2024
Module time:
	user time   =    1495.16 seconds =      24.92 minutes
	system time =      30.61 seconds =       0.51 minutes
	total time  =        270 seconds =       4.50 minutes
Total time:
	user time   =    1573.06 seconds =      26.22 minutes
	system time =      33.25 seconds =       0.55 minutes
	total time  =        284 seconds =       4.73 minutes

    Psi4 stopped on: Sunday, 07 January 2024 07:04AM
    Psi4 wall time for execution: 0:04:44.63

*** Psi4 exiting successfully. Buy a developer a beer!
