
    -----------------------------------------------------------------------
          Psi4: An Open-Source Ab Initio Electronic Structure Package
                               Psi4 1.9 release

                         Git: Rev {} zzzzzzz 


    D. G. A. Smith, L. A. Burns, A. C. Simmonett, R. M. Parrish,
    M. C. Schieber, R. Galvelis, P. Kraus, H. Kruse, R. Di Remigio,
    A. Alenaizan, A. M. James, S. Lehtola, J. P. Misiewicz, M. Scheurer,
    R. A. Shaw, J. B. Schriber, Y. Xie, Z. L. Glick, D. A. Sirianni,
    J. S. O'Brien, J. M. Waldrop, A. Kumar, E. G. Hohenstein,
    B. P. Pritchard, B. R. Brooks, H. F. Schaefer III, A. Yu. Sokolov,
    K. Patkowski, A. E. DePrince III, U. Bozkaya, R. A. King,
    F. A. Evangelista, J. M. Turney, T. D. Crawford, C. D. Sherrill,
    J. Chem. Phys. 152(18) 184108 (2020). https://doi.org/10.1063/5.0006002

                            Additional Code Authors
    E. T. Seidl, C. L. Janssen, E. F. Valeev, M. L. Leininger,
    J. F. Gonthier, R. M. Richard, H. R. McAlexander, M. Saitow, X. Wang,
    P. Verma, M. H. Lechner, A. Jiang, S. Behnle, A. G. Heide,
    M. F. Herbst, and D. L. Poole

             Previous Authors, Complete List of Code Contributors,
                       and Citations for Specific Modules
    https://github.com/psi4/psi4/blob/master/codemeta.json
    https://github.com/psi4/psi4/graphs/contributors
    http://psicode.org/psi4manual/master/introduction.html#citing-psifour

    -----------------------------------------------------------------------


    Psi4 started on: Sunday, 07 January 2024 06:54AM

    Process ID: 569974
    Host:       moses-razer
    PSIDATADIR: /home/kchung25/anaconda3/envs/psi4_19/share/psi4
    Memory:     500.0 MiB
    Threads:    6
    
  ==> Input File <==

--------------------------------------------------------------------------
MEMORY 60 GB

molecule dimer {
1 1
Li     0.000000     0.000000     0.000000
--
0 1
O      1.718350     0.176551     0.544897
H      2.140398     0.825322    -0.025747
H      1.574066     0.694093     1.420858
O     -0.618594     1.178660    -1.431382
H     -1.462932     1.491536    -1.765382
H     -0.007693     1.643578    -2.053149
O     -0.276860    -1.382086    -1.514478
H     -0.026138    -2.301828    -1.619613
H     -0.080953    -0.943301    -2.378795
O     -1.025451    -0.316730     1.697479
H     -1.827661    -0.788100     1.402480
H     -0.931749    -0.447840     2.626507

units ang
no_reorient
no_com
symmetry c1
}

set {
basis        aug-cc-pVTZ
scf_type     df
}

energy("sapt2+")
--------------------------------------------------------------------------

  Memory set to  55.879 GiB by Python driver.

Scratch directory: /scratch/
   => Loading Basis Set <=

    Name: AUG-CC-PVTZ
    Role: ORBITAL
    Keyword: BASIS
    atoms 1                     entry LI         line    85 file /home/kchung25/anaconda3/envs/p415env/share/psi4/basis/aug-cc-pvtz.gbs 
    atoms 2, 5, 8, 11           entry O          line   331 file /home/kchung25/anaconda3/envs/p415env/share/psi4/basis/aug-cc-pvtz.gbs 
    atoms 3-4, 6-7, 9-10, 12-13 entry H          line    40 file /home/kchung25/anaconda3/envs/p415env/share/psi4/basis/aug-cc-pvtz.gbs 

   => Loading Basis Set <=

    Name: AUG-CC-PVTZ
    Role: ORBITAL
    Keyword: BASIS
    atoms 1                     entry LI         line    85 file /home/kchung25/anaconda3/envs/p415env/share/psi4/basis/aug-cc-pvtz.gbs 
    atoms 2, 5, 8, 11           entry O          line   331 file /home/kchung25/anaconda3/envs/p415env/share/psi4/basis/aug-cc-pvtz.gbs 
    atoms 3-4, 6-7, 9-10, 12-13 entry H          line    40 file /home/kchung25/anaconda3/envs/p415env/share/psi4/basis/aug-cc-pvtz.gbs 


  //>>>>>>>>>>>>>>>>>>>>>>>>>>>>>>>>>>>//
  //              Dimer HF             //
  //<<<<<<<<<<<<<<<<<<<<<<<<<<<<<<<<<<<//

   => Libint2 <=

    Primary   basis highest AM E, G, H:  5, 4, 3
    Auxiliary basis highest AM E, G, H:  6, 5, 4
    Onebody   basis highest AM E, G, H:  6, 5, 4
    Solid Harmonics ordering:            gaussian

*** tstart() called on moses-razer
*** at Sun Jan  7 06:54:54 2024

   => Loading Basis Set <=

    Name: AUG-CC-PVTZ
    Role: ORBITAL
    Keyword: BASIS
    atoms 1                     entry LI         line    85 file /home/kchung25/anaconda3/envs/p415env/share/psi4/basis/aug-cc-pvtz.gbs 
    atoms 2, 5, 8, 11           entry O          line   331 file /home/kchung25/anaconda3/envs/p415env/share/psi4/basis/aug-cc-pvtz.gbs 
    atoms 3-4, 6-7, 9-10, 12-13 entry H          line    40 file /home/kchung25/anaconda3/envs/p415env/share/psi4/basis/aug-cc-pvtz.gbs 


         ---------------------------------------------------------
                                   SCF
               by Justin Turney, Rob Parrish, Andy Simmonett
                          and Daniel G. A. Smith
                              RHF Reference
                        6 Threads,  57220 MiB Core
         ---------------------------------------------------------

  ==> Geometry <==

    Molecular point group: c1
    Full point group: C1

    Geometry (in Angstrom), charge = 1, multiplicity = 1:

       Center              X                  Y                   Z               Mass       
    ------------   -----------------  -----------------  -----------------  -----------------
         LI           0.000000000000     0.000000000000     0.000000000000     7.016003436600
         O            1.718350000000     0.176551000000     0.544897000000    15.994914619570
         H            2.140398000000     0.825322000000    -0.025747000000     1.007825032230
         H            1.574066000000     0.694093000000     1.420858000000     1.007825032230
         O           -0.618594000000     1.178660000000    -1.431382000000    15.994914619570
         H           -1.462932000000     1.491536000000    -1.765382000000     1.007825032230
         H           -0.007693000000     1.643578000000    -2.053149000000     1.007825032230
         O           -0.276860000000    -1.382086000000    -1.514478000000    15.994914619570
         H           -0.026138000000    -2.301828000000    -1.619613000000     1.007825032230
         H           -0.080953000000    -0.943301000000    -2.378795000000     1.007825032230
         O           -1.025451000000    -0.316730000000     1.697479000000    15.994914619570
         H           -1.827661000000    -0.788100000000     1.402480000000     1.007825032230
         H           -0.931749000000    -0.447840000000     2.626507000000     1.007825032230

  Running in c1 symmetry.

  Rotational constants: A =      0.11093  B =      0.07907  C =      0.07179 [cm^-1]
  Rotational constants: A =   3325.65752  B =   2370.48888  C =   2152.11876 [MHz]
  Nuclear repulsion =  163.457028386421655

  Charge       = 1
  Multiplicity = 1
  Electrons    = 42
  Nalpha       = 21
  Nbeta        = 21

  ==> Algorithm <==

  SCF Algorithm Type is DF.
  DIIS enabled.
  MOM disabled.
  Fractional occupation disabled.
  Guess Type is SAD.
  Energy threshold   = 1.00e-08
  Density threshold  = 1.00e-08
  Integral threshold = 1.00e-12

  ==> Primary Basis <==

  Basis Set: AUG-CC-PVTZ
    Blend: AUG-CC-PVTZ
    Number of shells: 142
    Number of basis functions: 414
    Number of Cartesian functions: 475
    Spherical Harmonics?: true
    Max angular momentum: 3

   => Loading Basis Set <=

    Name: (AUG-CC-PVTZ AUX)
    Role: JKFIT
    Keyword: DF_BASIS_SCF
    atoms 1                     entry LI         line    54 file /home/kchung25/anaconda3/envs/p415env/share/psi4/basis/def2-universal-jkfit.gbs 
    atoms 2, 5, 8, 11           entry O          line   286 file /home/kchung25/anaconda3/envs/p415env/share/psi4/basis/aug-cc-pvtz-jkfit.gbs 
    atoms 3-4, 6-7, 9-10, 12-13 entry H          line    70 file /home/kchung25/anaconda3/envs/p415env/share/psi4/basis/aug-cc-pvtz-jkfit.gbs 

  ==> Integral Setup <==

  ==> DiskDFJK: Density-Fitted J/K Matrices <==

    J tasked:                  Yes
    K tasked:                  Yes
    wK tasked:                  No
    OpenMP threads:              6
    Integrals threads:           6
    Memory [MiB]:            42915
    Algorithm:                Core
    Integral Cache:           SAVE
    Schwarz Cutoff:          1E-12
    Fitting Condition:       1E-10

   => Auxiliary Basis Set <=

  Basis Set: (AUG-CC-PVTZ AUX)
    Blend: AUG-CC-PVTZ-JKFIT + DEF2-UNIVERSAL-JKFIT
    Number of shells: 249
    Number of basis functions: 835
    Number of Cartesian functions: 1024
    Spherical Harmonics?: true
    Max angular momentum: 4

  Minimum eigenvalue in the overlap matrix is 1.2372631654E-05.
  Reciprocal condition number of the overlap matrix is 8.5927059075E-07.
    Using symmetric orthogonalization.

  ==> Pre-Iterations <==

  SCF Guess: Superposition of Atomic Densities via on-the-fly atomic UHF (no occupation information).

   -------------------------
    Irrep   Nso     Nmo    
   -------------------------
     A        414     414 
   -------------------------
    Total     414     414
   -------------------------

  ==> Iterations <==

                           Total Energy        Delta E     RMS |[F,P]|

   @DF-RHF iter SAD:  -309.57728559018904   -3.09577e+02   0.00000e+00 
   @DF-RHF iter   1:  -311.26151453352554   -1.68423e+00   2.30136e-03 DIIS/ADIIS
   @DF-RHF iter   2:  -311.48831508888719   -2.26801e-01   1.51439e-03 DIIS/ADIIS
   @DF-RHF iter   3:  -311.61008540612357   -1.21770e-01   1.13921e-04 DIIS/ADIIS
   @DF-RHF iter   4:  -311.61183907367877   -1.75367e-03   2.89892e-05 DIIS
   @DF-RHF iter   5:  -311.61195648741818   -1.17414e-04   7.85197e-06 DIIS
   @DF-RHF iter   6:  -311.61196674543459   -1.02580e-05   3.35633e-06 DIIS
   @DF-RHF iter   7:  -311.61196785512169   -1.10969e-06   7.33035e-07 DIIS
   @DF-RHF iter   8:  -311.61196796066235   -1.05541e-07   1.28503e-07 DIIS
   @DF-RHF iter   9:  -311.61196796382171   -3.15936e-09   2.77216e-08 DIIS
   @DF-RHF iter  10:  -311.61196796393938   -1.17666e-10   9.98156e-09 DIIS
  Energy and wave function converged.


  ==> Post-Iterations <==

    Orbital Energies [Eh]
    ---------------------

    Doubly Occupied:                                                      

       1A    -20.759946     2A    -20.759229     3A    -20.744964  
       4A    -20.733085     5A     -2.536369     6A     -1.545516  
       7A     -1.534793     8A     -1.531984     9A     -1.512037  
      10A     -0.906895    11A     -0.896133    12A     -0.886482  
      13A     -0.882184    14A     -0.808842    15A     -0.783713  
      16A     -0.777242    17A     -0.758483    18A     -0.712915  
      19A     -0.703318    20A     -0.694229    21A     -0.679505  

    Virtual:                                                              

      22A     -0.101885    23A     -0.079293    24A     -0.075294  
      25A     -0.069581    26A     -0.047920    27A     -0.046168  
      28A     -0.043941    29A     -0.041217    30A     -0.037926  
      31A     -0.031479    32A     -0.030834    33A     -0.026328  
      34A     -0.022701    35A     -0.012023    36A     -0.003742  
      37A      0.000684    38A      0.019371    39A      0.029448  
      40A      0.037727    41A      0.041163    42A      0.047224  
      43A      0.048886    44A      0.053488    45A      0.054841  
      46A      0.059626    47A      0.063241    48A      0.064949  
      49A      0.072057    50A      0.079473    51A      0.083634  
      52A      0.091576    53A      0.102863    54A      0.106950  
      55A      0.117398    56A      0.118133    57A      0.126498  
      58A      0.138997    59A      0.147885    60A      0.161212  
      61A      0.164302    62A      0.169441    63A      0.189794  
      64A      0.191268    65A      0.204737    66A      0.211887  
      67A      0.221117    68A      0.229146    69A      0.235503  
      70A      0.241090    71A      0.241506    72A      0.245629  
      73A      0.254370    74A      0.260094    75A      0.264464  
      76A      0.273260    77A      0.277990    78A      0.282567  
      79A      0.286693    80A      0.290953    81A      0.296266  
      82A      0.307738    83A      0.313858    84A      0.319551  
      85A      0.321859    86A      0.323851    87A      0.334666  
      88A      0.336253    89A      0.339151    90A      0.342382  
      91A      0.352766    92A      0.358956    93A      0.363503  
      94A      0.374055    95A      0.380230    96A      0.384155  
      97A      0.395507    98A      0.397871    99A      0.404309  
     100A      0.411190   101A      0.419384   102A      0.431687  
     103A      0.444544   104A      0.446254   105A      0.468448  
     106A      0.495611   107A      0.499217   108A      0.507399  
     109A      0.546852   110A      0.574104   111A      0.584084  
     112A      0.594317   113A      0.610643   114A      0.616087  
     115A      0.622454   116A      0.624633   117A      0.632928  
     118A      0.636607   119A      0.651248   120A      0.667368  
     121A      0.670481   122A      0.674849   123A      0.684814  
     124A      0.702508   125A      0.717432   126A      0.726974  
     127A      0.734004   128A      0.741979   129A      0.754925  
     130A      0.762753   131A      0.770964   132A      0.774959  
     133A      0.783356   134A      0.793840   135A      0.803890  
     136A      0.808553   137A      0.814746   138A      0.821472  
     139A      0.832886   140A      0.835508   141A      0.852304  
     142A      0.860804   143A      0.867940   144A      0.881430  
     145A      0.888650   146A      0.896253   147A      0.900749  
     148A      0.907951   149A      0.910202   150A      0.929713  
     151A      0.931482   152A      0.943526   153A      0.945246  
     154A      0.950757   155A      0.964323   156A      0.968552  
     157A      0.984660   158A      0.991719   159A      1.000507  
     160A      1.005553   161A      1.022947   162A      1.023339  
     163A      1.027155   164A      1.038779   165A      1.047753  
     166A      1.055860   167A      1.074503   168A      1.082935  
     169A      1.084736   170A      1.094286   171A      1.105744  
     172A      1.117266   173A      1.125910   174A      1.144804  
     175A      1.164162   176A      1.166703   177A      1.169477  
     178A      1.189005   179A      1.212938   180A      1.222156  
     181A      1.241465   182A      1.259731   183A      1.264857  
     184A      1.278705   185A      1.296436   186A      1.319007  
     187A      1.326990   188A      1.351554   189A      1.357054  
     190A      1.368556   191A      1.375494   192A      1.403282  
     193A      1.427960   194A      1.438899   195A      1.456935  
     196A      1.472876   197A      1.483238   198A      1.506459  
     199A      1.543305   200A      1.562992   201A      1.565414  
     202A      1.580122   203A      1.603414   204A      1.615510  
     205A      1.639539   206A      1.649036   207A      1.657994  
     208A      1.668011   209A      1.692467   210A      1.696590  
     211A      1.709738   212A      1.729445   213A      1.748716  
     214A      1.768461   215A      1.771288   216A      1.821233  
     217A      1.850115   218A      1.875540   219A      1.884201  
     220A      1.894631   221A      1.896838   222A      1.911381  
     223A      1.943965   224A      1.956298   225A      2.010417  
     226A      2.048378   227A      2.081656   228A      2.099525  
     229A      2.115261   230A      2.197139   231A      2.210884  
     232A      2.230962   233A      2.244747   234A      2.254801  
     235A      2.264749   236A      2.274156   237A      2.296354  
     238A      2.303647   239A      2.325509   240A      2.344063  
     241A      2.361731   242A      2.389677   243A      2.438163  
     244A      2.445472   245A      2.448085   246A      2.467388  
     247A      2.479596   248A      2.491173   249A      2.522755  
     250A      2.529756   251A      2.552990   252A      2.567989  
     253A      2.583591   254A      2.601831   255A      2.616503  
     256A      2.644219   257A      2.652659   258A      2.664215  
     259A      2.673188   260A      2.682066   261A      2.701400  
     262A      2.707198   263A      2.724822   264A      2.747618  
     265A      2.757461   266A      2.767743   267A      2.792973  
     268A      2.811468   269A      2.817596   270A      2.828469  
     271A      2.856611   272A      2.870154   273A      2.903675  
     274A      2.907344   275A      2.934181   276A      2.976462  
     277A      3.060913   278A      3.615565   279A      3.639781  
     280A      3.666799   281A      3.710134   282A      3.747096  
     283A      3.798546   284A      3.827061   285A      3.848416  
     286A      3.924182   287A      3.931534   288A      3.957430  
     289A      3.996101   290A      4.036383   291A      4.066082  
     292A      4.100828   293A      4.107489   294A      4.121623  
     295A      4.136399   296A      4.158956   297A      4.181104  
     298A      4.197364   299A      4.205547   300A      4.222018  
     301A      4.234401   302A      4.278049   303A      4.289353  
     304A      4.322915   305A      4.342447   306A      4.352329  
     307A      4.366509   308A      4.391635   309A      4.397904  
     310A      4.401911   311A      4.430622   312A      4.432426  
     313A      4.452348   314A      4.457542   315A      4.489545  
     316A      4.490761   317A      4.511353   318A      4.531630  
     319A      4.552321   320A      4.570445   321A      4.581177  
     322A      4.626877   323A      4.675678   324A      4.691728  
     325A      4.729646   326A      4.739841   327A      4.756836  
     328A      4.776047   329A      4.796291   330A      4.877402  
     331A      4.937282   332A      4.943810   333A      4.969588  
     334A      5.002757   335A      5.021222   336A      5.036678  
     337A      5.058995   338A      5.084324   339A      5.105780  
     340A      5.114332   341A      5.189531   342A      5.227958  
     343A      5.246933   344A      5.266886   345A      5.315888  
     346A      5.331036   347A      5.382398   348A      5.417973  
     349A      5.450515   350A      5.520425   351A      5.625811  
     352A      5.700357   353A      5.757891   354A      5.787647  
     355A      6.125673   356A      6.158494   357A      6.236827  
     358A      6.308508   359A      6.428123   360A      6.488993  
     361A      6.505292   362A      6.523923   363A      6.610734  
     364A      6.646065   365A      6.670317   366A      6.698111  
     367A      6.762741   368A      6.775446   369A      6.831418  
     370A      6.889273   371A      6.986496   372A      7.003446  
     373A      7.019837   374A      7.032492   375A      7.077742  
     376A      7.106537   377A      7.130371   378A      7.138058  
     379A      7.143514   380A      7.165906   381A      7.182103  
     382A      7.204091   383A      7.205488   384A      7.218079  
     385A      7.232857   386A      7.235610   387A      7.261803  
     388A      7.266514   389A      7.285364   390A      7.297807  
     391A      7.325327   392A      7.353664   393A      7.362730  
     394A      7.395426   395A      7.478195   396A      7.498080  
     397A      7.603991   398A      7.635095   399A      7.684560  
     400A      7.708976   401A      7.772674   402A      7.789701  
     403A      7.814967   404A      7.848760   405A      7.871868  
     406A      7.911752   407A      8.571687   408A      8.676292  
     409A      8.695715   410A      8.714482   411A     15.349232  
     412A     15.650259   413A     15.753069   414A     16.139610  

    Final Occupation by Irrep:
              A 
    DOCC [    21 ]
    NA   [    21 ]
    NB   [    21 ]

  @DF-RHF Final Energy:  -311.61196796393938

   => Energetics <=

    Nuclear Repulsion Energy =            163.4570283864216549
    One-Electron Energy =                -747.8422563459777166
    Two-Electron Energy =                 272.7732599956166268
    Total Energy =                       -311.6119679639393780

Computation Completed


Properties will be evaluated at   0.000000,   0.000000,   0.000000 [a0]

Properties computed using the SCF density matrix


 Multipole Moments:

 ------------------------------------------------------------------------------------
     Multipole            Electronic (a.u.)      Nuclear  (a.u.)        Total (a.u.)
 ------------------------------------------------------------------------------------

 L = 1.  Multiply by 2.5417464519 to convert [e a0] to [Debye]
 Dipole X            :          4.0341740           -4.2388485           -0.2046745
 Dipole Y            :          5.4051140           -4.8667629            0.5383511
 Dipole Z            :         14.4491363          -15.1569509           -0.7078146
 Magnitude           :                                                    0.9125322

 ------------------------------------------------------------------------------------

*** tstop() called on moses-razer at Sun Jan  7 06:55:01 2024
Module time:
	user time   =      35.68 seconds =       0.59 minutes
	system time =       1.57 seconds =       0.03 minutes
	total time  =          7 seconds =       0.12 minutes
Total time:
	user time   =      35.68 seconds =       0.59 minutes
	system time =       1.57 seconds =       0.03 minutes
	total time  =          7 seconds =       0.12 minutes

  //>>>>>>>>>>>>>>>>>>>>>>>>>>>>>>>>>>>//
  //            Monomer A HF           //
  //<<<<<<<<<<<<<<<<<<<<<<<<<<<<<<<<<<<//

   => Libint2 <=

    Primary   basis highest AM E, G, H:  5, 4, 3
    Auxiliary basis highest AM E, G, H:  6, 5, 4
    Onebody   basis highest AM E, G, H:  6, 5, 4
    Solid Harmonics ordering:            gaussian

*** tstart() called on moses-razer
*** at Sun Jan  7 06:55:01 2024

   => Loading Basis Set <=

    Name: AUG-CC-PVTZ
    Role: ORBITAL
    Keyword: BASIS
    atoms 1                     entry LI         line    85 file /home/kchung25/anaconda3/envs/p415env/share/psi4/basis/aug-cc-pvtz.gbs 
    atoms 2, 5, 8, 11           entry O          line   331 file /home/kchung25/anaconda3/envs/p415env/share/psi4/basis/aug-cc-pvtz.gbs 
    atoms 3-4, 6-7, 9-10, 12-13 entry H          line    40 file /home/kchung25/anaconda3/envs/p415env/share/psi4/basis/aug-cc-pvtz.gbs 


         ---------------------------------------------------------
                                   SCF
               by Justin Turney, Rob Parrish, Andy Simmonett
                          and Daniel G. A. Smith
                              RHF Reference
                        6 Threads,  57220 MiB Core
         ---------------------------------------------------------

  ==> Geometry <==

    Molecular point group: c1
    Full point group: C1

    Geometry (in Angstrom), charge = 1, multiplicity = 1:

       Center              X                  Y                   Z               Mass       
    ------------   -----------------  -----------------  -----------------  -----------------
         LI           0.000000000000     0.000000000000     0.000000000000     7.016003436600
      Gh(O)           1.718350000000     0.176551000000     0.544897000000    15.994914619570
      Gh(H)           2.140398000000     0.825322000000    -0.025747000000     1.007825032230
      Gh(H)           1.574066000000     0.694093000000     1.420858000000     1.007825032230
      Gh(O)          -0.618594000000     1.178660000000    -1.431382000000    15.994914619570
      Gh(H)          -1.462932000000     1.491536000000    -1.765382000000     1.007825032230
      Gh(H)          -0.007693000000     1.643578000000    -2.053149000000     1.007825032230
      Gh(O)          -0.276860000000    -1.382086000000    -1.514478000000    15.994914619570
      Gh(H)          -0.026138000000    -2.301828000000    -1.619613000000     1.007825032230
      Gh(H)          -0.080953000000    -0.943301000000    -2.378795000000     1.007825032230
      Gh(O)          -1.025451000000    -0.316730000000     1.697479000000    15.994914619570
      Gh(H)          -1.827661000000    -0.788100000000     1.402480000000     1.007825032230
      Gh(H)          -0.931749000000    -0.447840000000     2.626507000000     1.007825032230

  Running in c1 symmetry.

  Rotational constants: A =      0.11093  B =      0.07907  C =      0.07179 [cm^-1]
  Rotational constants: A =   3325.65752  B =   2370.48888  C =   2152.11876 [MHz]
  Nuclear repulsion =    0.000000000000000

  Charge       = 1
  Multiplicity = 1
  Electrons    = 2
  Nalpha       = 1
  Nbeta        = 1

  ==> Algorithm <==

  SCF Algorithm Type is DF.
  DIIS enabled.
  MOM disabled.
  Fractional occupation disabled.
  Guess Type is SAD.
  Energy threshold   = 1.00e-08
  Density threshold  = 1.00e-08
  Integral threshold = 1.00e-12

  ==> Primary Basis <==

  Basis Set: AUG-CC-PVTZ
    Blend: AUG-CC-PVTZ
    Number of shells: 142
    Number of basis functions: 414
    Number of Cartesian functions: 475
    Spherical Harmonics?: true
    Max angular momentum: 3

   => Loading Basis Set <=

    Name: (AUG-CC-PVTZ AUX)
    Role: JKFIT
    Keyword: DF_BASIS_SCF
    atoms 1                     entry LI         line    54 file /home/kchung25/anaconda3/envs/p415env/share/psi4/basis/def2-universal-jkfit.gbs 
    atoms 2, 5, 8, 11           entry O          line   286 file /home/kchung25/anaconda3/envs/p415env/share/psi4/basis/aug-cc-pvtz-jkfit.gbs 
    atoms 3-4, 6-7, 9-10, 12-13 entry H          line    70 file /home/kchung25/anaconda3/envs/p415env/share/psi4/basis/aug-cc-pvtz-jkfit.gbs 

  ==> Integral Setup <==

  ==> DiskDFJK: Density-Fitted J/K Matrices <==

    J tasked:                  Yes
    K tasked:                  Yes
    wK tasked:                  No
    OpenMP threads:              6
    Integrals threads:           6
    Memory [MiB]:            42915
    Algorithm:                Core
    Integral Cache:           LOAD
    Schwarz Cutoff:          1E-12
    Fitting Condition:       1E-10

   => Auxiliary Basis Set <=

  Basis Set: (AUG-CC-PVTZ AUX)
    Blend: AUG-CC-PVTZ-JKFIT + DEF2-UNIVERSAL-JKFIT
    Number of shells: 249
    Number of basis functions: 835
    Number of Cartesian functions: 1024
    Spherical Harmonics?: true
    Max angular momentum: 4

  Minimum eigenvalue in the overlap matrix is 1.2372631654E-05.
  Reciprocal condition number of the overlap matrix is 8.5927059075E-07.
    Using symmetric orthogonalization.

  ==> Pre-Iterations <==

  SCF Guess: Superposition of Atomic Densities via on-the-fly atomic UHF (no occupation information).

   -------------------------
    Irrep   Nso     Nmo    
   -------------------------
     A        414     414 
   -------------------------
    Total     414     414
   -------------------------

  ==> Iterations <==

                           Total Energy        Delta E     RMS |[F,P]|

   @DF-RHF iter SAD:    -7.31416852022050   -7.31417e+00   0.00000e+00 
   @DF-RHF iter   1:    -7.23638292050457    7.77856e-02   5.48453e-06 DIIS
   @DF-RHF iter   2:    -7.23638484280720   -1.92230e-06   6.70857e-07 DIIS
   @DF-RHF iter   3:    -7.23638487441069   -3.16035e-08   3.48397e-08 DIIS
   @DF-RHF iter   4:    -7.23638487447272   -6.20322e-11   2.41246e-10 DIIS
  Energy and wave function converged.


  ==> Post-Iterations <==

    Orbital Energies [Eh]
    ---------------------

    Doubly Occupied:                                                      

       1A     -2.792353  

    Virtual:                                                              

       2A     -0.196302     3A     -0.128604     4A     -0.128601  
       5A     -0.128599     6A     -0.073771     7A     -0.056400  
       8A     -0.056391     9A     -0.056390    10A     -0.051474  
      11A     -0.050962    12A     -0.050044    13A     -0.049487  
      14A     -0.043519    15A     -0.026223    16A     -0.011347  
      17A     -0.008970    18A     -0.008604    19A     -0.008134  
      20A     -0.004526    21A      0.003931    22A      0.011549  
      23A      0.012956    24A      0.018034    25A      0.020653  
      26A      0.023627    27A      0.038735    28A      0.043064  
      29A      0.044022    30A      0.058731    31A      0.062102  
      32A      0.075481    33A      0.081571    34A      0.087182  
      35A      0.095846    36A      0.098529    37A      0.102804  
      38A      0.120583    39A      0.129541    40A      0.140240  
      41A      0.145680    42A      0.148090    43A      0.153799  
      44A      0.166300    45A      0.166717    46A      0.168630  
      47A      0.173402    48A      0.179176    49A      0.184000  
      50A      0.190442    51A      0.202737    52A      0.213353  
      53A      0.216729    54A      0.224525    55A      0.233016  
      56A      0.240561    57A      0.249378    58A      0.249607  
      59A      0.257716    60A      0.267765    61A      0.269578  
      62A      0.276244    63A      0.277126    64A      0.281102  
      65A      0.289051    66A      0.292148    67A      0.303698  
      68A      0.307794    69A      0.311537    70A      0.323074  
      71A      0.328150    72A      0.335756    73A      0.345590  
      74A      0.349964    75A      0.358945    76A      0.369147  
      77A      0.371775    78A      0.372064    79A      0.379776  
      80A      0.392545    81A      0.398452    82A      0.401673  
      83A      0.408591    84A      0.421884    85A      0.427546  
      86A      0.442813    87A      0.458896    88A      0.480705  
      89A      0.503126    90A      0.522359    91A      0.535123  
      92A      0.547154    93A      0.558395    94A      0.574087  
      95A      0.578908    96A      0.588525    97A      0.596607  
      98A      0.607651    99A      0.619214   100A      0.626293  
     101A      0.638000   102A      0.651474   103A      0.665873  
     104A      0.677377   105A      0.679930   106A      0.683147  
     107A      0.692831   108A      0.712314   109A      0.717130  
     110A      0.721251   111A      0.730773   112A      0.740581  
     113A      0.746040   114A      0.760615   115A      0.768815  
     116A      0.778002   117A      0.786906   118A      0.795388  
     119A      0.800129   120A      0.810301   121A      0.822480  
     122A      0.827397   123A      0.840447   124A      0.846612  
     125A      0.856507   126A      0.878067   127A      0.880317  
     128A      0.887030   129A      0.894067   130A      0.904669  
     131A      0.920831   132A      0.924954   133A      0.930509  
     134A      0.932155   135A      0.942857   136A      0.946098  
     137A      0.958063   138A      0.977159   139A      0.985984  
     140A      0.993857   141A      1.000739   142A      1.012443  
     143A      1.018861   144A      1.031883   145A      1.036568  
     146A      1.049401   147A      1.053943   148A      1.058440  
     149A      1.076016   150A      1.082889   151A      1.088461  
     152A      1.102440   153A      1.114237   154A      1.124323  
     155A      1.137161   156A      1.157021   157A      1.162712  
     158A      1.175863   159A      1.181281   160A      1.193020  
     161A      1.201071   162A      1.207811   163A      1.220862  
     164A      1.231785   165A      1.241629   166A      1.260081  
     167A      1.275232   168A      1.280425   169A      1.306911  
     170A      1.321060   171A      1.327342   172A      1.350866  
     173A      1.368468   174A      1.378699   175A      1.383992  
     176A      1.400883   177A      1.431590   178A      1.452046  
     179A      1.497750   180A      1.523448   181A      1.548970  
     182A      1.569095   183A      1.584530   184A      1.597456  
     185A      1.617651   186A      1.644489   187A      1.657778  
     188A      1.665684   189A      1.676777   190A      1.695515  
     191A      1.709066   192A      1.723105   193A      1.731650  
     194A      1.740697   195A      1.766463   196A      1.777304  
     197A      1.787585   198A      1.801453   199A      1.820988  
     200A      1.840893   201A      1.866459   202A      1.876064  
     203A      1.891258   204A      1.898981   205A      1.927601  
     206A      1.930941   207A      1.953766   208A      1.966045  
     209A      1.969643   210A      2.197370   211A      2.234620  
     212A      2.275271   213A      2.289641   214A      2.298339  
     215A      2.312077   216A      2.324833   217A      2.346712  
     218A      2.356439   219A      2.367410   220A      2.385748  
     221A      2.391117   222A      2.403482   223A      2.411933  
     224A      2.434871   225A      2.456179   226A      2.473830  
     227A      2.488442   228A      2.530440   229A      2.534480  
     230A      2.546568   231A      2.605558   232A      2.619988  
     233A      2.636570   234A      2.652499   235A      2.669270  
     236A      2.702280   237A      2.720933   238A      2.753059  
     239A      2.763637   240A      2.779810   241A      2.797453  
     242A      2.837920   243A      2.874658   244A      2.935454  
     245A      2.948227   246A      2.956070   247A      2.991054  
     248A      3.003055   249A      3.022313   250A      3.041865  
     251A      3.055353   252A      3.070351   253A      3.091867  
     254A      3.098583   255A      3.116408   256A      3.139594  
     257A      3.146596   258A      3.167933   259A      3.200472  
     260A      3.206755   261A      3.216109   262A      3.241532  
     263A      3.276028   264A      3.290128   265A      3.327382  
     266A      3.440416   267A      3.486010   268A      3.503877  
     269A      3.512522   270A      3.554053   271A      3.566561  
     272A      3.622036   273A      3.659685   274A      4.186541  
     275A      4.211772   276A      4.229239   277A      4.240648  
     278A      4.253925   279A      4.336826   280A      4.360662  
     281A      4.366430   282A      4.387049   283A      4.405581  
     284A      4.431843   285A      4.445366   286A      4.460834  
     287A      4.492944   288A      4.513324   289A      4.536045  
     290A      4.559763   291A      4.573797   292A      4.589830  
     293A      4.634862   294A      4.657824   295A      4.696240  
     296A      4.710146   297A      4.727657   298A      4.785566  
     299A      4.827529   300A      4.829309   301A      4.837662  
     302A      4.865835   303A      4.876070   304A      4.898578  
     305A      4.920576   306A      4.927007   307A      4.948888  
     308A      4.987229   309A      5.001744   310A      5.026253  
     311A      5.046341   312A      5.099307   313A      5.128020  
     314A      5.216921   315A      5.218223   316A      5.302808  
     317A      5.318765   318A      5.361944   319A      5.385334  
     320A      5.390885   321A      5.396515   322A      5.424723  
     323A      5.508385   324A      5.553738   325A      5.577142  
     326A      5.641431   327A      5.688026   328A      5.733690  
     329A      5.757519   330A      5.863703   331A      6.049175  
     332A      6.058566   333A      6.083899   334A      6.145170  
     335A      6.206242   336A      6.244181   337A      6.254093  
     338A      6.284431   339A      6.288295   340A      6.451042  
     341A      6.572952   342A      6.620087   343A      6.753396  
     344A      6.896886   345A      6.924601   346A      6.981431  
     347A      7.465138   348A      7.497537   349A      7.519746  
     350A      7.544790   351A      7.590474   352A      7.603136  
     353A      7.671056   354A      7.746802   355A      7.829946  
     356A      7.861798   357A      7.873830   358A      7.888520  
     359A      7.908945   360A      7.931226   361A      7.996566  
     362A      8.028820   363A      8.035137   364A      8.053996  
     365A      8.057110   366A      8.081483   367A      8.381111  
     368A      8.450886   369A      8.498991   370A      8.565827  
     371A      8.599209   372A      8.614025   373A      8.642385  
     374A      8.676473   375A      9.582622   376A      9.624402  
     377A      9.679079   378A      9.686812   379A      9.708871  
     380A      9.743436   381A      9.762004   382A      9.778920  
     383A      9.792476   384A      9.805341   385A      9.820339  
     386A      9.826868   387A      9.959401   388A      9.991380  
     389A     10.031688   390A     10.050903   391A     10.693570  
     392A     10.920040   393A     10.955874   394A     10.996038  
     395A     11.529323   396A     11.551121   397A     11.623167  
     398A     11.707083   399A     11.791704   400A     11.898920  
     401A     12.002961   402A     12.120638   403A     13.205940  
     404A     13.351962   405A     13.357231   406A     13.451251  
     407A     13.668140   408A     13.691583   409A     13.738883  
     410A     13.796918   411A     64.206696   412A     64.717629  
     413A     64.835851   414A     65.513279  

    Final Occupation by Irrep:
              A 
    DOCC [     1 ]
    NA   [     1 ]
    NB   [     1 ]

  @DF-RHF Final Energy:    -7.23638487447272

   => Energetics <=

    Nuclear Repulsion Energy =              0.0000000000000000
    One-Electron Energy =                  -8.8880643849596019
    Two-Electron Energy =                   1.6516795104868800
    Total Energy =                         -7.2363848744727219

Computation Completed


Properties will be evaluated at   0.000000,   0.000000,   0.000000 [a0]

Properties computed using the SCF density matrix


 Multipole Moments:

 ------------------------------------------------------------------------------------
     Multipole            Electronic (a.u.)      Nuclear  (a.u.)        Total (a.u.)
 ------------------------------------------------------------------------------------

 L = 1.  Multiply by 2.5417464519 to convert [e a0] to [Debye]
 Dipole X            :         -0.0000052            0.0000000           -0.0000052
 Dipole Y            :         -0.0000083            0.0000000           -0.0000083
 Dipole Z            :         -0.0000035            0.0000000           -0.0000035
 Magnitude           :                                                    0.0000104

 ------------------------------------------------------------------------------------

*** tstop() called on moses-razer at Sun Jan  7 06:55:03 2024
Module time:
	user time   =      12.41 seconds =       0.21 minutes
	system time =       0.29 seconds =       0.00 minutes
	total time  =          2 seconds =       0.03 minutes
Total time:
	user time   =      48.19 seconds =       0.80 minutes
	system time =       1.86 seconds =       0.03 minutes
	total time  =          9 seconds =       0.15 minutes

  //>>>>>>>>>>>>>>>>>>>>>>>>>>>>>>>>>>>//
  //            Monomer B HF           //
  //<<<<<<<<<<<<<<<<<<<<<<<<<<<<<<<<<<<//

   => Libint2 <=

    Primary   basis highest AM E, G, H:  5, 4, 3
    Auxiliary basis highest AM E, G, H:  6, 5, 4
    Onebody   basis highest AM E, G, H:  6, 5, 4
    Solid Harmonics ordering:            gaussian

*** tstart() called on moses-razer
*** at Sun Jan  7 06:55:03 2024

   => Loading Basis Set <=

    Name: AUG-CC-PVTZ
    Role: ORBITAL
    Keyword: BASIS
    atoms 1                     entry LI         line    85 file /home/kchung25/anaconda3/envs/p415env/share/psi4/basis/aug-cc-pvtz.gbs 
    atoms 2, 5, 8, 11           entry O          line   331 file /home/kchung25/anaconda3/envs/p415env/share/psi4/basis/aug-cc-pvtz.gbs 
    atoms 3-4, 6-7, 9-10, 12-13 entry H          line    40 file /home/kchung25/anaconda3/envs/p415env/share/psi4/basis/aug-cc-pvtz.gbs 


         ---------------------------------------------------------
                                   SCF
               by Justin Turney, Rob Parrish, Andy Simmonett
                          and Daniel G. A. Smith
                              RHF Reference
                        6 Threads,  57220 MiB Core
         ---------------------------------------------------------

  ==> Geometry <==

    Molecular point group: c1
    Full point group: C1

    Geometry (in Angstrom), charge = 0, multiplicity = 1:

       Center              X                  Y                   Z               Mass       
    ------------   -----------------  -----------------  -----------------  -----------------
      Gh(LI)          0.000000000000     0.000000000000     0.000000000000     7.016003436600
         O            1.718350000000     0.176551000000     0.544897000000    15.994914619570
         H            2.140398000000     0.825322000000    -0.025747000000     1.007825032230
         H            1.574066000000     0.694093000000     1.420858000000     1.007825032230
         O           -0.618594000000     1.178660000000    -1.431382000000    15.994914619570
         H           -1.462932000000     1.491536000000    -1.765382000000     1.007825032230
         H           -0.007693000000     1.643578000000    -2.053149000000     1.007825032230
         O           -0.276860000000    -1.382086000000    -1.514478000000    15.994914619570
         H           -0.026138000000    -2.301828000000    -1.619613000000     1.007825032230
         H           -0.080953000000    -0.943301000000    -2.378795000000     1.007825032230
         O           -1.025451000000    -0.316730000000     1.697479000000    15.994914619570
         H           -1.827661000000    -0.788100000000     1.402480000000     1.007825032230
         H           -0.931749000000    -0.447840000000     2.626507000000     1.007825032230

  Running in c1 symmetry.

  Rotational constants: A =      0.11093  B =      0.07907  C =      0.07179 [cm^-1]
  Rotational constants: A =   3325.65752  B =   2370.48888  C =   2152.11876 [MHz]
  Nuclear repulsion =  132.499489706644368

  Charge       = 0
  Multiplicity = 1
  Electrons    = 40
  Nalpha       = 20
  Nbeta        = 20

  ==> Algorithm <==

  SCF Algorithm Type is DF.
  DIIS enabled.
  MOM disabled.
  Fractional occupation disabled.
  Guess Type is SAD.
  Energy threshold   = 1.00e-08
  Density threshold  = 1.00e-08
  Integral threshold = 1.00e-12

  ==> Primary Basis <==

  Basis Set: AUG-CC-PVTZ
    Blend: AUG-CC-PVTZ
    Number of shells: 142
    Number of basis functions: 414
    Number of Cartesian functions: 475
    Spherical Harmonics?: true
    Max angular momentum: 3

   => Loading Basis Set <=

    Name: (AUG-CC-PVTZ AUX)
    Role: JKFIT
    Keyword: DF_BASIS_SCF
    atoms 1                     entry LI         line    54 file /home/kchung25/anaconda3/envs/p415env/share/psi4/basis/def2-universal-jkfit.gbs 
    atoms 2, 5, 8, 11           entry O          line   286 file /home/kchung25/anaconda3/envs/p415env/share/psi4/basis/aug-cc-pvtz-jkfit.gbs 
    atoms 3-4, 6-7, 9-10, 12-13 entry H          line    70 file /home/kchung25/anaconda3/envs/p415env/share/psi4/basis/aug-cc-pvtz-jkfit.gbs 

  ==> Integral Setup <==

  ==> DiskDFJK: Density-Fitted J/K Matrices <==

    J tasked:                  Yes
    K tasked:                  Yes
    wK tasked:                  No
    OpenMP threads:              6
    Integrals threads:           6
    Memory [MiB]:            42915
    Algorithm:                Core
    Integral Cache:           LOAD
    Schwarz Cutoff:          1E-12
    Fitting Condition:       1E-10

   => Auxiliary Basis Set <=

  Basis Set: (AUG-CC-PVTZ AUX)
    Blend: AUG-CC-PVTZ-JKFIT + DEF2-UNIVERSAL-JKFIT
    Number of shells: 249
    Number of basis functions: 835
    Number of Cartesian functions: 1024
    Spherical Harmonics?: true
    Max angular momentum: 4

  Minimum eigenvalue in the overlap matrix is 1.2372631654E-05.
  Reciprocal condition number of the overlap matrix is 8.5927059075E-07.
    Using symmetric orthogonalization.

  ==> Pre-Iterations <==

  SCF Guess: Superposition of Atomic Densities via on-the-fly atomic UHF (no occupation information).

   -------------------------
    Irrep   Nso     Nmo    
   -------------------------
     A        414     414 
   -------------------------
    Total     414     414
   -------------------------

  ==> Iterations <==

                           Total Energy        Delta E     RMS |[F,P]|

   @DF-RHF iter SAD:  -301.92124497708539   -3.01921e+02   0.00000e+00 
   @DF-RHF iter   1:  -303.84090919518201   -1.91966e+00   2.31214e-03 DIIS/ADIIS
   @DF-RHF iter   2:  -304.05404013179907   -2.13131e-01   1.66070e-03 DIIS/ADIIS
   @DF-RHF iter   3:  -304.20557255336564   -1.51532e-01   1.13174e-04 DIIS/ADIIS
   @DF-RHF iter   4:  -304.20746244531830   -1.88989e-03   3.04039e-05 DIIS
   @DF-RHF iter   5:  -304.20759938487174   -1.36940e-04   1.00134e-05 DIIS
   @DF-RHF iter   6:  -304.20761422416905   -1.48393e-05   4.19960e-06 DIIS
   @DF-RHF iter   7:  -304.20761645134962   -2.22718e-06   8.84844e-07 DIIS
   @DF-RHF iter   8:  -304.20761664768395   -1.96334e-07   1.65201e-07 DIIS
   @DF-RHF iter   9:  -304.20761665391120   -6.22725e-09   3.77229e-08 DIIS
   @DF-RHF iter  10:  -304.20761665414875   -2.37549e-10   1.52059e-08 DIIS
   @DF-RHF iter  11:  -304.20761665417388   -2.51248e-11   5.46304e-09 DIIS
  Energy and wave function converged.


  ==> Post-Iterations <==

    Orbital Energies [Eh]
    ---------------------

    Doubly Occupied:                                                      

       1A    -20.552284     2A    -20.535444     3A    -20.532823  
       4A    -20.529947     5A     -1.332055     6A     -1.320390  
       7A     -1.304910     8A     -1.296186     9A     -0.694095  
      10A     -0.683857    11A     -0.675190    12A     -0.655877  
      13A     -0.573635    14A     -0.545501    15A     -0.539015  
      16A     -0.532252    17A     -0.489063    18A     -0.478620  
      19A     -0.470192    20A     -0.461921  

    Virtual:                                                              

      21A      0.010002    22A      0.017738    23A      0.019177  
      24A      0.021127    25A      0.048013    26A      0.056011  
      27A      0.056909    28A      0.059274    29A      0.063101  
      30A      0.067680    31A      0.070262    32A      0.076355  
      33A      0.081146    34A      0.086966    35A      0.096395  
      36A      0.117348    37A      0.145236    38A      0.157566  
      39A      0.161741    40A      0.164443    41A      0.171297  
      42A      0.176930    43A      0.179997    44A      0.183231  
      45A      0.186092    46A      0.191631    47A      0.193249  
      48A      0.202538    49A      0.207501    50A      0.213868  
      51A      0.218790    52A      0.231407    53A      0.240299  
      54A      0.257020    55A      0.263034    56A      0.270405  
      57A      0.277927    58A      0.287700    59A      0.308387  
      60A      0.313557    61A      0.327836    62A      0.333581  
      63A      0.346956    64A      0.358242    65A      0.369941  
      66A      0.372772    67A      0.379782    68A      0.387092  
      69A      0.393366    70A      0.395171    71A      0.401877  
      72A      0.405561    73A      0.420122    74A      0.422770  
      75A      0.426597    76A      0.429021    77A      0.436593  
      78A      0.439019    79A      0.448279    80A      0.451305  
      81A      0.460223    82A      0.465132    83A      0.469558  
      84A      0.471448    85A      0.475051    86A      0.484472  
      87A      0.487644    88A      0.493835    89A      0.499086  
      90A      0.504016    91A      0.515015    92A      0.521573  
      93A      0.528169    94A      0.532234    95A      0.541856  
      96A      0.550309    97A      0.552576    98A      0.565866  
      99A      0.574525   100A      0.583860   101A      0.590883  
     102A      0.603691   103A      0.634542   104A      0.659563  
     105A      0.674193   106A      0.721135   107A      0.742198  
     108A      0.750959   109A      0.772082   110A      0.788939  
     111A      0.793812   112A      0.803632   113A      0.803890  
     114A      0.815998   115A      0.816796   116A      0.821566  
     117A      0.826133   118A      0.840099   119A      0.848694  
     120A      0.855032   121A      0.868783   122A      0.882466  
     123A      0.895933   124A      0.916313   125A      0.924170  
     126A      0.925597   127A      0.933086   128A      0.942697  
     129A      0.947527   130A      0.957335   131A      0.965464  
     132A      0.970616   133A      0.982852   134A      0.988007  
     135A      0.989275   136A      1.001523   137A      1.002660  
     138A      1.009865   139A      1.027976   140A      1.034782  
     141A      1.041510   142A      1.059108   143A      1.065149  
     144A      1.069600   145A      1.076443   146A      1.085477  
     147A      1.089020   148A      1.097286   149A      1.109138  
     150A      1.116776   151A      1.125041   152A      1.130449  
     153A      1.134133   154A      1.146267   155A      1.164179  
     156A      1.170615   157A      1.179497   158A      1.185951  
     159A      1.198830   160A      1.206637   161A      1.215524  
     162A      1.220402   163A      1.234173   164A      1.238208  
     165A      1.251084   166A      1.262071   167A      1.270988  
     168A      1.274367   169A      1.294684   170A      1.306676  
     171A      1.313735   172A      1.341200   173A      1.345878  
     174A      1.348128   175A      1.356612   176A      1.384616  
     177A      1.401311   178A      1.417965   179A      1.433545  
     180A      1.437572   181A      1.455384   182A      1.484777  
     183A      1.492528   184A      1.497670   185A      1.511296  
     186A      1.534338   187A      1.562370   188A      1.570365  
     189A      1.601637   190A      1.611304   191A      1.629765  
     192A      1.641396   193A      1.663326   194A      1.676110  
     195A      1.690284   196A      1.696126   197A      1.731175  
     198A      1.759118   199A      1.774329   200A      1.781164  
     201A      1.791846   202A      1.819800   203A      1.826222  
     204A      1.837934   205A      1.856880   206A      1.864876  
     207A      1.874096   208A      1.883886   209A      1.901132  
     210A      1.918266   211A      1.938862   212A      1.945123  
     213A      1.973926   214A      2.033138   215A      2.043150  
     216A      2.051085   217A      2.081862   218A      2.094378  
     219A      2.103675   220A      2.136455   221A      2.148807  
     222A      2.223761   223A      2.234937   224A      2.280279  
     225A      2.305104   226A      2.339889   227A      2.372088  
     228A      2.401787   229A      2.415212   230A      2.429921  
     231A      2.466242   232A      2.474787   233A      2.488244  
     234A      2.498685   235A      2.525893   236A      2.528532  
     237A      2.549195   238A      2.558474   239A      2.571836  
     240A      2.603128   241A      2.618716   242A      2.662691  
     243A      2.670601   244A      2.678345   245A      2.704243  
     246A      2.713565   247A      2.724271   248A      2.741281  
     249A      2.774039   250A      2.798560   251A      2.809894  
     252A      2.816889   253A      2.828637   254A      2.851969  
     255A      2.866255   256A      2.876961   257A      2.885923  
     258A      2.893304   259A      2.899075   260A      2.911821  
     261A      2.931479   262A      2.945323   263A      2.968881  
     264A      2.985511   265A      3.024311   266A      3.026748  
     267A      3.033493   268A      3.049633   269A      3.069762  
     270A      3.094049   271A      3.124300   272A      3.141017  
     273A      3.177095   274A      3.202206   275A      3.285167  
     276A      3.353083   277A      3.423536   278A      3.836190  
     279A      3.849247   280A      3.880081   281A      3.924694  
     282A      3.966862   283A      4.010782   284A      4.048301  
     285A      4.060225   286A      4.126634   287A      4.131927  
     288A      4.156722   289A      4.208740   290A      4.270574  
     291A      4.283336   292A      4.315558   293A      4.327396  
     294A      4.331002   295A      4.342429   296A      4.361273  
     297A      4.388242   298A      4.404673   299A      4.417330  
     300A      4.437744   301A      4.450729   302A      4.488258  
     303A      4.501709   304A      4.538280   305A      4.547626  
     306A      4.560996   307A      4.579336   308A      4.600174  
     309A      4.608799   310A      4.615519   311A      4.637783  
     312A      4.652962   313A      4.657629   314A      4.676745  
     315A      4.694718   316A      4.706741   317A      4.733823  
     318A      4.737769   319A      4.761343   320A      4.783860  
     321A      4.811340   322A      4.853675   323A      4.888408  
     324A      4.901803   325A      4.938086   326A      4.967631  
     327A      4.981249   328A      4.998068   329A      5.032327  
     330A      5.155854   331A      5.164588   332A      5.175907  
     333A      5.207691   334A      5.220365   335A      5.241098  
     336A      5.266050   337A      5.292648   338A      5.317602  
     339A      5.334816   340A      5.402624   341A      5.427527  
     342A      5.463277   343A      5.471155   344A      5.497173  
     345A      5.529841   346A      5.588251   347A      5.623911  
     348A      5.659226   349A      5.689198   350A      5.806181  
     351A      5.907069   352A      5.973711   353A      5.998550  
     354A      6.337364   355A      6.368979   356A      6.468871  
     357A      6.523006   358A      6.647228   359A      6.704268  
     360A      6.726493   361A      6.735770   362A      6.830000  
     363A      6.871994   364A      6.902198   365A      6.918795  
     366A      6.993598   367A      7.003461   368A      7.046827  
     369A      7.121006   370A      7.208329   371A      7.218457  
     372A      7.232198   373A      7.252169   374A      7.295264  
     375A      7.335410   376A      7.350325   377A      7.356044  
     378A      7.364443   379A      7.393142   380A      7.400063  
     381A      7.418643   382A      7.425135   383A      7.439996  
     384A      7.448780   385A      7.460855   386A      7.476900  
     387A      7.482556   388A      7.504174   389A      7.517314  
     390A      7.544412   391A      7.571860   392A      7.577794  
     393A      7.608059   394A      7.702447   395A      7.721944  
     396A      7.816428   397A      7.840617   398A      7.907346  
     399A      7.919316   400A      7.985526   401A      8.003762  
     402A      8.039507   403A      8.065980   404A      8.080212  
     405A      8.139876   406A      8.796573   407A      8.880682  
     408A      8.902665   409A      8.923581   410A     13.037714  
     411A     15.590060   412A     15.857182   413A     15.961896  
     414A     16.385018  

    Final Occupation by Irrep:
              A 
    DOCC [    20 ]
    NA   [    20 ]
    NB   [    20 ]

  @DF-RHF Final Energy:  -304.20761665417388

   => Energetics <=

    Nuclear Repulsion Energy =            132.4994897066443684
    One-Electron Energy =                -685.0076876948016888
    Two-Electron Energy =                 248.3005813339834731
    Total Energy =                       -304.2076166541738758

Computation Completed


Properties will be evaluated at   0.000000,   0.000000,   0.000000 [a0]

Properties computed using the SCF density matrix


 Multipole Moments:

 ------------------------------------------------------------------------------------
     Multipole            Electronic (a.u.)      Nuclear  (a.u.)        Total (a.u.)
 ------------------------------------------------------------------------------------

 L = 1.  Multiply by 2.5417464519 to convert [e a0] to [Debye]
 Dipole X            :          4.0162665           -4.2388485           -0.2225819
 Dipole Y            :          5.3868656           -4.8667629            0.5201027
 Dipole Z            :         14.5742480          -15.1569509           -0.5827029
 Magnitude           :                                                    0.8121528

 ------------------------------------------------------------------------------------

*** tstop() called on moses-razer at Sun Jan  7 06:55:09 2024
Module time:
	user time   =      30.13 seconds =       0.50 minutes
	system time =       0.61 seconds =       0.01 minutes
	total time  =          6 seconds =       0.10 minutes
Total time:
	user time   =      78.35 seconds =       1.31 minutes
	system time =       2.47 seconds =       0.04 minutes
	total time  =         15 seconds =       0.25 minutes
  Constructing Basis Sets for SAPT...

   => Loading Basis Set <=

    Name: (AUG-CC-PVTZ AUX)
    Role: RIFIT
    Keyword: DF_BASIS_SAPT
    atoms 1                     entry LI         line    90 file /home/kchung25/anaconda3/envs/p415env/share/psi4/basis/def2-qzvpp-ri.gbs 
    atoms 2, 5, 8, 11           entry O          line   264 file /home/kchung25/anaconda3/envs/p415env/share/psi4/basis/aug-cc-pvtz-ri.gbs 
    atoms 3-4, 6-7, 9-10, 12-13 entry H          line    30 file /home/kchung25/anaconda3/envs/p415env/share/psi4/basis/aug-cc-pvtz-ri.gbs 

   => Loading Basis Set <=

    Name: (AUG-CC-PVTZ AUX)
    Role: JKFIT
    Keyword: DF_BASIS_ELST
    atoms 1                     entry LI         line    54 file /home/kchung25/anaconda3/envs/p415env/share/psi4/basis/def2-universal-jkfit.gbs 
    atoms 2, 5, 8, 11           entry O          line   286 file /home/kchung25/anaconda3/envs/p415env/share/psi4/basis/aug-cc-pvtz-jkfit.gbs 
    atoms 3-4, 6-7, 9-10, 12-13 entry H          line    70 file /home/kchung25/anaconda3/envs/p415env/share/psi4/basis/aug-cc-pvtz-jkfit.gbs 


  //>>>>>>>>>>>>>>>>>>>>>>>>>>>>>>>>>>>//
  //               SAPT2+              //
  //<<<<<<<<<<<<<<<<<<<<<<<<<<<<<<<<<<<//


*** tstart() called on moses-razer
*** at Sun Jan  7 06:55:09 2024

        SAPT2+  
    Ed Hohenstein
     6 June 2009

      Orbital Information
  --------------------------
    NSO        =       414
    NMO        =       414
    NRI        =       893
    NOCC A     =         1
    NOCC B     =        20
    FOCC A     =         0
    FOCC B     =         0
    NVIR A     =       413
    NVIR B     =       394

    Estimated memory usage: 2856.0 MB

    Natural Orbital Cutoff:   1.000E-06
    Disp(T3) Truncation:            Yes
    CCD (vv|vv) Truncation:         Yes
    MBPT T2 Truncation:             Yes

    Monomer A: 406 virtual orbitals dropped
    Monomer B: 63 virtual orbitals dropped

    Elst10,r            =    -0.151658933231 [Eh]
    Exch10 (S^2)        =     0.041772185736 [Eh]
    Exch10              =     0.042246781859 [Eh]
    Ind20,r (A<-B)      =    -0.000056058142 [Eh]
    Ind20,r (B<-A)      =    -0.080912038456 [Eh]
    Ind20,r             =    -0.080968096599 [Eh]
    Exch-Ind20,r (A<-B) =     0.000041931555 [Eh]
    Exch-Ind20,r (B<-A) =     0.026516686260 [Eh]
    Exch-Ind20,r        =     0.026558617814 [Eh]
    Disp20              =    -0.003003118259 [Eh]
    Disp20 (NO)         =    -0.002632354792 [Eh]
    Exch-Disp20         =     0.000335277279 [Eh]
    Elst12,r            =     0.011569376696 [Eh]
    Exch11              =    -0.000628441944 [Eh]
    Exch12              =     0.003880568141 [Eh]
    Ind22               =    -0.009219799229 [Eh]
    Disp21              =    -0.000108526086 [Eh]
    Disp22 (SDQ)        =    -0.000051346823 [Eh]

    (i =   1 of  20)          0 seconds
    (i =   2 of  20)          0 seconds
    (i =   3 of  20)          0 seconds
    (i =   4 of  20)          0 seconds
    (i =   5 of  20)          0 seconds
    (i =   6 of  20)          0 seconds
    (i =   7 of  20)          0 seconds
    (i =   8 of  20)          0 seconds
    (i =   9 of  20)          0 seconds
    (i =  10 of  20)          1 seconds
    (i =  11 of  20)          1 seconds
    (i =  12 of  20)          1 seconds
    (i =  13 of  20)          1 seconds
    (i =  14 of  20)          1 seconds
    (i =  15 of  20)          1 seconds
    (i =  16 of  20)          1 seconds
    (i =  17 of  20)          1 seconds
    (i =  18 of  20)          1 seconds
    (i =  19 of  20)          1 seconds
    (i =  20 of  20)          1 seconds

    Disp220 (T)         =    -0.000031103770 [Eh]

    (i =   1 of   1)          8 seconds

    Disp202 (T)         =    -0.000146497874 [Eh]

    Disp22 (T)          =    -0.000177601644 [Eh]

    Est. Disp220 (T)    =    -0.000035484692 [Eh]
    Est. Disp202 (T)    =    -0.000167131894 [Eh]

    Est. Disp22 (T)     =    -0.000202616585 [Eh]

    SAPT Results 
  --------------------------------------------------------------------------------------------------------
    Electrostatics               -140.08955653 [mEh]     -87.90752390 [kcal/mol]    -367.80508001 [kJ/mol]
      Elst10,r                   -151.65893323 [mEh]     -95.16741739 [kcal/mol]    -398.18047434 [kJ/mol]
      Elst12,r                     11.56937670 [mEh]       7.25989348 [kcal/mol]      30.37539433 [kJ/mol]

    Exchange                       45.49890806 [mEh]      28.55099585 [kcal/mol]     119.45736664 [kJ/mol]
      Exch10                       42.24678186 [mEh]      26.51025585 [kcal/mol]     110.91891049 [kJ/mol]
      Exch10(S^2)                  41.77218574 [mEh]      26.21244229 [kcal/mol]     109.67285854 [kJ/mol]
      Exch11(S^2)                  -0.62844194 [mEh]      -0.39435327 [kcal/mol]      -1.64997410 [kJ/mol]
      Exch12(S^2)                   3.88056814 [mEh]       2.43509327 [kcal/mol]      10.18843025 [kJ/mol]

    Induction                     -64.74986578 [mEh]     -40.63115420 [kcal/mol]    -170.00074919 [kJ/mol]
      Ind20,r                     -80.96809660 [mEh]     -50.80824769 [kcal/mol]    -212.58170833 [kJ/mol]
      Ind22                        -9.21979923 [mEh]      -5.78551136 [kcal/mol]     -24.20657954 [kJ/mol]
      Exch-Ind20,r                 26.55861781 [mEh]      16.66578429 [kcal/mol]      69.72964146 [kJ/mol]
      Exch-Ind22                    3.02421737 [mEh]       1.89772505 [kcal/mol]       7.94008161 [kJ/mol]
      delta HF,r (2)               -4.14480514 [mEh]      -2.60090449 [kcal/mol]     -10.88218439 [kJ/mol]

    Dispersion                     -3.03033047 [mEh]      -1.90156108 [kcal/mol]      -7.95613157 [kJ/mol]
      Disp20                       -3.00311826 [mEh]      -1.88448516 [kcal/mol]      -7.88468590 [kJ/mol]
      Disp21                       -0.10852609 [mEh]      -0.06810115 [kcal/mol]      -0.28493520 [kJ/mol]
      Disp22 (SDQ)                 -0.05134682 [mEh]      -0.03222062 [kcal/mol]      -0.13481107 [kJ/mol]
      Disp22 (T)                   -0.17760164 [mEh]      -0.11144671 [kcal/mol]      -0.46629305 [kJ/mol]
      Est. Disp22 (T)              -0.20261659 [mEh]      -0.12714383 [kcal/mol]      -0.53196977 [kJ/mol]
      Exch-Disp20                   0.33527728 [mEh]       0.21038967 [kcal/mol]       0.88027037 [kJ/mol]

  Total HF                       -167.96643529 [mEh]    -105.40052942 [kcal/mol]    -440.99581511 [kJ/mol]
  Total SAPT0                    -170.63427627 [mEh]    -107.07462491 [kcal/mol]    -448.00023063 [kJ/mol]
  Total SAPT2                    -162.00835524 [mEh]    -101.66177774 [kcal/mol]    -425.35287808 [kJ/mol]
  Total SAPT2+                   -162.37084473 [mEh]    -101.88924334 [kcal/mol]    -426.30459412 [kJ/mol]

  Special recipe for scaled SAPT0 (see Manual):
    Electrostatics sSAPT0        -151.65893323 [mEh]     -95.16741739 [kcal/mol]    -398.18047434 [kJ/mol]
    Exchange sSAPT0                42.24678186 [mEh]      26.51025585 [kcal/mol]     110.91891049 [kJ/mol]
    Induction sSAPT0              -57.63872011 [mEh]     -36.16884292 [kcal/mol]    -151.33043880 [kJ/mol]
    Dispersion sSAPT0              -2.65628286 [mEh]      -1.66684266 [kcal/mol]      -6.97406968 [kJ/mol]
  Total sSAPT0                   -169.70715434 [mEh]    -106.49284712 [kcal/mol]    -445.56607233 [kJ/mol]
  --------------------------------------------------------------------------------------------------------

*** tstop() called on moses-razer at Sun Jan  7 06:59:40 2024
Module time:
	user time   =    1498.63 seconds =      24.98 minutes
	system time =      31.59 seconds =       0.53 minutes
	total time  =        271 seconds =       4.52 minutes
Total time:
	user time   =    1577.87 seconds =      26.30 minutes
	system time =      34.06 seconds =       0.57 minutes
	total time  =        286 seconds =       4.77 minutes

    Psi4 stopped on: Sunday, 07 January 2024 06:59AM
    Psi4 wall time for execution: 0:04:45.72

*** Psi4 exiting successfully. Buy a developer a beer!
