
    -----------------------------------------------------------------------
          Psi4: An Open-Source Ab Initio Electronic Structure Package
                               Psi4 1.9 release

                         Git: Rev {} zzzzzzz 


    D. G. A. Smith, L. A. Burns, A. C. Simmonett, R. M. Parrish,
    M. C. Schieber, R. Galvelis, P. Kraus, H. Kruse, R. Di Remigio,
    A. Alenaizan, A. M. James, S. Lehtola, J. P. Misiewicz, M. Scheurer,
    R. A. Shaw, J. B. Schriber, Y. Xie, Z. L. Glick, D. A. Sirianni,
    J. S. O'Brien, J. M. Waldrop, A. Kumar, E. G. Hohenstein,
    B. P. Pritchard, B. R. Brooks, H. F. Schaefer III, A. Yu. Sokolov,
    K. Patkowski, A. E. DePrince III, U. Bozkaya, R. A. King,
    F. A. Evangelista, J. M. Turney, T. D. Crawford, C. D. Sherrill,
    J. Chem. Phys. 152(18) 184108 (2020). https://doi.org/10.1063/5.0006002

                            Additional Code Authors
    E. T. Seidl, C. L. Janssen, E. F. Valeev, M. L. Leininger,
    J. F. Gonthier, R. M. Richard, H. R. McAlexander, M. Saitow, X. Wang,
    P. Verma, M. H. Lechner, A. Jiang, S. Behnle, A. G. Heide,
    M. F. Herbst, and D. L. Poole

             Previous Authors, Complete List of Code Contributors,
                       and Citations for Specific Modules
    https://github.com/psi4/psi4/blob/master/codemeta.json
    https://github.com/psi4/psi4/graphs/contributors
    http://psicode.org/psi4manual/master/introduction.html#citing-psifour

    -----------------------------------------------------------------------


    Psi4 started on: Monday, 08 January 2024 08:32AM

    Process ID: 622803
    Host:       moses-razer
    PSIDATADIR: /home/kchung25/anaconda3/envs/psi4_19/share/psi4
    Memory:     500.0 MiB
    Threads:    6
    
  ==> Input File <==

--------------------------------------------------------------------------
MEMORY 60 GB

molecule dimer {
1 1
Na     0.000000     0.000000     0.000000
--
0 1
O     -0.763534     0.932846     2.231461
H     -0.733128     1.900005     2.285331
H     -0.178159     0.502091     2.866138
O      0.452399     2.241951    -0.962680
H      1.205593     2.615208    -0.515886
H      0.800151     2.215705    -1.892096
O      0.346113    -2.463872     0.347284
H      0.268206    -3.107115    -0.361290
H     -0.089641    -3.005871     1.016265
O      2.050775    -0.213605    -1.193701
H      2.004919    -1.173998    -1.292082
H      2.563798    -0.024846    -0.341802
O     -1.677611    -0.559730    -1.506099
H     -2.457862    -0.155870    -2.009591
H     -1.026711    -0.660387    -2.183118

units ang
no_reorient
no_com
symmetry c1
}

set {
basis        aug-cc-pVTZ
scf_type     df
}

energy("sapt2+")
--------------------------------------------------------------------------

  Memory set to  55.879 GiB by Python driver.

Scratch directory: /scratch/
   => Loading Basis Set <=

    Name: AUG-CC-PVTZ
    Role: ORBITAL
    Keyword: BASIS
    atoms 1                            entry NA         line   469 file /home/kchung25/anaconda3/envs/p415env/share/psi4/basis/aug-cc-pvtz.gbs 
    atoms 2, 5, 8, 11, 14              entry O          line   331 file /home/kchung25/anaconda3/envs/p415env/share/psi4/basis/aug-cc-pvtz.gbs 
    atoms 3-4, 6-7, 9-10, 12-13, 15-16 entry H          line    40 file /home/kchung25/anaconda3/envs/p415env/share/psi4/basis/aug-cc-pvtz.gbs 

   => Loading Basis Set <=

    Name: AUG-CC-PVTZ
    Role: ORBITAL
    Keyword: BASIS
    atoms 1                            entry NA         line   469 file /home/kchung25/anaconda3/envs/p415env/share/psi4/basis/aug-cc-pvtz.gbs 
    atoms 2, 5, 8, 11, 14              entry O          line   331 file /home/kchung25/anaconda3/envs/p415env/share/psi4/basis/aug-cc-pvtz.gbs 
    atoms 3-4, 6-7, 9-10, 12-13, 15-16 entry H          line    40 file /home/kchung25/anaconda3/envs/p415env/share/psi4/basis/aug-cc-pvtz.gbs 


  //>>>>>>>>>>>>>>>>>>>>>>>>>>>>>>>>>>>//
  //              Dimer HF             //
  //<<<<<<<<<<<<<<<<<<<<<<<<<<<<<<<<<<<//

   => Libint2 <=

    Primary   basis highest AM E, G, H:  5, 4, 3
    Auxiliary basis highest AM E, G, H:  6, 5, 4
    Onebody   basis highest AM E, G, H:  6, 5, 4
    Solid Harmonics ordering:            gaussian

*** tstart() called on moses-razer
*** at Mon Jan  8 08:32:18 2024

   => Loading Basis Set <=

    Name: AUG-CC-PVTZ
    Role: ORBITAL
    Keyword: BASIS
    atoms 1                            entry NA         line   469 file /home/kchung25/anaconda3/envs/p415env/share/psi4/basis/aug-cc-pvtz.gbs 
    atoms 2, 5, 8, 11, 14              entry O          line   331 file /home/kchung25/anaconda3/envs/p415env/share/psi4/basis/aug-cc-pvtz.gbs 
    atoms 3-4, 6-7, 9-10, 12-13, 15-16 entry H          line    40 file /home/kchung25/anaconda3/envs/p415env/share/psi4/basis/aug-cc-pvtz.gbs 


         ---------------------------------------------------------
                                   SCF
               by Justin Turney, Rob Parrish, Andy Simmonett
                          and Daniel G. A. Smith
                              RHF Reference
                        6 Threads,  57220 MiB Core
         ---------------------------------------------------------

  ==> Geometry <==

    Molecular point group: c1
    Full point group: C1

    Geometry (in Angstrom), charge = 1, multiplicity = 1:

       Center              X                  Y                   Z               Mass       
    ------------   -----------------  -----------------  -----------------  -----------------
         NA           0.000000000000     0.000000000000     0.000000000000    22.989769282000
         O           -0.763534000000     0.932846000000     2.231461000000    15.994914619570
         H           -0.733128000000     1.900005000000     2.285331000000     1.007825032230
         H           -0.178159000000     0.502091000000     2.866138000000     1.007825032230
         O            0.452399000000     2.241951000000    -0.962680000000    15.994914619570
         H            1.205593000000     2.615208000000    -0.515886000000     1.007825032230
         H            0.800151000000     2.215705000000    -1.892096000000     1.007825032230
         O            0.346113000000    -2.463872000000     0.347284000000    15.994914619570
         H            0.268206000000    -3.107115000000    -0.361290000000     1.007825032230
         H           -0.089641000000    -3.005871000000     1.016265000000     1.007825032230
         O            2.050775000000    -0.213605000000    -1.193701000000    15.994914619570
         H            2.004919000000    -1.173998000000    -1.292082000000     1.007825032230
         H            2.563798000000    -0.024846000000    -0.341802000000     1.007825032230
         O           -1.677611000000    -0.559730000000    -1.506099000000    15.994914619570
         H           -2.457862000000    -0.155870000000    -2.009591000000     1.007825032230
         H           -1.026711000000    -0.660387000000    -2.183118000000     1.007825032230

  Running in c1 symmetry.

  Rotational constants: A =      0.05082  B =      0.04643  C =      0.03861 [cm^-1]
  Rotational constants: A =   1523.60812  B =   1391.90464  C =   1157.46638 [MHz]
  Nuclear repulsion =  298.534168253130019

  Charge       = 1
  Multiplicity = 1
  Electrons    = 60
  Nalpha       = 30
  Nbeta        = 30

  ==> Algorithm <==

  SCF Algorithm Type is DF.
  DIIS enabled.
  MOM disabled.
  Fractional occupation disabled.
  Guess Type is SAD.
  Energy threshold   = 1.00e-08
  Density threshold  = 1.00e-08
  Integral threshold = 1.00e-12

  ==> Primary Basis <==

  Basis Set: AUG-CC-PVTZ
    Blend: AUG-CC-PVTZ
    Number of shells: 176
    Number of basis functions: 510
    Number of Cartesian functions: 584
    Spherical Harmonics?: true
    Max angular momentum: 3

   => Loading Basis Set <=

    Name: (AUG-CC-PVTZ AUX)
    Role: JKFIT
    Keyword: DF_BASIS_SCF
    atoms 1                            entry NA         line   498 file /home/kchung25/anaconda3/envs/p415env/share/psi4/basis/def2-universal-jkfit.gbs 
    atoms 2, 5, 8, 11, 14              entry O          line   286 file /home/kchung25/anaconda3/envs/p415env/share/psi4/basis/aug-cc-pvtz-jkfit.gbs 
    atoms 3-4, 6-7, 9-10, 12-13, 15-16 entry H          line    70 file /home/kchung25/anaconda3/envs/p415env/share/psi4/basis/aug-cc-pvtz-jkfit.gbs 

  ==> Integral Setup <==

  ==> DiskDFJK: Density-Fitted J/K Matrices <==

    J tasked:                  Yes
    K tasked:                  Yes
    wK tasked:                  No
    OpenMP threads:              6
    Integrals threads:           6
    Memory [MiB]:            42915
    Algorithm:                Core
    Integral Cache:           SAVE
    Schwarz Cutoff:          1E-12
    Fitting Condition:       1E-10

   => Auxiliary Basis Set <=

  Basis Set: (AUG-CC-PVTZ AUX)
    Blend: AUG-CC-PVTZ-JKFIT + DEF2-UNIVERSAL-JKFIT
    Number of shells: 324
    Number of basis functions: 1092
    Number of Cartesian functions: 1342
    Spherical Harmonics?: true
    Max angular momentum: 4

  Minimum eigenvalue in the overlap matrix is 3.9417663082E-05.
  Reciprocal condition number of the overlap matrix is 2.8464290153E-06.
    Using symmetric orthogonalization.

  ==> Pre-Iterations <==

  SCF Guess: Superposition of Atomic Densities via on-the-fly atomic UHF (no occupation information).

   -------------------------
    Irrep   Nso     Nmo    
   -------------------------
     A        510     510 
   -------------------------
    Total     510     510
   -------------------------

  ==> Iterations <==

                           Total Energy        Delta E     RMS |[F,P]|

   @DF-RHF iter SAD:  -539.40408828599016   -5.39404e+02   0.00000e+00 
   @DF-RHF iter   1:  -541.65364612284100   -2.24956e+00   2.04132e-03 DIIS/ADIIS
   @DF-RHF iter   2:  -541.92237399694193   -2.68728e-01   1.35634e-03 DIIS/ADIIS
   @DF-RHF iter   3:  -542.06973089693997   -1.47357e-01   9.97527e-05 DIIS
   @DF-RHF iter   4:  -542.07185506336180   -2.12417e-03   2.45882e-05 DIIS
   @DF-RHF iter   5:  -542.07199304204721   -1.37979e-04   6.29842e-06 DIIS
   @DF-RHF iter   6:  -542.07200464284529   -1.16008e-05   2.50596e-06 DIIS
   @DF-RHF iter   7:  -542.07200561789364   -9.75048e-07   6.83399e-07 DIIS
   @DF-RHF iter   8:  -542.07200574602621   -1.28133e-07   1.20776e-07 DIIS
   @DF-RHF iter   9:  -542.07200575053344   -4.50723e-09   2.55497e-08 DIIS
   @DF-RHF iter  10:  -542.07200575072488   -1.91449e-10   8.41936e-09 DIIS
  Energy and wave function converged.


  ==> Post-Iterations <==

    Orbital Energies [Eh]
    ---------------------

    Doubly Occupied:                                                      

       1A    -40.573669     2A    -20.738429     3A    -20.735486  
       4A    -20.725980     5A    -20.718860     6A    -20.718256  
       7A     -2.895044     8A     -1.620661     9A     -1.619359  
      10A     -1.618459    11A     -1.524260    12A     -1.508891  
      13A     -1.504080    14A     -1.499282    15A     -1.498167  
      16A     -0.881321    17A     -0.878012    18A     -0.863215  
      19A     -0.860627    20A     -0.850405    21A     -0.781490  
      22A     -0.751548    23A     -0.749746    24A     -0.745962  
      25A     -0.727163    26A     -0.687235    27A     -0.682079  
      28A     -0.670138    29A     -0.665855    30A     -0.659138  

    Virtual:                                                              

      31A     -0.097930    32A     -0.077537    33A     -0.071456  
      34A     -0.065281    35A     -0.047875    36A     -0.045134  
      37A     -0.043452    38A     -0.040661    39A     -0.036212  
      40A     -0.032332    41A     -0.031074    42A     -0.026549  
      43A     -0.024772    44A     -0.015206    45A     -0.013321  
      46A     -0.009451    47A     -0.007597    48A     -0.002001  
      49A      0.001288    50A      0.008559    51A      0.016374  
      52A      0.020062    53A      0.027638    54A      0.039515  
      55A      0.040206    56A      0.043144    57A      0.055630  
      58A      0.061757    59A      0.067354    60A      0.071572  
      61A      0.075957    62A      0.080383    63A      0.088018  
      64A      0.092149    65A      0.095612    66A      0.099249  
      67A      0.104989    68A      0.109654    69A      0.112012  
      70A      0.116534    71A      0.119970    72A      0.121314  
      73A      0.130571    74A      0.134172    75A      0.139734  
      76A      0.147109    77A      0.150165    78A      0.155220  
      79A      0.164811    80A      0.173277    81A      0.177357  
      82A      0.183083    83A      0.189549    84A      0.199547  
      85A      0.206087    86A      0.208587    87A      0.213969  
      88A      0.222546    89A      0.224254    90A      0.227098  
      91A      0.239766    92A      0.242709    93A      0.254900  
      94A      0.282911    95A      0.289040    96A      0.296808  
      97A      0.300532    98A      0.303961    99A      0.312745  
     100A      0.313362   101A      0.319975   102A      0.322999  
     103A      0.326054   104A      0.328282   105A      0.332664  
     106A      0.338473   107A      0.340715   108A      0.343028  
     109A      0.346747   110A      0.353766   111A      0.355432  
     112A      0.358692   113A      0.359347   114A      0.368047  
     115A      0.372082   116A      0.376751   117A      0.378401  
     118A      0.381944   119A      0.385460   120A      0.391584  
     121A      0.399109   122A      0.402743   123A      0.410038  
     124A      0.412755   125A      0.425699   126A      0.434028  
     127A      0.436405   128A      0.440056   129A      0.454531  
     130A      0.459188   131A      0.465835   132A      0.497391  
     133A      0.507456   134A      0.520133   135A      0.535606  
     136A      0.548139   137A      0.557989   138A      0.562188  
     139A      0.573721   140A      0.583171   141A      0.594138  
     142A      0.603103   143A      0.607870   144A      0.620055  
     145A      0.629334   146A      0.642574   147A      0.649047  
     148A      0.661639   149A      0.665557   150A      0.670690  
     151A      0.687253   152A      0.696429   153A      0.700706  
     154A      0.717192   155A      0.723776   156A      0.730311  
     157A      0.732868   158A      0.747373   159A      0.750197  
     160A      0.759563   161A      0.764330   162A      0.777269  
     163A      0.781874   164A      0.786633   165A      0.790656  
     166A      0.803539   167A      0.808100   168A      0.812368  
     169A      0.820856   170A      0.822111   171A      0.828280  
     172A      0.839777   173A      0.840344   174A      0.849049  
     175A      0.851855   176A      0.858292   177A      0.865923  
     178A      0.877901   179A      0.882636   180A      0.888524  
     181A      0.896726   182A      0.909270   183A      0.910704  
     184A      0.919961   185A      0.928499   186A      0.934596  
     187A      0.940995   188A      0.948506   189A      0.949533  
     190A      0.960246   191A      0.963819   192A      0.969289  
     193A      0.972922   194A      0.984146   195A      0.988159  
     196A      1.001991   197A      1.009463   198A      1.012311  
     199A      1.019117   200A      1.030914   201A      1.041815  
     202A      1.051650   203A      1.054791   204A      1.064553  
     205A      1.072657   206A      1.079775   207A      1.089516  
     208A      1.095580   209A      1.102979   210A      1.106815  
     211A      1.115859   212A      1.124515   213A      1.131650  
     214A      1.139786   215A      1.155920   216A      1.162868  
     217A      1.165663   218A      1.175625   219A      1.185092  
     220A      1.190192   221A      1.195573   222A      1.199128  
     223A      1.231246   224A      1.236748   225A      1.247852  
     226A      1.250373   227A      1.267485   228A      1.279266  
     229A      1.287836   230A      1.303460   231A      1.310735  
     232A      1.333586   233A      1.339963   234A      1.346846  
     235A      1.358622   236A      1.372009   237A      1.384260  
     238A      1.393641   239A      1.408363   240A      1.434004  
     241A      1.457915   242A      1.468474   243A      1.489865  
     244A      1.506795   245A      1.515092   246A      1.535457  
     247A      1.548528   248A      1.564046   249A      1.575577  
     250A      1.581286   251A      1.608183   252A      1.613777  
     253A      1.631587   254A      1.643651   255A      1.652251  
     256A      1.662382   257A      1.682209   258A      1.706516  
     259A      1.710133   260A      1.728001   261A      1.760418  
     262A      1.762565   263A      1.781699   264A      1.794443  
     265A      1.842686   266A      1.853264   267A      1.862630  
     268A      1.885516   269A      1.891393   270A      1.911970  
     271A      1.915610   272A      1.937087   273A      1.946229  
     274A      1.949456   275A      2.010594   276A      2.031094  
     277A      2.055019   278A      2.078435   279A      2.127643  
     280A      2.205368   281A      2.210418   282A      2.218312  
     283A      2.228519   284A      2.242277   285A      2.249718  
     286A      2.253699   287A      2.259991   288A      2.293853  
     289A      2.297257   290A      2.300178   291A      2.316543  
     292A      2.340403   293A      2.346007   294A      2.354806  
     295A      2.364309   296A      2.375626   297A      2.381525  
     298A      2.394726   299A      2.411496   300A      2.426505  
     301A      2.433917   302A      2.453821   303A      2.461778  
     304A      2.479532   305A      2.487217   306A      2.500412  
     307A      2.518015   308A      2.531961   309A      2.536764  
     310A      2.556072   311A      2.567754   312A      2.604932  
     313A      2.623306   314A      2.631881   315A      2.634152  
     316A      2.647530   317A      2.652925   318A      2.659464  
     319A      2.668954   320A      2.678932   321A      2.697019  
     322A      2.706127   323A      2.720216   324A      2.729537  
     325A      2.745591   326A      2.749583   327A      2.754111  
     328A      2.768152   329A      2.775878   330A      2.793111  
     331A      2.801931   332A      2.810777   333A      2.824600  
     334A      2.832819   335A      2.847045   336A      2.859697  
     337A      2.896696   338A      2.917396   339A      2.946158  
     340A      3.207132   341A      3.582944   342A      3.619545  
     343A      3.654418   344A      3.675944   345A      3.685835  
     346A      3.703441   347A      3.728548   348A      3.750028  
     349A      3.754297   350A      3.795461   351A      3.936646  
     352A      3.943438   353A      3.971944   354A      3.987800  
     355A      3.996924   356A      4.006009   357A      4.058389  
     358A      4.065943   359A      4.084040   360A      4.086894  
     361A      4.106057   362A      4.124898   363A      4.129412  
     364A      4.153929   365A      4.167095   366A      4.183128  
     367A      4.190563   368A      4.206811   369A      4.214675  
     370A      4.231448   371A      4.242219   372A      4.282596  
     373A      4.303621   374A      4.305181   375A      4.311469  
     376A      4.323265   377A      4.340412   378A      4.357394  
     379A      4.367901   380A      4.381406   381A      4.392540  
     382A      4.398910   383A      4.406790   384A      4.424948  
     385A      4.428714   386A      4.446341   387A      4.451743  
     388A      4.458370   389A      4.469817   390A      4.488879  
     391A      4.498014   392A      4.505217   393A      4.546830  
     394A      4.561553   395A      4.574301   396A      4.605594  
     397A      4.625970   398A      4.641024   399A      4.682998  
     400A      4.687714   401A      4.719425   402A      4.733039  
     403A      4.754381   404A      4.778468   405A      4.817695  
     406A      4.958253   407A      4.969655   408A      4.976810  
     409A      4.994261   410A      5.006483   411A      5.024174  
     412A      5.033164   413A      5.050525   414A      5.072727  
     415A      5.084522   416A      5.104122   417A      5.127673  
     418A      5.151005   419A      5.175585   420A      5.179724  
     421A      5.193887   422A      5.206165   423A      5.243883  
     424A      5.248409   425A      5.273630   426A      5.375161  
     427A      5.381022   428A      5.399252   429A      5.449669  
     430A      5.482950   431A      5.568737   432A      5.601893  
     433A      5.616709   434A      5.636058   435A      5.725327  
     436A      6.003328   437A      6.126603   438A      6.153959  
     439A      6.221843   440A      6.239158   441A      6.432581  
     442A      6.441009   443A      6.480130   444A      6.495798  
     445A      6.503785   446A      6.603610   447A      6.613575  
     448A      6.624884   449A      6.639686   450A      6.651946  
     451A      6.700408   452A      6.760527   453A      6.808509  
     454A      6.854221   455A      6.908707   456A      6.985729  
     457A      7.006677   458A      7.013605   459A      7.030358  
     460A      7.041283   461A      7.071627   462A      7.100896  
     463A      7.123148   464A      7.138504   465A      7.151199  
     466A      7.173706   467A      7.179125   468A      7.185663  
     469A      7.197962   470A      7.200629   471A      7.220468  
     472A      7.226493   473A      7.240473   474A      7.244020  
     475A      7.255136   476A      7.266354   477A      7.274154  
     478A      7.282846   479A      7.285027   480A      7.313699  
     481A      7.315856   482A      7.330912   483A      7.342240  
     484A      7.349397   485A      7.370708   486A      7.454063  
     487A      7.485950   488A      7.492937   489A      7.531507  
     490A      7.559791   491A      7.637154   492A      7.710427  
     493A      7.716042   494A      7.724126   495A      7.742247  
     496A      7.801918   497A      7.848408   498A      7.867214  
     499A      7.879722   500A      7.926822   501A      8.549047  
     502A      8.613117   503A      8.634640   504A      8.702109  
     505A      8.766847   506A     15.333079   507A     15.565675  
     508A     15.763347   509A     15.861845   510A     15.920653  

    Final Occupation by Irrep:
              A 
    DOCC [    30 ]
    NA   [    30 ]
    NB   [    30 ]

  @DF-RHF Final Energy:  -542.07200575072488

   => Energetics <=

    Nuclear Repulsion Energy =            298.5341682531300194
    One-Electron Energy =               -1339.3066964758115773
    Two-Electron Energy =                 498.7005224719566172
    Total Energy =                       -542.0720057507248839

Computation Completed


Properties will be evaluated at   0.000000,   0.000000,   0.000000 [a0]

Properties computed using the SCF density matrix


 Multipole Moments:

 ------------------------------------------------------------------------------------
     Multipole            Electronic (a.u.)      Nuclear  (a.u.)        Total (a.u.)
 ------------------------------------------------------------------------------------

 L = 1.  Multiply by 2.5417464519 to convert [e a0] to [Debye]
 Dipole X            :         -9.6444212           10.6246110            0.9801897
 Dipole Y            :          2.0814637           -2.6349547           -0.5534910
 Dipole Z            :         20.7311198          -20.9722013           -0.2410816
 Magnitude           :                                                    1.1511927

 ------------------------------------------------------------------------------------

*** tstop() called on moses-razer at Mon Jan  8 08:32:34 2024
Module time:
	user time   =      86.69 seconds =       1.44 minutes
	system time =       3.09 seconds =       0.05 minutes
	total time  =         16 seconds =       0.27 minutes
Total time:
	user time   =      86.69 seconds =       1.44 minutes
	system time =       3.09 seconds =       0.05 minutes
	total time  =         16 seconds =       0.27 minutes

  //>>>>>>>>>>>>>>>>>>>>>>>>>>>>>>>>>>>//
  //            Monomer A HF           //
  //<<<<<<<<<<<<<<<<<<<<<<<<<<<<<<<<<<<//

   => Libint2 <=

    Primary   basis highest AM E, G, H:  5, 4, 3
    Auxiliary basis highest AM E, G, H:  6, 5, 4
    Onebody   basis highest AM E, G, H:  6, 5, 4
    Solid Harmonics ordering:            gaussian

*** tstart() called on moses-razer
*** at Mon Jan  8 08:32:34 2024

   => Loading Basis Set <=

    Name: AUG-CC-PVTZ
    Role: ORBITAL
    Keyword: BASIS
    atoms 1                            entry NA         line   469 file /home/kchung25/anaconda3/envs/p415env/share/psi4/basis/aug-cc-pvtz.gbs 
    atoms 2, 5, 8, 11, 14              entry O          line   331 file /home/kchung25/anaconda3/envs/p415env/share/psi4/basis/aug-cc-pvtz.gbs 
    atoms 3-4, 6-7, 9-10, 12-13, 15-16 entry H          line    40 file /home/kchung25/anaconda3/envs/p415env/share/psi4/basis/aug-cc-pvtz.gbs 


         ---------------------------------------------------------
                                   SCF
               by Justin Turney, Rob Parrish, Andy Simmonett
                          and Daniel G. A. Smith
                              RHF Reference
                        6 Threads,  57220 MiB Core
         ---------------------------------------------------------

  ==> Geometry <==

    Molecular point group: c1
    Full point group: C1

    Geometry (in Angstrom), charge = 1, multiplicity = 1:

       Center              X                  Y                   Z               Mass       
    ------------   -----------------  -----------------  -----------------  -----------------
         NA           0.000000000000     0.000000000000     0.000000000000    22.989769282000
      Gh(O)          -0.763534000000     0.932846000000     2.231461000000    15.994914619570
      Gh(H)          -0.733128000000     1.900005000000     2.285331000000     1.007825032230
      Gh(H)          -0.178159000000     0.502091000000     2.866138000000     1.007825032230
      Gh(O)           0.452399000000     2.241951000000    -0.962680000000    15.994914619570
      Gh(H)           1.205593000000     2.615208000000    -0.515886000000     1.007825032230
      Gh(H)           0.800151000000     2.215705000000    -1.892096000000     1.007825032230
      Gh(O)           0.346113000000    -2.463872000000     0.347284000000    15.994914619570
      Gh(H)           0.268206000000    -3.107115000000    -0.361290000000     1.007825032230
      Gh(H)          -0.089641000000    -3.005871000000     1.016265000000     1.007825032230
      Gh(O)           2.050775000000    -0.213605000000    -1.193701000000    15.994914619570
      Gh(H)           2.004919000000    -1.173998000000    -1.292082000000     1.007825032230
      Gh(H)           2.563798000000    -0.024846000000    -0.341802000000     1.007825032230
      Gh(O)          -1.677611000000    -0.559730000000    -1.506099000000    15.994914619570
      Gh(H)          -2.457862000000    -0.155870000000    -2.009591000000     1.007825032230
      Gh(H)          -1.026711000000    -0.660387000000    -2.183118000000     1.007825032230

  Running in c1 symmetry.

  Rotational constants: A =      0.05082  B =      0.04643  C =      0.03861 [cm^-1]
  Rotational constants: A =   1523.60812  B =   1391.90464  C =   1157.46638 [MHz]
  Nuclear repulsion =    0.000000000000000

  Charge       = 1
  Multiplicity = 1
  Electrons    = 10
  Nalpha       = 5
  Nbeta        = 5

  ==> Algorithm <==

  SCF Algorithm Type is DF.
  DIIS enabled.
  MOM disabled.
  Fractional occupation disabled.
  Guess Type is SAD.
  Energy threshold   = 1.00e-08
  Density threshold  = 1.00e-08
  Integral threshold = 1.00e-12

  ==> Primary Basis <==

  Basis Set: AUG-CC-PVTZ
    Blend: AUG-CC-PVTZ
    Number of shells: 176
    Number of basis functions: 510
    Number of Cartesian functions: 584
    Spherical Harmonics?: true
    Max angular momentum: 3

   => Loading Basis Set <=

    Name: (AUG-CC-PVTZ AUX)
    Role: JKFIT
    Keyword: DF_BASIS_SCF
    atoms 1                            entry NA         line   498 file /home/kchung25/anaconda3/envs/p415env/share/psi4/basis/def2-universal-jkfit.gbs 
    atoms 2, 5, 8, 11, 14              entry O          line   286 file /home/kchung25/anaconda3/envs/p415env/share/psi4/basis/aug-cc-pvtz-jkfit.gbs 
    atoms 3-4, 6-7, 9-10, 12-13, 15-16 entry H          line    70 file /home/kchung25/anaconda3/envs/p415env/share/psi4/basis/aug-cc-pvtz-jkfit.gbs 

  ==> Integral Setup <==

  ==> DiskDFJK: Density-Fitted J/K Matrices <==

    J tasked:                  Yes
    K tasked:                  Yes
    wK tasked:                  No
    OpenMP threads:              6
    Integrals threads:           6
    Memory [MiB]:            42915
    Algorithm:                Core
    Integral Cache:           LOAD
    Schwarz Cutoff:          1E-12
    Fitting Condition:       1E-10

   => Auxiliary Basis Set <=

  Basis Set: (AUG-CC-PVTZ AUX)
    Blend: AUG-CC-PVTZ-JKFIT + DEF2-UNIVERSAL-JKFIT
    Number of shells: 324
    Number of basis functions: 1092
    Number of Cartesian functions: 1342
    Spherical Harmonics?: true
    Max angular momentum: 4

  Minimum eigenvalue in the overlap matrix is 3.9417663082E-05.
  Reciprocal condition number of the overlap matrix is 2.8464290153E-06.
    Using symmetric orthogonalization.

  ==> Pre-Iterations <==

  SCF Guess: Superposition of Atomic Densities via on-the-fly atomic UHF (no occupation information).

   -------------------------
    Irrep   Nso     Nmo    
   -------------------------
     A        510     510 
   -------------------------
    Total     510     510
   -------------------------

  ==> Iterations <==

                           Total Energy        Delta E     RMS |[F,P]|

   @DF-RHF iter SAD:  -161.74573878164696   -1.61746e+02   0.00000e+00 
   @DF-RHF iter   1:  -161.67607187809449    6.96669e-02   1.24169e-05 DIIS
   @DF-RHF iter   2:  -161.67609023659878   -1.83585e-05   2.35080e-06 DIIS
   @DF-RHF iter   3:  -161.67609074102114   -5.04422e-07   1.20272e-07 DIIS
   @DF-RHF iter   4:  -161.67609074204898   -1.02784e-09   1.41700e-08 DIIS
   @DF-RHF iter   5:  -161.67609074206331   -1.43245e-11   5.48942e-10 DIIS
  Energy and wave function converged.


  ==> Post-Iterations <==

    Orbital Energies [Eh]
    ---------------------

    Doubly Occupied:                                                      

       1A    -40.760587     2A     -3.073863     3A     -1.797213  
       4A     -1.797193     5A     -1.797182  

    Virtual:                                                              

       6A     -0.181806     7A     -0.109436     8A     -0.109434  
       9A     -0.109432    10A     -0.070079    11A     -0.052301  
      12A     -0.052107    13A     -0.051697    14A     -0.051569  
      15A     -0.051161    16A     -0.049273    17A     -0.049241  
      18A     -0.049208    19A     -0.026854    20A     -0.013392  
      21A     -0.012610    22A     -0.011176    23A     -0.009975  
      24A     -0.009694    25A     -0.006182    26A     -0.005563  
      27A     -0.003390    28A     -0.002242    29A      0.006325  
      30A      0.012637    31A      0.015486    32A      0.023468  
      33A      0.024218    34A      0.028176    35A      0.041086  
      36A      0.043374    37A      0.046590    38A      0.060692  
      39A      0.070200    40A      0.073562    41A      0.080312  
      42A      0.081680    43A      0.085262    44A      0.090462  
      45A      0.098515    46A      0.099113    47A      0.101223  
      48A      0.106617    49A      0.108163    50A      0.112266  
      51A      0.119331    52A      0.124574    53A      0.131235  
      54A      0.133078    55A      0.142528    56A      0.152219  
      57A      0.170768    58A      0.179173    59A      0.181581  
      60A      0.187082    61A      0.195695    62A      0.197394  
      63A      0.203354    64A      0.204399    65A      0.215796  
      66A      0.218864    67A      0.226817    68A      0.234693  
      69A      0.236561    70A      0.252796    71A      0.256838  
      72A      0.259220    73A      0.264766    74A      0.266267  
      75A      0.271795    76A      0.273389    77A      0.273854  
      78A      0.284657    79A      0.289887    80A      0.291678  
      81A      0.298092    82A      0.300027    83A      0.306439  
      84A      0.313385    85A      0.323069    86A      0.328947  
      87A      0.329967    88A      0.333887    89A      0.336217  
      90A      0.340360    91A      0.345394    92A      0.350908  
      93A      0.356156    94A      0.361529    95A      0.365675  
      96A      0.377918    97A      0.379466    98A      0.385473  
      99A      0.392242   100A      0.395660   101A      0.406589  
     102A      0.410783   103A      0.419665   104A      0.428806  
     105A      0.440737   106A      0.444855   107A      0.469310  
     108A      0.477060   109A      0.487365   110A      0.501002  
     111A      0.523890   112A      0.530420   113A      0.536427  
     114A      0.544321   115A      0.555487   116A      0.565435  
     117A      0.575284   118A      0.590926   119A      0.598422  
     120A      0.606089   121A      0.619740   122A      0.627839  
     123A      0.636579   124A      0.645250   125A      0.651587  
     126A      0.655709   127A      0.668107   128A      0.672097  
     129A      0.685477   130A      0.698958   131A      0.701232  
     132A      0.705444   133A      0.707373   134A      0.719917  
     135A      0.726401   136A      0.739320   137A      0.751174  
     138A      0.757621   139A      0.760372   140A      0.766805  
     141A      0.771644   142A      0.779235   143A      0.783057  
     144A      0.796034   145A      0.798046   146A      0.806022  
     147A      0.814054   148A      0.823085   149A      0.830187  
     150A      0.832911   151A      0.833475   152A      0.850229  
     153A      0.854231   154A      0.861022   155A      0.864911  
     156A      0.875525   157A      0.883200   158A      0.884712  
     159A      0.904071   160A      0.910759   161A      0.918396  
     162A      0.922094   163A      0.933659   164A      0.937974  
     165A      0.942523   166A      0.945183   167A      0.951760  
     168A      0.957530   169A      0.965678   170A      0.975306  
     171A      0.982232   172A      0.988114   173A      0.991981  
     174A      1.005353   175A      1.014760   176A      1.023531  
     177A      1.035123   178A      1.045309   179A      1.062427  
     180A      1.067924   181A      1.074667   182A      1.077947  
     183A      1.082758   184A      1.086561   185A      1.096892  
     186A      1.098776   187A      1.106198   188A      1.113244  
     189A      1.130660   190A      1.136446   191A      1.140361  
     192A      1.150477   193A      1.154586   194A      1.163629  
     195A      1.168676   196A      1.174443   197A      1.182435  
     198A      1.200312   199A      1.215467   200A      1.222554  
     201A      1.236937   202A      1.245370   203A      1.261419  
     204A      1.264162   205A      1.271062   206A      1.293115  
     207A      1.305463   208A      1.314431   209A      1.317151  
     210A      1.334804   211A      1.344436   212A      1.353529  
     213A      1.375470   214A      1.380008   215A      1.407293  
     216A      1.421977   217A      1.435325   218A      1.454761  
     219A      1.473903   220A      1.495408   221A      1.508119  
     222A      1.516661   223A      1.545972   224A      1.563707  
     225A      1.608156   226A      1.613376   227A      1.631608  
     228A      1.649602   229A      1.667368   230A      1.687008  
     231A      1.690659   232A      1.702359   233A      1.711832  
     234A      1.719359   235A      1.732293   236A      1.735873  
     237A      1.740133   238A      1.741468   239A      1.769371  
     240A      1.774947   241A      1.787663   242A      1.795908  
     243A      1.807952   244A      1.811304   245A      1.828566  
     246A      1.833064   247A      1.848334   248A      1.861818  
     249A      1.869161   250A      1.891465   251A      1.919908  
     252A      1.963892   253A      1.971610   254A      2.023728  
     255A      2.174687   256A      2.227708   257A      2.251007  
     258A      2.263443   259A      2.282188   260A      2.317317  
     261A      2.328285   262A      2.345417   263A      2.357939  
     264A      2.370554   265A      2.379897   266A      2.385983  
     267A      2.399699   268A      2.402595   269A      2.411048  
     270A      2.419850   271A      2.431087   272A      2.434558  
     273A      2.447501   274A      2.452299   275A      2.460376  
     276A      2.471378   277A      2.487674   278A      2.502626  
     279A      2.513769   280A      2.544938   281A      2.552133  
     282A      2.581964   283A      2.593638   284A      2.610646  
     285A      2.631409   286A      2.647799   287A      2.653335  
     288A      2.692731   289A      2.701078   290A      2.724423  
     291A      2.731168   292A      2.748017   293A      2.764776  
     294A      2.770343   295A      2.791650   296A      2.809714  
     297A      2.830247   298A      2.856344   299A      2.877651  
     300A      2.982627   301A      2.999921   302A      3.014832  
     303A      3.026562   304A      3.041463   305A      3.054917  
     306A      3.058139   307A      3.066886   308A      3.084542  
     309A      3.093865   310A      3.107077   311A      3.124176  
     312A      3.153114   313A      3.156416   314A      3.167214  
     315A      3.176732   316A      3.186256   317A      3.193659  
     318A      3.204341   319A      3.207986   320A      3.217441  
     321A      3.226684   322A      3.239547   323A      3.271764  
     324A      3.274109   325A      3.349256   326A      3.419583  
     327A      3.454635   328A      3.483729   329A      3.505685  
     330A      3.515504   331A      3.555101   332A      3.568176  
     333A      3.580576   334A      3.608823   335A      3.654500  
     336A      4.215677   337A      4.221671   338A      4.240017  
     339A      4.259600   340A      4.283319   341A      4.318742  
     342A      4.323384   343A      4.334040   344A      4.343655  
     345A      4.365702   346A      4.381880   347A      4.391858  
     348A      4.399948   349A      4.422707   350A      4.444168  
     351A      4.447307   352A      4.469289   353A      4.485498  
     354A      4.497270   355A      4.528401   356A      4.542742  
     357A      4.549565   358A      4.559271   359A      4.571076  
     360A      4.585885   361A      4.603167   362A      4.632370  
     363A      4.635563   364A      4.645425   365A      4.672881  
     366A      4.761251   367A      4.795860   368A      4.812805  
     369A      4.837492   370A      4.842363   371A      4.857641  
     372A      4.872641   373A      4.878530   374A      4.888050  
     375A      4.919615   376A      4.944649   377A      4.955332  
     378A      4.962096   379A      4.982653   380A      5.004230  
     381A      5.017447   382A      5.086168   383A      5.108961  
     384A      5.123485   385A      5.154019   386A      5.246002  
     387A      5.290170   388A      5.317300   389A      5.328328  
     390A      5.362409   391A      5.388013   392A      5.396455  
     393A      5.420609   394A      5.477330   395A      5.492089  
     396A      5.502090   397A      5.515432   398A      5.525752  
     399A      5.530515   400A      5.569306   401A      5.590652  
     402A      5.671036   403A      5.740333   404A      5.795887  
     405A      5.831005   406A      6.017439   407A      6.037697  
     408A      6.047040   409A      6.072265   410A      6.096547  
     411A      6.114294   412A      6.149067   413A      6.170333  
     414A      6.174845   415A      6.225997   416A      6.396459  
     417A      6.435879   418A      6.464563   419A      6.548469  
     420A      6.669305   421A      6.815088   422A      6.862685  
     423A      6.881739   424A      6.892752   425A      6.929978  
     426A      7.485921   427A      7.502628   428A      7.512527  
     429A      7.523691   430A      7.534140   431A      7.561853  
     432A      7.623032   433A      7.646634   434A      7.716909  
     435A      7.765364   436A      7.840551   437A      7.869274  
     438A      7.880834   439A      7.886069   440A      7.901007  
     441A      7.923026   442A      7.924696   443A      7.959257  
     444A      7.997157   445A      8.051289   446A      8.075146  
     447A      8.099078   448A      8.107109   449A      8.117592  
     450A      8.126668   451A      8.452523   452A      8.463057  
     453A      8.479998   454A      8.515511   455A      8.541412  
     456A      8.556401   457A      8.604350   458A      8.622513  
     459A      8.646797   460A      8.752186   461A      9.618290  
     462A      9.637519   463A      9.652609   464A      9.669102  
     465A      9.700940   466A      9.759866   467A      9.773120  
     468A      9.777867   469A      9.808804   470A      9.817527  
     471A      9.821796   472A      9.840986   473A      9.850284  
     474A      9.855558   475A      9.892197   476A      9.952456  
     477A      9.998114   478A     10.033884   479A     10.040447  
     480A     10.071798   481A     10.779737   482A     10.838290  
     483A     10.894928   484A     10.965572   485A     11.119688  
     486A     11.583818   487A     11.608844   488A     11.651610  
     489A     11.692339   490A     11.709138   491A     11.840868  
     492A     11.891477   493A     11.959985   494A     11.965486  
     495A     12.010493   496A     13.234112   497A     13.307106  
     498A     13.326913   499A     13.426341   500A     13.474201  
     501A     13.662630   502A     13.691315   503A     13.735409  
     504A     13.774523   505A     13.826764   506A     64.119612  
     507A     64.395949   508A     64.786764   509A     64.956137  
     510A     65.075895  

    Final Occupation by Irrep:
              A 
    DOCC [     5 ]
    NA   [     5 ]
    NB   [     5 ]

  @DF-RHF Final Energy:  -161.67609074206331

   => Energetics <=

    Nuclear Repulsion Energy =              0.0000000000000000
    One-Electron Energy =                -224.9001058063522009
    Two-Electron Energy =                  63.2240150642888779
    Total Energy =                       -161.6760907420633089

Computation Completed


Properties will be evaluated at   0.000000,   0.000000,   0.000000 [a0]

Properties computed using the SCF density matrix


 Multipole Moments:

 ------------------------------------------------------------------------------------
     Multipole            Electronic (a.u.)      Nuclear  (a.u.)        Total (a.u.)
 ------------------------------------------------------------------------------------

 L = 1.  Multiply by 2.5417464519 to convert [e a0] to [Debye]
 Dipole X            :          0.0001691            0.0000000            0.0001691
 Dipole Y            :         -0.0000150            0.0000000           -0.0000150
 Dipole Z            :         -0.0000623            0.0000000           -0.0000623
 Magnitude           :                                                    0.0001808

 ------------------------------------------------------------------------------------

*** tstop() called on moses-razer at Mon Jan  8 08:32:41 2024
Module time:
	user time   =      36.68 seconds =       0.61 minutes
	system time =       0.95 seconds =       0.02 minutes
	total time  =          7 seconds =       0.12 minutes
Total time:
	user time   =     123.39 seconds =       2.06 minutes
	system time =       4.04 seconds =       0.07 minutes
	total time  =         23 seconds =       0.38 minutes

  //>>>>>>>>>>>>>>>>>>>>>>>>>>>>>>>>>>>//
  //            Monomer B HF           //
  //<<<<<<<<<<<<<<<<<<<<<<<<<<<<<<<<<<<//

   => Libint2 <=

    Primary   basis highest AM E, G, H:  5, 4, 3
    Auxiliary basis highest AM E, G, H:  6, 5, 4
    Onebody   basis highest AM E, G, H:  6, 5, 4
    Solid Harmonics ordering:            gaussian

*** tstart() called on moses-razer
*** at Mon Jan  8 08:32:41 2024

   => Loading Basis Set <=

    Name: AUG-CC-PVTZ
    Role: ORBITAL
    Keyword: BASIS
    atoms 1                            entry NA         line   469 file /home/kchung25/anaconda3/envs/p415env/share/psi4/basis/aug-cc-pvtz.gbs 
    atoms 2, 5, 8, 11, 14              entry O          line   331 file /home/kchung25/anaconda3/envs/p415env/share/psi4/basis/aug-cc-pvtz.gbs 
    atoms 3-4, 6-7, 9-10, 12-13, 15-16 entry H          line    40 file /home/kchung25/anaconda3/envs/p415env/share/psi4/basis/aug-cc-pvtz.gbs 


         ---------------------------------------------------------
                                   SCF
               by Justin Turney, Rob Parrish, Andy Simmonett
                          and Daniel G. A. Smith
                              RHF Reference
                        6 Threads,  57220 MiB Core
         ---------------------------------------------------------

  ==> Geometry <==

    Molecular point group: c1
    Full point group: C1

    Geometry (in Angstrom), charge = 0, multiplicity = 1:

       Center              X                  Y                   Z               Mass       
    ------------   -----------------  -----------------  -----------------  -----------------
      Gh(NA)          0.000000000000     0.000000000000     0.000000000000    22.989769282000
         O           -0.763534000000     0.932846000000     2.231461000000    15.994914619570
         H           -0.733128000000     1.900005000000     2.285331000000     1.007825032230
         H           -0.178159000000     0.502091000000     2.866138000000     1.007825032230
         O            0.452399000000     2.241951000000    -0.962680000000    15.994914619570
         H            1.205593000000     2.615208000000    -0.515886000000     1.007825032230
         H            0.800151000000     2.215705000000    -1.892096000000     1.007825032230
         O            0.346113000000    -2.463872000000     0.347284000000    15.994914619570
         H            0.268206000000    -3.107115000000    -0.361290000000     1.007825032230
         H           -0.089641000000    -3.005871000000     1.016265000000     1.007825032230
         O            2.050775000000    -0.213605000000    -1.193701000000    15.994914619570
         H            2.004919000000    -1.173998000000    -1.292082000000     1.007825032230
         H            2.563798000000    -0.024846000000    -0.341802000000     1.007825032230
         O           -1.677611000000    -0.559730000000    -1.506099000000    15.994914619570
         H           -2.457862000000    -0.155870000000    -2.009591000000     1.007825032230
         H           -1.026711000000    -0.660387000000    -2.183118000000     1.007825032230

  Running in c1 symmetry.

  Rotational constants: A =      0.05082  B =      0.04643  C =      0.03861 [cm^-1]
  Rotational constants: A =   1523.60812  B =   1391.90464  C =   1157.46638 [MHz]
  Nuclear repulsion =  183.177088109419998

  Charge       = 0
  Multiplicity = 1
  Electrons    = 50
  Nalpha       = 25
  Nbeta        = 25

  ==> Algorithm <==

  SCF Algorithm Type is DF.
  DIIS enabled.
  MOM disabled.
  Fractional occupation disabled.
  Guess Type is SAD.
  Energy threshold   = 1.00e-08
  Density threshold  = 1.00e-08
  Integral threshold = 1.00e-12

  ==> Primary Basis <==

  Basis Set: AUG-CC-PVTZ
    Blend: AUG-CC-PVTZ
    Number of shells: 176
    Number of basis functions: 510
    Number of Cartesian functions: 584
    Spherical Harmonics?: true
    Max angular momentum: 3

   => Loading Basis Set <=

    Name: (AUG-CC-PVTZ AUX)
    Role: JKFIT
    Keyword: DF_BASIS_SCF
    atoms 1                            entry NA         line   498 file /home/kchung25/anaconda3/envs/p415env/share/psi4/basis/def2-universal-jkfit.gbs 
    atoms 2, 5, 8, 11, 14              entry O          line   286 file /home/kchung25/anaconda3/envs/p415env/share/psi4/basis/aug-cc-pvtz-jkfit.gbs 
    atoms 3-4, 6-7, 9-10, 12-13, 15-16 entry H          line    70 file /home/kchung25/anaconda3/envs/p415env/share/psi4/basis/aug-cc-pvtz-jkfit.gbs 

  ==> Integral Setup <==

  ==> DiskDFJK: Density-Fitted J/K Matrices <==

    J tasked:                  Yes
    K tasked:                  Yes
    wK tasked:                  No
    OpenMP threads:              6
    Integrals threads:           6
    Memory [MiB]:            42915
    Algorithm:                Core
    Integral Cache:           LOAD
    Schwarz Cutoff:          1E-12
    Fitting Condition:       1E-10

   => Auxiliary Basis Set <=

  Basis Set: (AUG-CC-PVTZ AUX)
    Blend: AUG-CC-PVTZ-JKFIT + DEF2-UNIVERSAL-JKFIT
    Number of shells: 324
    Number of basis functions: 1092
    Number of Cartesian functions: 1342
    Spherical Harmonics?: true
    Max angular momentum: 4

  Minimum eigenvalue in the overlap matrix is 3.9417663082E-05.
  Reciprocal condition number of the overlap matrix is 2.8464290153E-06.
    Using symmetric orthogonalization.

  ==> Pre-Iterations <==

  SCF Guess: Superposition of Atomic Densities via on-the-fly atomic UHF (no occupation information).

   -------------------------
    Irrep   Nso     Nmo    
   -------------------------
     A        510     510 
   -------------------------
    Total     510     510
   -------------------------

  ==> Iterations <==

                           Total Energy        Delta E     RMS |[F,P]|

   @DF-RHF iter SAD:  -377.37100821972876   -3.77371e+02   0.00000e+00 
   @DF-RHF iter   1:  -379.83647274018955   -2.46546e+00   2.06075e-03 DIIS/ADIIS
   @DF-RHF iter   2:  -380.10090371990219   -2.64431e-01   1.43853e-03 DIIS/ADIIS
   @DF-RHF iter   3:  -380.26994700127545   -1.69043e-01   9.99775e-05 DIIS
   @DF-RHF iter   4:  -380.27218966338506   -2.24266e-03   2.56730e-05 DIIS
   @DF-RHF iter   5:  -380.27234696958584   -1.57306e-04   7.44642e-06 DIIS
   @DF-RHF iter   6:  -380.27236150979593   -1.45402e-05   3.39842e-06 DIIS
   @DF-RHF iter   7:  -380.27236342297743   -1.91318e-06   7.55382e-07 DIIS
   @DF-RHF iter   8:  -380.27236362593595   -2.02959e-07   1.37644e-07 DIIS
   @DF-RHF iter   9:  -380.27236363253064   -6.59469e-09   3.12177e-08 DIIS
   @DF-RHF iter  10:  -380.27236363278644   -2.55795e-10   1.29221e-08 DIIS
   @DF-RHF iter  11:  -380.27236363281497   -2.85354e-11   4.55739e-09 DIIS
  Energy and wave function converged.


  ==> Post-Iterations <==

    Orbital Energies [Eh]
    ---------------------

    Doubly Occupied:                                                      

       1A    -20.559987     2A    -20.547819     3A    -20.538981  
       4A    -20.538768     5A    -20.538488     6A     -1.346611  
       7A     -1.318667     8A     -1.316775     9A     -1.313081  
      10A     -1.312215    11A     -0.701716    12A     -0.690059  
      13A     -0.681924    14A     -0.670552    15A     -0.669157  
      16A     -0.591391    17A     -0.559805    18A     -0.552804  
      19A     -0.549963    20A     -0.538918    21A     -0.500101  
      22A     -0.489802    23A     -0.480085    24A     -0.475148  
      25A     -0.469934  

    Virtual:                                                              

      26A      0.008754    27A      0.015358    28A      0.017551  
      29A      0.020088    30A      0.045629    31A      0.050319  
      32A      0.053213    33A      0.056973    34A      0.059333  
      35A      0.060189    36A      0.063573    37A      0.066273  
      38A      0.069654    39A      0.077491    40A      0.079834  
      41A      0.084581    42A      0.086229    43A      0.092591  
      44A      0.097696    45A      0.109476    46A      0.118699  
      47A      0.121715    48A      0.129287    49A      0.160862  
      50A      0.163148    51A      0.165874    52A      0.174766  
      53A      0.177603    54A      0.185527    55A      0.191990  
      56A      0.196550    57A      0.200128    58A      0.210823  
      59A      0.211821    60A      0.214111    61A      0.222902  
      62A      0.227343    63A      0.230733    64A      0.236001  
      65A      0.237983    66A      0.242316    67A      0.256504  
      68A      0.261584    69A      0.264810    70A      0.275319  
      71A      0.283492    72A      0.291853    73A      0.296661  
      74A      0.301715    75A      0.308555    76A      0.319588  
      77A      0.335930    78A      0.338197    79A      0.340110  
      80A      0.344724    81A      0.351633    82A      0.356924  
      83A      0.363030    84A      0.367767    85A      0.373917  
      86A      0.381003    87A      0.385747    88A      0.394780  
      89A      0.416199    90A      0.425448    91A      0.431794  
      92A      0.434786    93A      0.441266    94A      0.450775  
      95A      0.452732    96A      0.457255    97A      0.458708  
      98A      0.464623    99A      0.470608   100A      0.473681  
     101A      0.477764   102A      0.482640   103A      0.484259  
     104A      0.488724   105A      0.495226   106A      0.499202  
     107A      0.500549   108A      0.505764   109A      0.510948  
     110A      0.518645   111A      0.518921   112A      0.521888  
     113A      0.526588   114A      0.535436   115A      0.539323  
     116A      0.546916   117A      0.555708   118A      0.564000  
     119A      0.568374   120A      0.573067   121A      0.585761  
     122A      0.590166   123A      0.611734   124A      0.624176  
     125A      0.626246   126A      0.641593   127A      0.680292  
     128A      0.693594   129A      0.707592   130A      0.710875  
     131A      0.723294   132A      0.733495   133A      0.744079  
     134A      0.749370   135A      0.757438   136A      0.768955  
     137A      0.774782   138A      0.788266   139A      0.792263  
     140A      0.807857   141A      0.820499   142A      0.830966  
     143A      0.844016   144A      0.849673   145A      0.855781  
     146A      0.862245   147A      0.873315   148A      0.882452  
     149A      0.888711   150A      0.898117   151A      0.902203  
     152A      0.906417   153A      0.919565   154A      0.925942  
     155A      0.929650   156A      0.932245   157A      0.947764  
     158A      0.952562   159A      0.962467   160A      0.966146  
     161A      0.970869   162A      0.978876   163A      0.982902  
     164A      0.986267   165A      0.992261   166A      0.998734  
     167A      1.007571   168A      1.009580   169A      1.013251  
     170A      1.016190   171A      1.033694   172A      1.041221  
     173A      1.053643   174A      1.056968   175A      1.063545  
     176A      1.067256   177A      1.068779   178A      1.076875  
     179A      1.084348   180A      1.090549   181A      1.095751  
     182A      1.097541   183A      1.113670   184A      1.116851  
     185A      1.118528   186A      1.128491   187A      1.131444  
     188A      1.148140   189A      1.151759   190A      1.156456  
     191A      1.166950   192A      1.171805   193A      1.175233  
     194A      1.184703   195A      1.194141   196A      1.198170  
     197A      1.211818   198A      1.221452   199A      1.229462  
     200A      1.235205   201A      1.242953   202A      1.255346  
     203A      1.260818   204A      1.267239   205A      1.271083  
     206A      1.283378   207A      1.287258   208A      1.305486  
     209A      1.310205   210A      1.318852   211A      1.329048  
     212A      1.334314   213A      1.344432   214A      1.346726  
     215A      1.364879   216A      1.368311   217A      1.385130  
     218A      1.403342   219A      1.417287   220A      1.429978  
     221A      1.437624   222A      1.442693   223A      1.455542  
     224A      1.467511   225A      1.475326   226A      1.491047  
     227A      1.509460   228A      1.516162   229A      1.530982  
     230A      1.541074   231A      1.555827   232A      1.569209  
     233A      1.571673   234A      1.586845   235A      1.607387  
     236A      1.618179   237A      1.637622   238A      1.668084  
     239A      1.691319   240A      1.697587   241A      1.715327  
     242A      1.722159   243A      1.739984   244A      1.749629  
     245A      1.765017   246A      1.778387   247A      1.789628  
     248A      1.801492   249A      1.811973   250A      1.826206  
     251A      1.842522   252A      1.869042   253A      1.890093  
     254A      1.892698   255A      1.920122   256A      1.928884  
     257A      1.935618   258A      1.952057   259A      1.954029  
     260A      2.015605   261A      2.032411   262A      2.046102  
     263A      2.055375   264A      2.056737   265A      2.083864  
     266A      2.097379   267A      2.121909   268A      2.129093  
     269A      2.135548   270A      2.169867   271A      2.188273  
     272A      2.209690   273A      2.235789   274A      2.290605  
     275A      2.325242   276A      2.395723   277A      2.398937  
     278A      2.411015   279A      2.417947   280A      2.435538  
     281A      2.440803   282A      2.448631   283A      2.460935  
     284A      2.487486   285A      2.489803   286A      2.492008  
     287A      2.517765   288A      2.534211   289A      2.547393  
     290A      2.555864   291A      2.562216   292A      2.571872  
     293A      2.575281   294A      2.582640   295A      2.599844  
     296A      2.614564   297A      2.628011   298A      2.642913  
     299A      2.649064   300A      2.674378   301A      2.685473  
     302A      2.698744   303A      2.712870   304A      2.720082  
     305A      2.727458   306A      2.742538   307A      2.763774  
     308A      2.795525   309A      2.812359   310A      2.814994  
     311A      2.822763   312A      2.827229   313A      2.840808  
     314A      2.850972   315A      2.863914   316A      2.869342  
     317A      2.883750   318A      2.895556   319A      2.906642  
     320A      2.922318   321A      2.937975   322A      2.940069  
     323A      2.942466   324A      2.960954   325A      2.963070  
     326A      2.981365   327A      2.998816   328A      3.005739  
     329A      3.014078   330A      3.026164   331A      3.039761  
     332A      3.053955   333A      3.089459   334A      3.111721  
     335A      3.140639   336A      3.756189   337A      3.798483  
     338A      3.831544   339A      3.850643   340A      3.860819  
     341A      3.877138   342A      3.904709   343A      3.923848  
     344A      3.939679   345A      3.976084   346A      4.110825  
     347A      4.120181   348A      4.149592   349A      4.158359  
     350A      4.169052   351A      4.176424   352A      4.226100  
     353A      4.240456   354A      4.257597   355A      4.261593  
     356A      4.281630   357A      4.293840   358A      4.310173  
     359A      4.332197   360A      4.343711   361A      4.359351  
     362A      4.365238   363A      4.381677   364A      4.391753  
     365A      4.405629   366A      4.412178   367A      4.464110  
     368A      4.481605   369A      4.483403   370A      4.486503  
     371A      4.494778   372A      4.517715   373A      4.530396  
     374A      4.534883   375A      4.552783   376A      4.557923  
     377A      4.576195   378A      4.586121   379A      4.595227  
     380A      4.600650   381A      4.612950   382A      4.623827  
     383A      4.630298   384A      4.641713   385A      4.657820  
     386A      4.666309   387A      4.680660   388A      4.705905  
     389A      4.730322   390A      4.747228   391A      4.784030  
     392A      4.795546   393A      4.803168   394A      4.855484  
     395A      4.871480   396A      4.901856   397A      4.912610  
     398A      4.919097   399A      4.953960   400A      4.983561  
     401A      5.138927   402A      5.145715   403A      5.156953  
     404A      5.174621   405A      5.180531   406A      5.198699  
     407A      5.210089   408A      5.227584   409A      5.244780  
     410A      5.260716   411A      5.280250   412A      5.306916  
     413A      5.333896   414A      5.344655   415A      5.354546  
     416A      5.366944   417A      5.385083   418A      5.424103  
     419A      5.432648   420A      5.454218   421A      5.528972  
     422A      5.562766   423A      5.581506   424A      5.618146  
     425A      5.648419   426A      5.737428   427A      5.780199  
     428A      5.783205   429A      5.812293   430A      5.881566  
     431A      5.922948   432A      6.172426   433A      6.310382  
     434A      6.334447   435A      6.378493   436A      6.416400  
     437A      6.614413   438A      6.621771   439A      6.662777  
     440A      6.679786   441A      6.693147   442A      6.778304  
     443A      6.793080   444A      6.811673   445A      6.826116  
     446A      6.842788   447A      6.872494   448A      6.945938  
     449A      6.996260   450A      7.033656   451A      7.059273  
     452A      7.124864   453A      7.159859   454A      7.190408  
     455A      7.190891   456A      7.205673   457A      7.222591  
     458A      7.232225   459A      7.259969   460A      7.287698  
     461A      7.287983   462A      7.318264   463A      7.323342  
     464A      7.350502   465A      7.365559   466A      7.372143  
     467A      7.383062   468A      7.395700   469A      7.397001  
     470A      7.422270   471A      7.432245   472A      7.443399  
     473A      7.447807   474A      7.457215   475A      7.461623  
     476A      7.471176   477A      7.477693   478A      7.489488  
     479A      7.503547   480A      7.513126   481A      7.521073  
     482A      7.556187   483A      7.570154   484A      7.591406  
     485A      7.669028   486A      7.690646   487A      7.699730  
     488A      7.748478   489A      7.777416   490A      7.821374  
     491A      7.894595   492A      7.902625   493A      7.918698  
     494A      7.938776   495A      8.000233   496A      8.044084  
     497A      8.054442   498A      8.067853   499A      8.122082  
     500A      8.740363   501A      8.803230   502A      8.817106  
     503A      8.882291   504A      8.943893   505A     15.540544  
     506A     15.754939   507A     15.948118   508A     16.042066  
     509A     16.097545   510A     64.948561  

    Final Occupation by Irrep:
              A 
    DOCC [    25 ]
    NA   [    25 ]
    NB   [    25 ]

  @DF-RHF Final Energy:  -380.27236363281497

   => Energetics <=

    Nuclear Repulsion Energy =            183.1770881094199979
    One-Electron Energy =                -890.9933958627237871
    Two-Electron Energy =                 327.5439441204888453
    Total Energy =                       -380.2723636328149723

Computation Completed


Properties will be evaluated at   0.000000,   0.000000,   0.000000 [a0]

Properties computed using the SCF density matrix


 Multipole Moments:

 ------------------------------------------------------------------------------------
     Multipole            Electronic (a.u.)      Nuclear  (a.u.)        Total (a.u.)
 ------------------------------------------------------------------------------------

 L = 1.  Multiply by 2.5417464519 to convert [e a0] to [Debye]
 Dipole X            :         -9.6908454           10.6246110            0.9337656
 Dipole Y            :          2.0968524           -2.6349547           -0.5381023
 Dipole Z            :         20.8976905          -20.9722013           -0.0745109
 Magnitude           :                                                    1.0802889

 ------------------------------------------------------------------------------------

*** tstop() called on moses-razer at Mon Jan  8 08:32:55 2024
Module time:
	user time   =      74.98 seconds =       1.25 minutes
	system time =       1.16 seconds =       0.02 minutes
	total time  =         14 seconds =       0.23 minutes
Total time:
	user time   =     198.40 seconds =       3.31 minutes
	system time =       5.20 seconds =       0.09 minutes
	total time  =         37 seconds =       0.62 minutes
  Constructing Basis Sets for SAPT...

   => Loading Basis Set <=

    Name: (AUG-CC-PVTZ AUX)
    Role: RIFIT
    Keyword: DF_BASIS_SAPT
    atoms 1                            entry NA         line   610 file /home/kchung25/anaconda3/envs/p415env/share/psi4/basis/def2-qzvpp-ri.gbs 
    atoms 2, 5, 8, 11, 14              entry O          line   264 file /home/kchung25/anaconda3/envs/p415env/share/psi4/basis/aug-cc-pvtz-ri.gbs 
    atoms 3-4, 6-7, 9-10, 12-13, 15-16 entry H          line    30 file /home/kchung25/anaconda3/envs/p415env/share/psi4/basis/aug-cc-pvtz-ri.gbs 

   => Loading Basis Set <=

    Name: (AUG-CC-PVTZ AUX)
    Role: JKFIT
    Keyword: DF_BASIS_ELST
    atoms 1                            entry NA         line   498 file /home/kchung25/anaconda3/envs/p415env/share/psi4/basis/def2-universal-jkfit.gbs 
    atoms 2, 5, 8, 11, 14              entry O          line   286 file /home/kchung25/anaconda3/envs/p415env/share/psi4/basis/aug-cc-pvtz-jkfit.gbs 
    atoms 3-4, 6-7, 9-10, 12-13, 15-16 entry H          line    70 file /home/kchung25/anaconda3/envs/p415env/share/psi4/basis/aug-cc-pvtz-jkfit.gbs 


  //>>>>>>>>>>>>>>>>>>>>>>>>>>>>>>>>>>>//
  //               SAPT2+              //
  //<<<<<<<<<<<<<<<<<<<<<<<<<<<<<<<<<<<//


*** tstart() called on moses-razer
*** at Mon Jan  8 08:32:55 2024

        SAPT2+  
    Ed Hohenstein
     6 June 2009

      Orbital Information
  --------------------------
    NSO        =       510
    NMO        =       510
    NRI        =      1156
    NOCC A     =         5
    NOCC B     =        25
    FOCC A     =         0
    FOCC B     =         0
    NVIR A     =       505
    NVIR B     =       485

    Estimated memory usage: 6183.8 MB

    Natural Orbital Cutoff:   1.000E-06
    Disp(T3) Truncation:            Yes
    CCD (vv|vv) Truncation:         Yes
    MBPT T2 Truncation:             Yes

    Monomer A: 488 virtual orbitals dropped
    Monomer B: 77 virtual orbitals dropped

    Elst10,r            =    -0.118493662016 [Eh]
    Exch10 (S^2)        =     0.026573689632 [Eh]
    Exch10              =     0.026599272653 [Eh]
    Ind20,r (A<-B)      =    -0.000123263388 [Eh]
    Ind20,r (B<-A)      =    -0.058385685965 [Eh]
    Ind20,r             =    -0.058508949353 [Eh]
    Exch-Ind20,r (A<-B) =     0.000081499025 [Eh]
    Exch-Ind20,r (B<-A) =     0.024886942267 [Eh]
    Exch-Ind20,r        =     0.024968441292 [Eh]
    Disp20              =    -0.002685765933 [Eh]
    Disp20 (NO)         =    -0.002367477431 [Eh]
    Exch-Disp20         =     0.000445183293 [Eh]
    Elst12,r            =     0.005461241398 [Eh]
    Exch11              =    -0.000561754176 [Eh]
    Exch12              =     0.004359325418 [Eh]
    Ind22               =    -0.009370181964 [Eh]
    Disp21              =    -0.000093122462 [Eh]
    Disp22 (SDQ)        =    -0.000175189845 [Eh]

    (i =   1 of  25)          0 seconds
    (i =   2 of  25)          0 seconds
    (i =   3 of  25)          0 seconds
    (i =   4 of  25)          0 seconds
    (i =   5 of  25)          1 seconds
    (i =   6 of  25)          1 seconds
    (i =   7 of  25)          1 seconds
    (i =   8 of  25)          1 seconds
    (i =   9 of  25)          1 seconds
    (i =  10 of  25)          1 seconds
    (i =  11 of  25)          1 seconds
    (i =  12 of  25)          1 seconds
    (i =  13 of  25)          1 seconds
    (i =  14 of  25)          1 seconds
    (i =  15 of  25)          1 seconds
    (i =  16 of  25)          1 seconds
    (i =  17 of  25)          1 seconds
    (i =  18 of  25)          2 seconds
    (i =  19 of  25)          2 seconds
    (i =  20 of  25)          2 seconds
    (i =  21 of  25)          2 seconds
    (i =  22 of  25)          2 seconds
    (i =  23 of  25)          2 seconds
    (i =  24 of  25)          2 seconds
    (i =  25 of  25)          2 seconds

    Disp220 (T)         =    -0.000077723728 [Eh]

    (i =   1 of   5)         50 seconds
    (i =   2 of   5)         99 seconds
    (i =   3 of   5)        148 seconds
    (i =   4 of   5)        197 seconds
    (i =   5 of   5)        246 seconds

    Disp202 (T)         =    -0.000157133964 [Eh]

    Disp22 (T)          =    -0.000234857692 [Eh]

    Est. Disp220 (T)    =    -0.000088173065 [Eh]
    Est. Disp202 (T)    =    -0.000178259375 [Eh]

    Est. Disp22 (T)     =    -0.000266432440 [Eh]

    SAPT Results 
  --------------------------------------------------------------------------------------------------------
    Electrostatics               -113.03242062 [mEh]     -70.92891478 [kcal/mol]    -296.76657945 [kJ/mol]
      Elst10,r                   -118.49366202 [mEh]     -74.35589550 [kcal/mol]    -311.10506676 [kJ/mol]
      Elst12,r                      5.46124140 [mEh]       3.42698072 [kcal/mol]      14.33848731 [kJ/mol]

    Exchange                       30.39684389 [mEh]      19.07430752 [kcal/mol]      79.80690265 [kJ/mol]
      Exch10                       26.59927265 [mEh]      16.69129559 [kcal/mol]      69.83638073 [kJ/mol]
      Exch10(S^2)                  26.57368963 [mEh]      16.67524200 [kcal/mol]      69.76921252 [kJ/mol]
      Exch11(S^2)                  -0.56175418 [mEh]      -0.35250607 [kcal/mol]      -1.47488539 [kJ/mol]
      Exch12(S^2)                   4.35932542 [mEh]       2.73551800 [kcal/mol]      11.44540731 [kJ/mol]

    Induction                     -37.02848379 [mEh]     -23.23572438 [kcal/mol]     -97.21827079 [kJ/mol]
      Ind20,r                     -58.50894935 [mEh]     -36.71492002 [kcal/mol]    -153.61522536 [kJ/mol]
      Ind22                        -9.37018196 [mEh]      -5.87987795 [kcal/mol]     -24.60140936 [kJ/mol]
      Exch-Ind20,r                 24.96844129 [mEh]      15.66793346 [kcal/mol]      65.55463358 [kJ/mol]
      Exch-Ind22                    3.99868466 [mEh]       2.50921251 [kcal/mol]      10.49854513 [kJ/mol]
      delta HF,r (2)                1.88352158 [mEh]       1.18192763 [kcal/mol]       4.94518522 [kJ/mol]

    Dispersion                     -2.77532739 [mEh]      -1.74154423 [kcal/mol]      -7.28662105 [kJ/mol]
      Disp20                       -2.68576593 [mEh]      -1.68534357 [kcal/mol]      -7.05147748 [kJ/mol]
      Disp21                       -0.09312246 [mEh]      -0.05843523 [kcal/mol]      -0.24449299 [kJ/mol]
      Disp22 (SDQ)                 -0.17518984 [mEh]      -0.10993329 [kcal/mol]      -0.45996087 [kJ/mol]
      Disp22 (T)                   -0.23485769 [mEh]      -0.14737543 [kcal/mol]      -0.61661879 [kJ/mol]
      Est. Disp22 (T)              -0.26643244 [mEh]      -0.16718888 [kcal/mol]      -0.69951827 [kJ/mol]
      Exch-Disp20                   0.44518329 [mEh]       0.27935673 [kcal/mol]       1.16882857 [kJ/mol]

  Total HF                       -123.55137585 [mEh]     -77.52965884 [kcal/mol]    -324.38409259 [kJ/mol]
  Total SAPT0                    -125.79195849 [mEh]     -78.93564568 [kcal/mol]    -330.26674151 [kJ/mol]
  Total SAPT2                    -121.90464315 [mEh]     -76.49631847 [kcal/mol]    -320.06059650 [kJ/mol]
  Total SAPT2+                   -122.43938790 [mEh]     -76.83187587 [kcal/mol]    -321.46456864 [kJ/mol]

  Special recipe for scaled SAPT0 (see Manual):
    Electrostatics sSAPT0        -118.49366202 [mEh]     -74.35589550 [kcal/mol]    -311.10506676 [kJ/mol]
    Exchange sSAPT0                26.59927265 [mEh]      16.69129559 [kcal/mol]      69.83638073 [kJ/mol]
    Induction sSAPT0              -31.58480419 [mEh]     -19.81976385 [kcal/mol]     -82.92589197 [kJ/mol]
    Dispersion sSAPT0              -2.23929564 [mEh]      -1.40517923 [kcal/mol]      -5.87926990 [kJ/mol]
  Total sSAPT0                   -125.71848919 [mEh]     -78.88954300 [kcal/mol]    -330.07384790 [kJ/mol]
  --------------------------------------------------------------------------------------------------------

*** tstop() called on moses-razer at Mon Jan  8 08:50:33 2024
Module time:
	user time   =    5649.82 seconds =      94.16 minutes
	system time =      69.55 seconds =       1.16 minutes
	total time  =       1058 seconds =      17.63 minutes
Total time:
	user time   =    5849.09 seconds =      97.48 minutes
	system time =      74.75 seconds =       1.25 minutes
	total time  =       1095 seconds =      18.25 minutes

    Psi4 stopped on: Monday, 08 January 2024 08:50AM
    Psi4 wall time for execution: 0:18:15.58

*** Psi4 exiting successfully. Buy a developer a beer!
