
    -----------------------------------------------------------------------
          Psi4: An Open-Source Ab Initio Electronic Structure Package
                               Psi4 1.9 release

                         Git: Rev {} zzzzzzz 


    D. G. A. Smith, L. A. Burns, A. C. Simmonett, R. M. Parrish,
    M. C. Schieber, R. Galvelis, P. Kraus, H. Kruse, R. Di Remigio,
    A. Alenaizan, A. M. James, S. Lehtola, J. P. Misiewicz, M. Scheurer,
    R. A. Shaw, J. B. Schriber, Y. Xie, Z. L. Glick, D. A. Sirianni,
    J. S. O'Brien, J. M. Waldrop, A. Kumar, E. G. Hohenstein,
    B. P. Pritchard, B. R. Brooks, H. F. Schaefer III, A. Yu. Sokolov,
    K. Patkowski, A. E. DePrince III, U. Bozkaya, R. A. King,
    F. A. Evangelista, J. M. Turney, T. D. Crawford, C. D. Sherrill,
    J. Chem. Phys. 152(18) 184108 (2020). https://doi.org/10.1063/5.0006002

                            Additional Code Authors
    E. T. Seidl, C. L. Janssen, E. F. Valeev, M. L. Leininger,
    J. F. Gonthier, R. M. Richard, H. R. McAlexander, M. Saitow, X. Wang,
    P. Verma, M. H. Lechner, A. Jiang, S. Behnle, A. G. Heide,
    M. F. Herbst, and D. L. Poole

             Previous Authors, Complete List of Code Contributors,
                       and Citations for Specific Modules
    https://github.com/psi4/psi4/blob/master/codemeta.json
    https://github.com/psi4/psi4/graphs/contributors
    http://psicode.org/psi4manual/master/introduction.html#citing-psifour

    -----------------------------------------------------------------------


    Psi4 started on: Monday, 08 January 2024 02:38AM

    Process ID: 609076
    Host:       moses-razer
    PSIDATADIR: /home/kchung25/anaconda3/envs/psi4_19/share/psi4
    Memory:     500.0 MiB
    Threads:    6
    
  ==> Input File <==

--------------------------------------------------------------------------
MEMORY 60 GB

molecule dimer {
1 1
Na     0.000000     0.000000     0.000000
--
0 1
O     -0.326768     2.408225     0.061285
H      0.544784     2.772753    -0.175390
H     -0.732186     2.969370     0.737395
O      0.756241     0.217993     2.191234
H      0.298885    -0.587551     2.571149
H      1.393189     0.622836     2.815605
O      1.186850    -2.317272     0.164521
H      1.872732    -2.329814     0.850027
H      0.683306    -3.146135     0.325061
O      1.885007     0.747789    -1.167856
H      2.689228     0.780065    -0.668381
H      2.068393     0.776155    -2.104132
O     -1.476463     0.638790    -1.711258
H     -0.833314     1.324452    -1.599428
H     -2.279710     1.059435    -1.296832

units ang
no_reorient
no_com
symmetry c1
}

set {
basis        aug-cc-pVTZ
scf_type     df
}

energy("sapt2+")
--------------------------------------------------------------------------

  Memory set to  55.879 GiB by Python driver.

Scratch directory: /scratch/
   => Loading Basis Set <=

    Name: AUG-CC-PVTZ
    Role: ORBITAL
    Keyword: BASIS
    atoms 1                            entry NA         line   469 file /home/kchung25/anaconda3/envs/p415env/share/psi4/basis/aug-cc-pvtz.gbs 
    atoms 2, 5, 8, 11, 14              entry O          line   331 file /home/kchung25/anaconda3/envs/p415env/share/psi4/basis/aug-cc-pvtz.gbs 
    atoms 3-4, 6-7, 9-10, 12-13, 15-16 entry H          line    40 file /home/kchung25/anaconda3/envs/p415env/share/psi4/basis/aug-cc-pvtz.gbs 

   => Loading Basis Set <=

    Name: AUG-CC-PVTZ
    Role: ORBITAL
    Keyword: BASIS
    atoms 1                            entry NA         line   469 file /home/kchung25/anaconda3/envs/p415env/share/psi4/basis/aug-cc-pvtz.gbs 
    atoms 2, 5, 8, 11, 14              entry O          line   331 file /home/kchung25/anaconda3/envs/p415env/share/psi4/basis/aug-cc-pvtz.gbs 
    atoms 3-4, 6-7, 9-10, 12-13, 15-16 entry H          line    40 file /home/kchung25/anaconda3/envs/p415env/share/psi4/basis/aug-cc-pvtz.gbs 


  //>>>>>>>>>>>>>>>>>>>>>>>>>>>>>>>>>>>//
  //              Dimer HF             //
  //<<<<<<<<<<<<<<<<<<<<<<<<<<<<<<<<<<<//

   => Libint2 <=

    Primary   basis highest AM E, G, H:  5, 4, 3
    Auxiliary basis highest AM E, G, H:  6, 5, 4
    Onebody   basis highest AM E, G, H:  6, 5, 4
    Solid Harmonics ordering:            gaussian

*** tstart() called on moses-razer
*** at Mon Jan  8 02:38:09 2024

   => Loading Basis Set <=

    Name: AUG-CC-PVTZ
    Role: ORBITAL
    Keyword: BASIS
    atoms 1                            entry NA         line   469 file /home/kchung25/anaconda3/envs/p415env/share/psi4/basis/aug-cc-pvtz.gbs 
    atoms 2, 5, 8, 11, 14              entry O          line   331 file /home/kchung25/anaconda3/envs/p415env/share/psi4/basis/aug-cc-pvtz.gbs 
    atoms 3-4, 6-7, 9-10, 12-13, 15-16 entry H          line    40 file /home/kchung25/anaconda3/envs/p415env/share/psi4/basis/aug-cc-pvtz.gbs 


         ---------------------------------------------------------
                                   SCF
               by Justin Turney, Rob Parrish, Andy Simmonett
                          and Daniel G. A. Smith
                              RHF Reference
                        6 Threads,  57220 MiB Core
         ---------------------------------------------------------

  ==> Geometry <==

    Molecular point group: c1
    Full point group: C1

    Geometry (in Angstrom), charge = 1, multiplicity = 1:

       Center              X                  Y                   Z               Mass       
    ------------   -----------------  -----------------  -----------------  -----------------
         NA           0.000000000000     0.000000000000     0.000000000000    22.989769282000
         O           -0.326768000000     2.408225000000     0.061285000000    15.994914619570
         H            0.544784000000     2.772753000000    -0.175390000000     1.007825032230
         H           -0.732186000000     2.969370000000     0.737395000000     1.007825032230
         O            0.756241000000     0.217993000000     2.191234000000    15.994914619570
         H            0.298885000000    -0.587551000000     2.571149000000     1.007825032230
         H            1.393189000000     0.622836000000     2.815605000000     1.007825032230
         O            1.186850000000    -2.317272000000     0.164521000000    15.994914619570
         H            1.872732000000    -2.329814000000     0.850027000000     1.007825032230
         H            0.683306000000    -3.146135000000     0.325061000000     1.007825032230
         O            1.885007000000     0.747789000000    -1.167856000000    15.994914619570
         H            2.689228000000     0.780065000000    -0.668381000000     1.007825032230
         H            2.068393000000     0.776155000000    -2.104132000000     1.007825032230
         O           -1.476463000000     0.638790000000    -1.711258000000    15.994914619570
         H           -0.833314000000     1.324452000000    -1.599428000000     1.007825032230
         H           -2.279710000000     1.059435000000    -1.296832000000     1.007825032230

  Running in c1 symmetry.

  Rotational constants: A =      0.06168  B =      0.04283  C =      0.03847 [cm^-1]
  Rotational constants: A =   1849.12930  B =   1284.07305  C =   1153.32464 [MHz]
  Nuclear repulsion =  307.093240708185419

  Charge       = 1
  Multiplicity = 1
  Electrons    = 60
  Nalpha       = 30
  Nbeta        = 30

  ==> Algorithm <==

  SCF Algorithm Type is DF.
  DIIS enabled.
  MOM disabled.
  Fractional occupation disabled.
  Guess Type is SAD.
  Energy threshold   = 1.00e-08
  Density threshold  = 1.00e-08
  Integral threshold = 1.00e-12

  ==> Primary Basis <==

  Basis Set: AUG-CC-PVTZ
    Blend: AUG-CC-PVTZ
    Number of shells: 176
    Number of basis functions: 510
    Number of Cartesian functions: 584
    Spherical Harmonics?: true
    Max angular momentum: 3

   => Loading Basis Set <=

    Name: (AUG-CC-PVTZ AUX)
    Role: JKFIT
    Keyword: DF_BASIS_SCF
    atoms 1                            entry NA         line   498 file /home/kchung25/anaconda3/envs/p415env/share/psi4/basis/def2-universal-jkfit.gbs 
    atoms 2, 5, 8, 11, 14              entry O          line   286 file /home/kchung25/anaconda3/envs/p415env/share/psi4/basis/aug-cc-pvtz-jkfit.gbs 
    atoms 3-4, 6-7, 9-10, 12-13, 15-16 entry H          line    70 file /home/kchung25/anaconda3/envs/p415env/share/psi4/basis/aug-cc-pvtz-jkfit.gbs 

  ==> Integral Setup <==

  ==> DiskDFJK: Density-Fitted J/K Matrices <==

    J tasked:                  Yes
    K tasked:                  Yes
    wK tasked:                  No
    OpenMP threads:              6
    Integrals threads:           6
    Memory [MiB]:            42915
    Algorithm:                Core
    Integral Cache:           SAVE
    Schwarz Cutoff:          1E-12
    Fitting Condition:       1E-10

   => Auxiliary Basis Set <=

  Basis Set: (AUG-CC-PVTZ AUX)
    Blend: AUG-CC-PVTZ-JKFIT + DEF2-UNIVERSAL-JKFIT
    Number of shells: 324
    Number of basis functions: 1092
    Number of Cartesian functions: 1342
    Spherical Harmonics?: true
    Max angular momentum: 4

  Minimum eigenvalue in the overlap matrix is 1.4131345672E-05.
  Reciprocal condition number of the overlap matrix is 9.7274403942E-07.
    Using symmetric orthogonalization.

  ==> Pre-Iterations <==

  SCF Guess: Superposition of Atomic Densities via on-the-fly atomic UHF (no occupation information).

   -------------------------
    Irrep   Nso     Nmo    
   -------------------------
     A        510     510 
   -------------------------
    Total     510     510
   -------------------------

  ==> Iterations <==

                           Total Energy        Delta E     RMS |[F,P]|

   @DF-RHF iter SAD:  -539.48318283494314   -5.39483e+02   0.00000e+00 
   @DF-RHF iter   1:  -541.66260659861803   -2.17942e+00   2.03997e-03 DIIS/ADIIS
   @DF-RHF iter   2:  -541.93224811340394   -2.69642e-01   1.34058e-03 DIIS/ADIIS
   @DF-RHF iter   3:  -542.07638046923478   -1.44132e-01   1.00857e-04 DIIS/ADIIS
   @DF-RHF iter   4:  -542.07852118413223   -2.14071e-03   2.68141e-05 DIIS
   @DF-RHF iter   5:  -542.07866053406906   -1.39350e-04   9.13616e-06 DIIS
   @DF-RHF iter   6:  -542.07867593972856   -1.54057e-05   3.39536e-06 DIIS
   @DF-RHF iter   7:  -542.07867816919600   -2.22947e-06   6.47686e-07 DIIS
   @DF-RHF iter   8:  -542.07867831910107   -1.49905e-07   1.28905e-07 DIIS
   @DF-RHF iter   9:  -542.07867832430918   -5.20811e-09   2.88095e-08 DIIS
   @DF-RHF iter  10:  -542.07867832451495   -2.05773e-10   9.68297e-09 DIIS
  Energy and wave function converged.


  ==> Post-Iterations <==

    Orbital Energies [Eh]
    ---------------------

    Doubly Occupied:                                                      

       1A    -40.567859     2A    -20.737730     3A    -20.728106  
       4A    -20.727818     5A    -20.720308     6A    -20.701447  
       7A     -2.890195     8A     -1.616348     9A     -1.614804  
      10A     -1.613691    11A     -1.521006    12A     -1.511585  
      13A     -1.505162    14A     -1.495631    15A     -1.484982  
      16A     -0.899964    17A     -0.887932    18A     -0.886241  
      19A     -0.855700    20A     -0.842455    21A     -0.765598  
      22A     -0.757364    23A     -0.747138    24A     -0.739865  
      25A     -0.716383    26A     -0.684853    27A     -0.679825  
      28A     -0.671964    29A     -0.660224    30A     -0.650173  

    Virtual:                                                              

      31A     -0.097122    32A     -0.076324    33A     -0.072027  
      34A     -0.066276    35A     -0.047057    36A     -0.044043  
      37A     -0.042931    38A     -0.040228    39A     -0.038701  
      40A     -0.034647    41A     -0.031495    42A     -0.027627  
      43A     -0.023632    44A     -0.014091    45A     -0.012603  
      46A     -0.008484    47A     -0.004728    48A     -0.000806  
      49A      0.002061    50A      0.007107    51A      0.016171  
      52A      0.022278    53A      0.028300    54A      0.038358  
      55A      0.043986    56A      0.047665    57A      0.056268  
      58A      0.057931    59A      0.064563    60A      0.065581  
      61A      0.070969    62A      0.077812    63A      0.085772  
      64A      0.087155    65A      0.090973    66A      0.095391  
      67A      0.099956    68A      0.109190    69A      0.112096  
      70A      0.113910    71A      0.124707    72A      0.126423  
      73A      0.131194    74A      0.142032    75A      0.144200  
      76A      0.151087    77A      0.159770    78A      0.165741  
      79A      0.176502    80A      0.183780    81A      0.185152  
      82A      0.191082    83A      0.193500    84A      0.201350  
      85A      0.208541    86A      0.212554    87A      0.217803  
      88A      0.230773    89A      0.238769    90A      0.240288  
      91A      0.246654    92A      0.269152    93A      0.274993  
      94A      0.281502    95A      0.289498    96A      0.294116  
      97A      0.297011    98A      0.302320    99A      0.303803  
     100A      0.307554   101A      0.311036   102A      0.318980  
     103A      0.322233   104A      0.324950   105A      0.328029  
     106A      0.331040   107A      0.339480   108A      0.343520  
     109A      0.345809   110A      0.348431   111A      0.353700  
     112A      0.359651   113A      0.360225   114A      0.367711  
     115A      0.370235   116A      0.373953   117A      0.378692  
     118A      0.386968   119A      0.391204   120A      0.398878  
     121A      0.404943   122A      0.409592   123A      0.415030  
     124A      0.421827   125A      0.425517   126A      0.430733  
     127A      0.447006   128A      0.456202   129A      0.472783  
     130A      0.479317   131A      0.488655   132A      0.507080  
     133A      0.526012   134A      0.536933   135A      0.545993  
     136A      0.554184   137A      0.566037   138A      0.573123  
     139A      0.578594   140A      0.596071   141A      0.602662  
     142A      0.615780   143A      0.625579   144A      0.626196  
     145A      0.631266   146A      0.651884   147A      0.658714  
     148A      0.674341   149A      0.689668   150A      0.692983  
     151A      0.695795   152A      0.714240   153A      0.716438  
     154A      0.722098   155A      0.724967   156A      0.736930  
     157A      0.744955   158A      0.750264   159A      0.764475  
     160A      0.766514   161A      0.776820   162A      0.787300  
     163A      0.792045   164A      0.800325   165A      0.808007  
     166A      0.810477   167A      0.821787   168A      0.822376  
     169A      0.828331   170A      0.833721   171A      0.839510  
     172A      0.842577   173A      0.851220   174A      0.858820  
     175A      0.863247   176A      0.869686   177A      0.879340  
     178A      0.881984   179A      0.891481   180A      0.897905  
     181A      0.906119   182A      0.908960   183A      0.919659  
     184A      0.927366   185A      0.934364   186A      0.936999  
     187A      0.946452   188A      0.948694   189A      0.956557  
     190A      0.963768   191A      0.971679   192A      0.975924  
     193A      0.981628   194A      0.990262   195A      0.994228  
     196A      1.006849   197A      1.009487   198A      1.029962  
     199A      1.033130   200A      1.042827   201A      1.052992  
     202A      1.058410   203A      1.067594   204A      1.078073  
     205A      1.078828   206A      1.081728   207A      1.103938  
     208A      1.113280   209A      1.122827   210A      1.132103  
     211A      1.141107   212A      1.147336   213A      1.150979  
     214A      1.158150   215A      1.181020   216A      1.187745  
     217A      1.188444   218A      1.201225   219A      1.206795  
     220A      1.219246   221A      1.232778   222A      1.237839  
     223A      1.253935   224A      1.261421   225A      1.271928  
     226A      1.291738   227A      1.307315   228A      1.308597  
     229A      1.311071   230A      1.324071   231A      1.332828  
     232A      1.347355   233A      1.366737   234A      1.389055  
     235A      1.395196   236A      1.420968   237A      1.440997  
     238A      1.454844   239A      1.469933   240A      1.481517  
     241A      1.498676   242A      1.506453   243A      1.530765  
     244A      1.536486   245A      1.548791   246A      1.556855  
     247A      1.560543   248A      1.592323   249A      1.600790  
     250A      1.610942   251A      1.621776   252A      1.639755  
     253A      1.644609   254A      1.650388   255A      1.662721  
     256A      1.685535   257A      1.702521   258A      1.713057  
     259A      1.734552   260A      1.739473   261A      1.748904  
     262A      1.800294   263A      1.825399   264A      1.843916  
     265A      1.848953   266A      1.874697   267A      1.896084  
     268A      1.901689   269A      1.904483   270A      1.925163  
     271A      1.939718   272A      1.947908   273A      1.965895  
     274A      2.000971   275A      2.010561   276A      2.067550  
     277A      2.119360   278A      2.160622   279A      2.176276  
     280A      2.203921   281A      2.228773   282A      2.232543  
     283A      2.241083   284A      2.253224   285A      2.267821  
     286A      2.275667   287A      2.289283   288A      2.299901  
     289A      2.310109   290A      2.314857   291A      2.327249  
     292A      2.344386   293A      2.350318   294A      2.378585  
     295A      2.392132   296A      2.399087   297A      2.415535  
     298A      2.427724   299A      2.445215   300A      2.455985  
     301A      2.462549   302A      2.483971   303A      2.488398  
     304A      2.498165   305A      2.503246   306A      2.539417  
     307A      2.552249   308A      2.568736   309A      2.591686  
     310A      2.600509   311A      2.611234   312A      2.627032  
     313A      2.643335   314A      2.652761   315A      2.665111  
     316A      2.670875   317A      2.681661   318A      2.683753  
     319A      2.693094   320A      2.704474   321A      2.717190  
     322A      2.724740   323A      2.738640   324A      2.745871  
     325A      2.766572   326A      2.767419   327A      2.783609  
     328A      2.805553   329A      2.819066   330A      2.834660  
     331A      2.839888   332A      2.865840   333A      2.883646  
     334A      2.901069   335A      2.916447   336A      2.936886  
     337A      2.983375   338A      3.016286   339A      3.068158  
     340A      3.474731   341A      3.564061   342A      3.667940  
     343A      3.679932   344A      3.705744   345A      3.719100  
     346A      3.741528   347A      3.764551   348A      3.829851  
     349A      3.844806   350A      3.857588   351A      3.929199  
     352A      3.939565   353A      3.980312   354A      3.991786  
     355A      4.041661   356A      4.054946   357A      4.086707  
     358A      4.103594   359A      4.116888   360A      4.122542  
     361A      4.144847   362A      4.149936   363A      4.156792  
     364A      4.173695   365A      4.186255   366A      4.194255  
     367A      4.202859   368A      4.228683   369A      4.233427  
     370A      4.264517   371A      4.279644   372A      4.302554  
     373A      4.305448   374A      4.318114   375A      4.343041  
     376A      4.358947   377A      4.363908   378A      4.375290  
     379A      4.380157   380A      4.384661   381A      4.392501  
     382A      4.413763   383A      4.417634   384A      4.445961  
     385A      4.448192   386A      4.467949   387A      4.490630  
     388A      4.506204   389A      4.516034   390A      4.555488  
     391A      4.558419   392A      4.566161   393A      4.572178  
     394A      4.592696   395A      4.617315   396A      4.646515  
     397A      4.667699   398A      4.681952   399A      4.701741  
     400A      4.727383   401A      4.732667   402A      4.736348  
     403A      4.753498   404A      4.823011   405A      4.869299  
     406A      4.916509   407A      4.969943   408A      4.995347  
     409A      5.002395   410A      5.005400   411A      5.016816  
     412A      5.043126   413A      5.077337   414A      5.098478  
     415A      5.104113   416A      5.127249   417A      5.137531  
     418A      5.166128   419A      5.182070   420A      5.204184  
     421A      5.258584   422A      5.265879   423A      5.282277  
     424A      5.296344   425A      5.326083   426A      5.341595  
     427A      5.378437   428A      5.393632   429A      5.434167  
     430A      5.517868   431A      5.614482   432A      5.662801  
     433A      5.675244   434A      5.781315   435A      5.871026  
     436A      6.085326   437A      6.134376   438A      6.163258  
     439A      6.211563   440A      6.246655   441A      6.447123  
     442A      6.466063   443A      6.499150   444A      6.510682  
     445A      6.543555   446A      6.615264   447A      6.636343  
     448A      6.649766   449A      6.696258   450A      6.722989  
     451A      6.740247   452A      6.779586   453A      6.812221  
     454A      6.833098   455A      6.914837   456A      6.992040  
     457A      7.016236   458A      7.042010   459A      7.056874  
     460A      7.075173   461A      7.088569   462A      7.136346  
     463A      7.140704   464A      7.155288   465A      7.164811  
     466A      7.191847   467A      7.199743   468A      7.218975  
     469A      7.230057   470A      7.241198   471A      7.250657  
     472A      7.253002   473A      7.257201   474A      7.263916  
     475A      7.266374   476A      7.275301   477A      7.280706  
     478A      7.289596   479A      7.295923   480A      7.316476  
     481A      7.338444   482A      7.362885   483A      7.368725  
     484A      7.418469   485A      7.443630   486A      7.458216  
     487A      7.517631   488A      7.590220   489A      7.617882  
     490A      7.632239   491A      7.668195   492A      7.745029  
     493A      7.766154   494A      7.776040   495A      7.797245  
     496A      7.806785   497A      7.828981   498A      7.852598  
     499A      7.880126   500A      7.967222   501A      8.465234  
     502A      8.639408   503A      8.650215   504A      8.715542  
     505A      8.730531   506A     15.207299   507A     15.423057  
     508A     15.963948   509A     16.127373   510A     16.469975  

    Final Occupation by Irrep:
              A 
    DOCC [    30 ]
    NA   [    30 ]
    NB   [    30 ]

  @DF-RHF Final Energy:  -542.07867832451495

   => Energetics <=

    Nuclear Repulsion Energy =            307.0932407081854194
    One-Electron Energy =               -1356.5791212167132471
    Two-Electron Energy =                 507.4072021840127604
    Total Energy =                       -542.0786783245150673

Computation Completed


Properties will be evaluated at   0.000000,   0.000000,   0.000000 [a0]

Properties computed using the SCF density matrix


 Multipole Moments:

 ------------------------------------------------------------------------------------
     Multipole            Electronic (a.u.)      Nuclear  (a.u.)        Total (a.u.)
 ------------------------------------------------------------------------------------

 L = 1.  Multiply by 2.5417464519 to convert [e a0] to [Debye]
 Dipole X            :        -39.9570279           41.3930203            1.4359923
 Dipole Y            :        -32.8797297           33.6480212            0.7682915
 Dipole Z            :          5.8939603           -4.2358551            1.6581052
 Magnitude           :                                                    2.3241469

 ------------------------------------------------------------------------------------

*** tstop() called on moses-razer at Mon Jan  8 02:38:25 2024
Module time:
	user time   =      86.03 seconds =       1.43 minutes
	system time =       3.14 seconds =       0.05 minutes
	total time  =         16 seconds =       0.27 minutes
Total time:
	user time   =      86.03 seconds =       1.43 minutes
	system time =       3.14 seconds =       0.05 minutes
	total time  =         16 seconds =       0.27 minutes

  //>>>>>>>>>>>>>>>>>>>>>>>>>>>>>>>>>>>//
  //            Monomer A HF           //
  //<<<<<<<<<<<<<<<<<<<<<<<<<<<<<<<<<<<//

   => Libint2 <=

    Primary   basis highest AM E, G, H:  5, 4, 3
    Auxiliary basis highest AM E, G, H:  6, 5, 4
    Onebody   basis highest AM E, G, H:  6, 5, 4
    Solid Harmonics ordering:            gaussian

*** tstart() called on moses-razer
*** at Mon Jan  8 02:38:25 2024

   => Loading Basis Set <=

    Name: AUG-CC-PVTZ
    Role: ORBITAL
    Keyword: BASIS
    atoms 1                            entry NA         line   469 file /home/kchung25/anaconda3/envs/p415env/share/psi4/basis/aug-cc-pvtz.gbs 
    atoms 2, 5, 8, 11, 14              entry O          line   331 file /home/kchung25/anaconda3/envs/p415env/share/psi4/basis/aug-cc-pvtz.gbs 
    atoms 3-4, 6-7, 9-10, 12-13, 15-16 entry H          line    40 file /home/kchung25/anaconda3/envs/p415env/share/psi4/basis/aug-cc-pvtz.gbs 


         ---------------------------------------------------------
                                   SCF
               by Justin Turney, Rob Parrish, Andy Simmonett
                          and Daniel G. A. Smith
                              RHF Reference
                        6 Threads,  57220 MiB Core
         ---------------------------------------------------------

  ==> Geometry <==

    Molecular point group: c1
    Full point group: C1

    Geometry (in Angstrom), charge = 1, multiplicity = 1:

       Center              X                  Y                   Z               Mass       
    ------------   -----------------  -----------------  -----------------  -----------------
         NA           0.000000000000     0.000000000000     0.000000000000    22.989769282000
      Gh(O)          -0.326768000000     2.408225000000     0.061285000000    15.994914619570
      Gh(H)           0.544784000000     2.772753000000    -0.175390000000     1.007825032230
      Gh(H)          -0.732186000000     2.969370000000     0.737395000000     1.007825032230
      Gh(O)           0.756241000000     0.217993000000     2.191234000000    15.994914619570
      Gh(H)           0.298885000000    -0.587551000000     2.571149000000     1.007825032230
      Gh(H)           1.393189000000     0.622836000000     2.815605000000     1.007825032230
      Gh(O)           1.186850000000    -2.317272000000     0.164521000000    15.994914619570
      Gh(H)           1.872732000000    -2.329814000000     0.850027000000     1.007825032230
      Gh(H)           0.683306000000    -3.146135000000     0.325061000000     1.007825032230
      Gh(O)           1.885007000000     0.747789000000    -1.167856000000    15.994914619570
      Gh(H)           2.689228000000     0.780065000000    -0.668381000000     1.007825032230
      Gh(H)           2.068393000000     0.776155000000    -2.104132000000     1.007825032230
      Gh(O)          -1.476463000000     0.638790000000    -1.711258000000    15.994914619570
      Gh(H)          -0.833314000000     1.324452000000    -1.599428000000     1.007825032230
      Gh(H)          -2.279710000000     1.059435000000    -1.296832000000     1.007825032230

  Running in c1 symmetry.

  Rotational constants: A =      0.06168  B =      0.04283  C =      0.03847 [cm^-1]
  Rotational constants: A =   1849.12930  B =   1284.07305  C =   1153.32464 [MHz]
  Nuclear repulsion =    0.000000000000000

  Charge       = 1
  Multiplicity = 1
  Electrons    = 10
  Nalpha       = 5
  Nbeta        = 5

  ==> Algorithm <==

  SCF Algorithm Type is DF.
  DIIS enabled.
  MOM disabled.
  Fractional occupation disabled.
  Guess Type is SAD.
  Energy threshold   = 1.00e-08
  Density threshold  = 1.00e-08
  Integral threshold = 1.00e-12

  ==> Primary Basis <==

  Basis Set: AUG-CC-PVTZ
    Blend: AUG-CC-PVTZ
    Number of shells: 176
    Number of basis functions: 510
    Number of Cartesian functions: 584
    Spherical Harmonics?: true
    Max angular momentum: 3

   => Loading Basis Set <=

    Name: (AUG-CC-PVTZ AUX)
    Role: JKFIT
    Keyword: DF_BASIS_SCF
    atoms 1                            entry NA         line   498 file /home/kchung25/anaconda3/envs/p415env/share/psi4/basis/def2-universal-jkfit.gbs 
    atoms 2, 5, 8, 11, 14              entry O          line   286 file /home/kchung25/anaconda3/envs/p415env/share/psi4/basis/aug-cc-pvtz-jkfit.gbs 
    atoms 3-4, 6-7, 9-10, 12-13, 15-16 entry H          line    70 file /home/kchung25/anaconda3/envs/p415env/share/psi4/basis/aug-cc-pvtz-jkfit.gbs 

  ==> Integral Setup <==

  ==> DiskDFJK: Density-Fitted J/K Matrices <==

    J tasked:                  Yes
    K tasked:                  Yes
    wK tasked:                  No
    OpenMP threads:              6
    Integrals threads:           6
    Memory [MiB]:            42915
    Algorithm:                Core
    Integral Cache:           LOAD
    Schwarz Cutoff:          1E-12
    Fitting Condition:       1E-10

   => Auxiliary Basis Set <=

  Basis Set: (AUG-CC-PVTZ AUX)
    Blend: AUG-CC-PVTZ-JKFIT + DEF2-UNIVERSAL-JKFIT
    Number of shells: 324
    Number of basis functions: 1092
    Number of Cartesian functions: 1342
    Spherical Harmonics?: true
    Max angular momentum: 4

  Minimum eigenvalue in the overlap matrix is 1.4131345672E-05.
  Reciprocal condition number of the overlap matrix is 9.7274403942E-07.
    Using symmetric orthogonalization.

  ==> Pre-Iterations <==

  SCF Guess: Superposition of Atomic Densities via on-the-fly atomic UHF (no occupation information).

   -------------------------
    Irrep   Nso     Nmo    
   -------------------------
     A        510     510 
   -------------------------
    Total     510     510
   -------------------------

  ==> Iterations <==

                           Total Energy        Delta E     RMS |[F,P]|

   @DF-RHF iter SAD:  -161.74573957723669   -1.61746e+02   0.00000e+00 
   @DF-RHF iter   1:  -161.67607264800711    6.96669e-02   1.26683e-05 DIIS
   @DF-RHF iter   2:  -161.67609125171037   -1.86037e-05   2.31190e-06 DIIS
   @DF-RHF iter   3:  -161.67609175981906   -5.08109e-07   1.12036e-07 DIIS
   @DF-RHF iter   4:  -161.67609176070354   -8.84484e-10   1.66485e-08 DIIS
   @DF-RHF iter   5:  -161.67609176072096   -1.74225e-11   6.47276e-10 DIIS
  Energy and wave function converged.


  ==> Post-Iterations <==

    Orbital Energies [Eh]
    ---------------------

    Doubly Occupied:                                                      

       1A    -40.760405     2A     -3.073791     3A     -1.797154  
       4A     -1.797126     5A     -1.797123  

    Virtual:                                                              

       6A     -0.181805     7A     -0.109439     8A     -0.109432  
       9A     -0.109431    10A     -0.070086    11A     -0.052397  
      12A     -0.052152    13A     -0.051629    14A     -0.051571  
      15A     -0.051227    16A     -0.049329    17A     -0.049214  
      18A     -0.049184    19A     -0.027583    20A     -0.014187  
      21A     -0.012131    22A     -0.011271    23A     -0.010969  
      24A     -0.010087    25A     -0.006606    26A     -0.005505  
      27A     -0.003593    28A     -0.000395    29A      0.008604  
      30A      0.012650    31A      0.013549    32A      0.022803  
      33A      0.025929    34A      0.028309    35A      0.039302  
      36A      0.041628    37A      0.045653    38A      0.056393  
      39A      0.071255    40A      0.074153    41A      0.078690  
      42A      0.082456    43A      0.086039    44A      0.092401  
      45A      0.093007    46A      0.097811    47A      0.098605  
      48A      0.102457    49A      0.110693    50A      0.112663  
      51A      0.121913    52A      0.128988    53A      0.132657  
      54A      0.137303    55A      0.148825    56A      0.153170  
      57A      0.170826    58A      0.183238    59A      0.184795  
      60A      0.193419    61A      0.198039    62A      0.201092  
      63A      0.203355    64A      0.209481    65A      0.214668  
      66A      0.221014    67A      0.229368    68A      0.237988  
      69A      0.239685    70A      0.247960    71A      0.253211  
      72A      0.256693    73A      0.269603    74A      0.271671  
      75A      0.274844    76A      0.280149    77A      0.290033  
      78A      0.290370    79A      0.294788    80A      0.296551  
      81A      0.303259    82A      0.306804    83A      0.308318  
      84A      0.313357    85A      0.317578    86A      0.325303  
      87A      0.327405    88A      0.331974    89A      0.335807  
      90A      0.342905    91A      0.346256    92A      0.354943  
      93A      0.357333    94A      0.365671    95A      0.372347  
      96A      0.377570    97A      0.388130    98A      0.391575  
      99A      0.395012   100A      0.408004   101A      0.416395  
     102A      0.422099   103A      0.426669   104A      0.435059  
     105A      0.452596   106A      0.460253   107A      0.472677  
     108A      0.482284   109A      0.504962   110A      0.509910  
     111A      0.513348   112A      0.520969   113A      0.549432  
     114A      0.554988   115A      0.561501   116A      0.563235  
     117A      0.574761   118A      0.583613   119A      0.592950  
     120A      0.617166   121A      0.633002   122A      0.639272  
     123A      0.640647   124A      0.650558   125A      0.658331  
     126A      0.668292   127A      0.673303   128A      0.682056  
     129A      0.688942   130A      0.697894   131A      0.709914  
     132A      0.712735   133A      0.728567   134A      0.734833  
     135A      0.742722   136A      0.746508   137A      0.754478  
     138A      0.758587   139A      0.764359   140A      0.777601  
     141A      0.789176   142A      0.793783   143A      0.800505  
     144A      0.807251   145A      0.811799   146A      0.822330  
     147A      0.825507   148A      0.827455   149A      0.839494  
     150A      0.846366   151A      0.848418   152A      0.855249  
     153A      0.857664   154A      0.873333   155A      0.883473  
     156A      0.888036   157A      0.889920   158A      0.897583  
     159A      0.914588   160A      0.915088   161A      0.928353  
     162A      0.932326   163A      0.939877   164A      0.948583  
     165A      0.962591   166A      0.966879   167A      0.974955  
     168A      0.981015   169A      0.987550   170A      0.991006  
     171A      0.999729   172A      1.008739   173A      1.013384  
     174A      1.017990   175A      1.024225   176A      1.033315  
     177A      1.045622   178A      1.049969   179A      1.061318  
     180A      1.065071   181A      1.069651   182A      1.084268  
     183A      1.093540   184A      1.099806   185A      1.106432  
     186A      1.122166   187A      1.122513   188A      1.139421  
     189A      1.149726   190A      1.155034   191A      1.158972  
     192A      1.167350   193A      1.175966   194A      1.179620  
     195A      1.198085   196A      1.206567   197A      1.216223  
     198A      1.217517   199A      1.226197   200A      1.240344  
     201A      1.253195   202A      1.264704   203A      1.273306  
     204A      1.289033   205A      1.292710   206A      1.300300  
     207A      1.315912   208A      1.331479   209A      1.344501  
     210A      1.354034   211A      1.367007   212A      1.387115  
     213A      1.402276   214A      1.410887   215A      1.424226  
     216A      1.460775   217A      1.477309   218A      1.502708  
     219A      1.523220   220A      1.541028   221A      1.564671  
     222A      1.578424   223A      1.601299   224A      1.611909  
     225A      1.622879   226A      1.649151   227A      1.658030  
     228A      1.675676   229A      1.685100   230A      1.697237  
     231A      1.706912   232A      1.720049   233A      1.725449  
     234A      1.726265   235A      1.732705   236A      1.744136  
     237A      1.765166   238A      1.767978   239A      1.774120  
     240A      1.792119   241A      1.793910   242A      1.803801  
     243A      1.813378   244A      1.830996   245A      1.852372  
     246A      1.875563   247A      1.888710   248A      1.892610  
     249A      1.900901   250A      1.941134   251A      1.944758  
     252A      1.975281   253A      1.990568   254A      2.029168  
     255A      2.214087   256A      2.275949   257A      2.289992  
     258A      2.309870   259A      2.331388   260A      2.344982  
     261A      2.350529   262A      2.362650   263A      2.367674  
     264A      2.375234   265A      2.387577   266A      2.397157  
     267A      2.408650   268A      2.409808   269A      2.424293  
     270A      2.430240   271A      2.455955   272A      2.457978  
     273A      2.463894   274A      2.476955   275A      2.493438  
     276A      2.509639   277A      2.530891   278A      2.533833  
     279A      2.544995   280A      2.582012   281A      2.589024  
     282A      2.624891   283A      2.635687   284A      2.656779  
     285A      2.669819   286A      2.684057   287A      2.696712  
     288A      2.707893   289A      2.717753   290A      2.742504  
     291A      2.754480   292A      2.776263   293A      2.794707  
     294A      2.818168   295A      2.840035   296A      2.849250  
     297A      2.885743   298A      2.894393   299A      2.920566  
     300A      3.001085   301A      3.021795   302A      3.029319  
     303A      3.034393   304A      3.041624   305A      3.050551  
     306A      3.077691   307A      3.079645   308A      3.090478  
     309A      3.106745   310A      3.132832   311A      3.141010  
     312A      3.149031   313A      3.159760   314A      3.164942  
     315A      3.169765   316A      3.190846   317A      3.209526  
     318A      3.232200   319A      3.243898   320A      3.275567  
     321A      3.297153   322A      3.325477   323A      3.348969  
     324A      3.367286   325A      3.434210   326A      3.486911  
     327A      3.498291   328A      3.529037   329A      3.538810  
     330A      3.554090   331A      3.593915   332A      3.607228  
     333A      3.618167   334A      3.666744   335A      3.718001  
     336A      4.208201   337A      4.222721   338A      4.247275  
     339A      4.260741   340A      4.301345   341A      4.323870  
     342A      4.347671   343A      4.353774   344A      4.371803  
     345A      4.385237   346A      4.414401   347A      4.426075  
     348A      4.446930   349A      4.455593   350A      4.481480  
     351A      4.489089   352A      4.513272   353A      4.518664  
     354A      4.535482   355A      4.560948   356A      4.584691  
     357A      4.594292   358A      4.604499   359A      4.627927  
     360A      4.639432   361A      4.669638   362A      4.680962  
     363A      4.686530   364A      4.733744   365A      4.762979  
     366A      4.789786   367A      4.809083   368A      4.822119  
     369A      4.853333   370A      4.872863   371A      4.885906  
     372A      4.899551   373A      4.920432   374A      4.933961  
     375A      4.940781   376A      4.956978   377A      4.995366  
     378A      5.009908   379A      5.021592   380A      5.054297  
     381A      5.065796   382A      5.101259   383A      5.116496  
     384A      5.158405   385A      5.165155   386A      5.258147  
     387A      5.295241   388A      5.331954   389A      5.336016  
     390A      5.364133   391A      5.377283   392A      5.413833  
     393A      5.427130   394A      5.439937   395A      5.460191  
     396A      5.482922   397A      5.498113   398A      5.509618  
     399A      5.580846   400A      5.596295   401A      5.641789  
     402A      5.675994   403A      5.758494   404A      5.761317  
     405A      5.842148   406A      5.958260   407A      6.025689  
     408A      6.063501   409A      6.079336   410A      6.097721  
     411A      6.127048   412A      6.203565   413A      6.211006  
     414A      6.232534   415A      6.254170   416A      6.421186  
     417A      6.451292   418A      6.588060   419A      6.688781  
     420A      6.788794   421A      6.822003   422A      6.852539  
     423A      6.878443   424A      6.921980   425A      6.996129  
     426A      7.476408   427A      7.513511   428A      7.529583  
     429A      7.558457   430A      7.596752   431A      7.609845  
     432A      7.637859   433A      7.679373   434A      7.709667  
     435A      7.728393   436A      7.867005   437A      7.894020  
     438A      7.898353   439A      7.931207   440A      7.954756  
     441A      7.968801   442A      7.978626   443A      7.992931  
     444A      8.062120   445A      8.069477   446A      8.078400  
     447A      8.091456   448A      8.101014   449A      8.154261  
     450A      8.202638   451A      8.446414   452A      8.467953  
     453A      8.508150   454A      8.533656   455A      8.601280  
     456A      8.613602   457A      8.639966   458A      8.659222  
     459A      8.731608   460A      8.758933   461A      9.611209  
     462A      9.642865   463A      9.694937   464A      9.729148  
     465A      9.742066   466A      9.767841   467A      9.789997  
     468A      9.799568   469A      9.809640   470A      9.818194  
     471A      9.833552   472A      9.835174   473A      9.860791  
     474A      9.865716   475A      9.918232   476A      9.954964  
     477A      9.996596   478A     10.042435   479A     10.053669  
     480A     10.110435   481A     10.753597   482A     10.925496  
     483A     10.937200   484A     10.948404   485A     11.040001  
     486A     11.480022   487A     11.574776   488A     11.618192  
     489A     11.670632   490A     11.778722   491A     11.805634  
     492A     11.827991   493A     12.003692   494A     12.088965  
     495A     12.251547   496A     13.208435   497A     13.285263  
     498A     13.401527   499A     13.443930   500A     13.510575  
     501A     13.689609   502A     13.704338   503A     13.750061  
     504A     13.780927   505A     13.800665   506A     63.903181  
     507A     64.134832   508A     65.307269   509A     65.569935  
     510A     66.166312  

    Final Occupation by Irrep:
              A 
    DOCC [     5 ]
    NA   [     5 ]
    NB   [     5 ]

  @DF-RHF Final Energy:  -161.67609176072096

   => Energetics <=

    Nuclear Repulsion Energy =              0.0000000000000000
    One-Electron Energy =                -224.9009869456511126
    Two-Electron Energy =                  63.2248951849301477
    Total Energy =                       -161.6760917607209649

Computation Completed


Properties will be evaluated at   0.000000,   0.000000,   0.000000 [a0]

Properties computed using the SCF density matrix


 Multipole Moments:

 ------------------------------------------------------------------------------------
     Multipole            Electronic (a.u.)      Nuclear  (a.u.)        Total (a.u.)
 ------------------------------------------------------------------------------------

 L = 1.  Multiply by 2.5417464519 to convert [e a0] to [Debye]
 Dipole X            :          0.0000669            0.0000000            0.0000669
 Dipole Y            :          0.0000261            0.0000000            0.0000261
 Dipole Z            :          0.0000889            0.0000000            0.0000889
 Magnitude           :                                                    0.0001143

 ------------------------------------------------------------------------------------

*** tstop() called on moses-razer at Mon Jan  8 02:38:32 2024
Module time:
	user time   =      36.10 seconds =       0.60 minutes
	system time =       0.96 seconds =       0.02 minutes
	total time  =          7 seconds =       0.12 minutes
Total time:
	user time   =     122.15 seconds =       2.04 minutes
	system time =       4.10 seconds =       0.07 minutes
	total time  =         23 seconds =       0.38 minutes

  //>>>>>>>>>>>>>>>>>>>>>>>>>>>>>>>>>>>//
  //            Monomer B HF           //
  //<<<<<<<<<<<<<<<<<<<<<<<<<<<<<<<<<<<//

   => Libint2 <=

    Primary   basis highest AM E, G, H:  5, 4, 3
    Auxiliary basis highest AM E, G, H:  6, 5, 4
    Onebody   basis highest AM E, G, H:  6, 5, 4
    Solid Harmonics ordering:            gaussian

*** tstart() called on moses-razer
*** at Mon Jan  8 02:38:32 2024

   => Loading Basis Set <=

    Name: AUG-CC-PVTZ
    Role: ORBITAL
    Keyword: BASIS
    atoms 1                            entry NA         line   469 file /home/kchung25/anaconda3/envs/p415env/share/psi4/basis/aug-cc-pvtz.gbs 
    atoms 2, 5, 8, 11, 14              entry O          line   331 file /home/kchung25/anaconda3/envs/p415env/share/psi4/basis/aug-cc-pvtz.gbs 
    atoms 3-4, 6-7, 9-10, 12-13, 15-16 entry H          line    40 file /home/kchung25/anaconda3/envs/p415env/share/psi4/basis/aug-cc-pvtz.gbs 


         ---------------------------------------------------------
                                   SCF
               by Justin Turney, Rob Parrish, Andy Simmonett
                          and Daniel G. A. Smith
                              RHF Reference
                        6 Threads,  57220 MiB Core
         ---------------------------------------------------------

  ==> Geometry <==

    Molecular point group: c1
    Full point group: C1

    Geometry (in Angstrom), charge = 0, multiplicity = 1:

       Center              X                  Y                   Z               Mass       
    ------------   -----------------  -----------------  -----------------  -----------------
      Gh(NA)          0.000000000000     0.000000000000     0.000000000000    22.989769282000
         O           -0.326768000000     2.408225000000     0.061285000000    15.994914619570
         H            0.544784000000     2.772753000000    -0.175390000000     1.007825032230
         H           -0.732186000000     2.969370000000     0.737395000000     1.007825032230
         O            0.756241000000     0.217993000000     2.191234000000    15.994914619570
         H            0.298885000000    -0.587551000000     2.571149000000     1.007825032230
         H            1.393189000000     0.622836000000     2.815605000000     1.007825032230
         O            1.186850000000    -2.317272000000     0.164521000000    15.994914619570
         H            1.872732000000    -2.329814000000     0.850027000000     1.007825032230
         H            0.683306000000    -3.146135000000     0.325061000000     1.007825032230
         O            1.885007000000     0.747789000000    -1.167856000000    15.994914619570
         H            2.689228000000     0.780065000000    -0.668381000000     1.007825032230
         H            2.068393000000     0.776155000000    -2.104132000000     1.007825032230
         O           -1.476463000000     0.638790000000    -1.711258000000    15.994914619570
         H           -0.833314000000     1.324452000000    -1.599428000000     1.007825032230
         H           -2.279710000000     1.059435000000    -1.296832000000     1.007825032230

  Running in c1 symmetry.

  Rotational constants: A =      0.06168  B =      0.04283  C =      0.03847 [cm^-1]
  Rotational constants: A =   1849.12930  B =   1284.07305  C =   1153.32464 [MHz]
  Nuclear repulsion =  190.182036442897015

  Charge       = 0
  Multiplicity = 1
  Electrons    = 50
  Nalpha       = 25
  Nbeta        = 25

  ==> Algorithm <==

  SCF Algorithm Type is DF.
  DIIS enabled.
  MOM disabled.
  Fractional occupation disabled.
  Guess Type is SAD.
  Energy threshold   = 1.00e-08
  Density threshold  = 1.00e-08
  Integral threshold = 1.00e-12

  ==> Primary Basis <==

  Basis Set: AUG-CC-PVTZ
    Blend: AUG-CC-PVTZ
    Number of shells: 176
    Number of basis functions: 510
    Number of Cartesian functions: 584
    Spherical Harmonics?: true
    Max angular momentum: 3

   => Loading Basis Set <=

    Name: (AUG-CC-PVTZ AUX)
    Role: JKFIT
    Keyword: DF_BASIS_SCF
    atoms 1                            entry NA         line   498 file /home/kchung25/anaconda3/envs/p415env/share/psi4/basis/def2-universal-jkfit.gbs 
    atoms 2, 5, 8, 11, 14              entry O          line   286 file /home/kchung25/anaconda3/envs/p415env/share/psi4/basis/aug-cc-pvtz-jkfit.gbs 
    atoms 3-4, 6-7, 9-10, 12-13, 15-16 entry H          line    70 file /home/kchung25/anaconda3/envs/p415env/share/psi4/basis/aug-cc-pvtz-jkfit.gbs 

  ==> Integral Setup <==

  ==> DiskDFJK: Density-Fitted J/K Matrices <==

    J tasked:                  Yes
    K tasked:                  Yes
    wK tasked:                  No
    OpenMP threads:              6
    Integrals threads:           6
    Memory [MiB]:            42915
    Algorithm:                Core
    Integral Cache:           LOAD
    Schwarz Cutoff:          1E-12
    Fitting Condition:       1E-10

   => Auxiliary Basis Set <=

  Basis Set: (AUG-CC-PVTZ AUX)
    Blend: AUG-CC-PVTZ-JKFIT + DEF2-UNIVERSAL-JKFIT
    Number of shells: 324
    Number of basis functions: 1092
    Number of Cartesian functions: 1342
    Spherical Harmonics?: true
    Max angular momentum: 4

  Minimum eigenvalue in the overlap matrix is 1.4131345672E-05.
  Reciprocal condition number of the overlap matrix is 9.7274403942E-07.
    Using symmetric orthogonalization.

  ==> Pre-Iterations <==

  SCF Guess: Superposition of Atomic Densities via on-the-fly atomic UHF (no occupation information).

   -------------------------
    Irrep   Nso     Nmo    
   -------------------------
     A        510     510 
   -------------------------
    Total     510     510
   -------------------------

  ==> Iterations <==

                           Total Energy        Delta E     RMS |[F,P]|

   @DF-RHF iter SAD:  -377.43902955235365   -3.77439e+02   0.00000e+00 
   @DF-RHF iter   1:  -379.84466619971539   -2.40564e+00   2.05385e-03 DIIS/ADIIS
   @DF-RHF iter   2:  -380.10779043797652   -2.63124e-01   1.42719e-03 DIIS/ADIIS
   @DF-RHF iter   3:  -380.27477913519755   -1.66989e-01   1.00952e-04 DIIS/ADIIS
   @DF-RHF iter   4:  -380.27705776166061   -2.27863e-03   2.78294e-05 DIIS
   @DF-RHF iter   5:  -380.27721606243654   -1.58301e-04   1.02766e-05 DIIS
   @DF-RHF iter   6:  -380.27723617247779   -2.01100e-05   3.65963e-06 DIIS
   @DF-RHF iter   7:  -380.27723920742255   -3.03494e-06   7.66857e-07 DIIS
   @DF-RHF iter   8:  -380.27723944704286   -2.39620e-07   1.58628e-07 DIIS
   @DF-RHF iter   9:  -380.27723945557472   -8.53186e-09   4.86931e-08 DIIS
   @DF-RHF iter  10:  -380.27723945600258   -4.27860e-10   1.78032e-08 DIIS
   @DF-RHF iter  11:  -380.27723945605794   -5.53655e-11   4.72935e-09 DIIS
  Energy and wave function converged.


  ==> Post-Iterations <==

    Orbital Energies [Eh]
    ---------------------

    Doubly Occupied:                                                      

       1A    -20.553309     2A    -20.548195     3A    -20.548017  
       4A    -20.544078     5A    -20.507829     6A     -1.334667  
       7A     -1.327887     8A     -1.322036     9A     -1.316421  
      10A     -1.287732    11A     -0.714453    12A     -0.703659  
      13A     -0.699162    14A     -0.682958    15A     -0.646637  
      16A     -0.570480    17A     -0.559879    18A     -0.552732  
      19A     -0.544642    20A     -0.520355    21A     -0.496023  
      22A     -0.490415    23A     -0.485718    24A     -0.479933  
      25A     -0.448250  

    Virtual:                                                              

      26A      0.006018    27A      0.015436    28A      0.017379  
      29A      0.021307    30A      0.044039    31A      0.050256  
      32A      0.052429    33A      0.053897    34A      0.057044  
      35A      0.059126    36A      0.061782    37A      0.066934  
      38A      0.069849    39A      0.076860    40A      0.081076  
      41A      0.085790    42A      0.092557    43A      0.093986  
      44A      0.099468    45A      0.113231    46A      0.117296  
      47A      0.124567    48A      0.127307    49A      0.158542  
      50A      0.163877    51A      0.166343    52A      0.171207  
      53A      0.176961    54A      0.186732    55A      0.188215  
      56A      0.191942    57A      0.197865    58A      0.202654  
      59A      0.205574    60A      0.211846    61A      0.214119  
      62A      0.218264    63A      0.232608    64A      0.240796  
      65A      0.245984    66A      0.249325    67A      0.253744  
      68A      0.265186    69A      0.273958    70A      0.276653  
      71A      0.283537    72A      0.293471    73A      0.308847  
      74A      0.317557    75A      0.323204    76A      0.326853  
      77A      0.337656    78A      0.342096    79A      0.349745  
      80A      0.351255    81A      0.357059    82A      0.366755  
      83A      0.372624    84A      0.377255    85A      0.384272  
      86A      0.396587    87A      0.406920    88A      0.413206  
      89A      0.420231    90A      0.427200    91A      0.428151  
      92A      0.432733    93A      0.439103    94A      0.443476  
      95A      0.446602    96A      0.449824    97A      0.458854  
      98A      0.461155    99A      0.462933   100A      0.464572  
     101A      0.467299   102A      0.480753   103A      0.481936  
     104A      0.486260   105A      0.491234   106A      0.496898  
     107A      0.497862   108A      0.505015   109A      0.510394  
     110A      0.514290   111A      0.516128   112A      0.528262  
     113A      0.537126   114A      0.539208   115A      0.541907  
     116A      0.546748   117A      0.553742   118A      0.562258  
     119A      0.580490   120A      0.583374   121A      0.586288  
     122A      0.621809   123A      0.636046   124A      0.642651  
     125A      0.659607   126A      0.670612   127A      0.678570  
     128A      0.704215   129A      0.712557   130A      0.728181  
     131A      0.735803   132A      0.748383   133A      0.754520  
     134A      0.761168   135A      0.774453   136A      0.786213  
     137A      0.797836   138A      0.804436   139A      0.808230  
     140A      0.822196   141A      0.829199   142A      0.841679  
     143A      0.845278   144A      0.854189   145A      0.866496  
     146A      0.869213   147A      0.886465   148A      0.889451  
     149A      0.897115   150A      0.904710   151A      0.906320  
     152A      0.919315   153A      0.924639   154A      0.945553  
     155A      0.948298   156A      0.952231   157A      0.953600  
     158A      0.960389   159A      0.967769   160A      0.970887  
     161A      0.976738   162A      0.982786   163A      0.988702  
     164A      0.990873   165A      0.997521   166A      1.003521  
     167A      1.012010   168A      1.018598   169A      1.024684  
     170A      1.028087   171A      1.036722   172A      1.048054  
     173A      1.051579   174A      1.058684   175A      1.070682  
     176A      1.074980   177A      1.076025   178A      1.088805  
     179A      1.090904   180A      1.097687   181A      1.110170  
     182A      1.114331   183A      1.119281   184A      1.124132  
     185A      1.131672   186A      1.136263   187A      1.139973  
     188A      1.147320   189A      1.156761   190A      1.164824  
     191A      1.166564   192A      1.181553   193A      1.188457  
     194A      1.201369   195A      1.211810   196A      1.218723  
     197A      1.228400   198A      1.230761   199A      1.243694  
     200A      1.246268   201A      1.255976   202A      1.262331  
     203A      1.278547   204A      1.289125   205A      1.297406  
     206A      1.312321   207A      1.319351   208A      1.330866  
     209A      1.339239   210A      1.348189   211A      1.351429  
     212A      1.355512   213A      1.374884   214A      1.383835  
     215A      1.390899   216A      1.401985   217A      1.414402  
     218A      1.430640   219A      1.443558   220A      1.446187  
     221A      1.455361   222A      1.478438   223A      1.490770  
     224A      1.505600   225A      1.519887   226A      1.526017  
     227A      1.526216   228A      1.538164   229A      1.564066  
     230A      1.578744   231A      1.597411   232A      1.627946  
     233A      1.637431   234A      1.660032   235A      1.674826  
     236A      1.678040   237A      1.687115   238A      1.691093  
     239A      1.720875   240A      1.724104   241A      1.740498  
     242A      1.747123   243A      1.759418   244A      1.781850  
     245A      1.792029   246A      1.794981   247A      1.804444  
     248A      1.819561   249A      1.830337   250A      1.844193  
     251A      1.869931   252A      1.872037   253A      1.877807  
     254A      1.905663   255A      1.914758   256A      1.925226  
     257A      1.971251   258A      1.996861   259A      2.010561  
     260A      2.026738   261A      2.049712   262A      2.073334  
     263A      2.078790   264A      2.086550   265A      2.097561  
     266A      2.112816   267A      2.136217   268A      2.150278  
     269A      2.180850   270A      2.185433   271A      2.263420  
     272A      2.312777   273A      2.328758   274A      2.365288  
     275A      2.388740   276A      2.398916   277A      2.415115  
     278A      2.428324   279A      2.436125   280A      2.452085  
     281A      2.458565   282A      2.465752   283A      2.477446  
     284A      2.497658   285A      2.508130   286A      2.517974  
     287A      2.534945   288A      2.547858   289A      2.549298  
     290A      2.581290   291A      2.592138   292A      2.595735  
     293A      2.612450   294A      2.631724   295A      2.636172  
     296A      2.648306   297A      2.662317   298A      2.675541  
     299A      2.686463   300A      2.692727   301A      2.721703  
     302A      2.735335   303A      2.747606   304A      2.757542  
     305A      2.776785   306A      2.781211   307A      2.793912  
     308A      2.815115   309A      2.828030   310A      2.836929  
     311A      2.847721   312A      2.861537   313A      2.869146  
     314A      2.874435   315A      2.892648   316A      2.895689  
     317A      2.904989   318A      2.921098   319A      2.929165  
     320A      2.936058   321A      2.957025   322A      2.957638  
     323A      2.972942   324A      2.995190   325A      3.018991  
     326A      3.029659   327A      3.037037   328A      3.047958  
     329A      3.073063   330A      3.109183   331A      3.124156  
     332A      3.137160   333A      3.181068   334A      3.243658  
     335A      3.267534   336A      3.724845   337A      3.827218  
     338A      3.853282   339A      3.874279   340A      3.900410  
     341A      3.918211   342A      3.945894   343A      4.002520  
     344A      4.018369   345A      4.037499   346A      4.098489  
     347A      4.113261   348A      4.147078   349A      4.163872  
     350A      4.223105   351A      4.228661   352A      4.254957  
     353A      4.268656   354A      4.286629   355A      4.298088  
     356A      4.316559   357A      4.324664   358A      4.339274  
     359A      4.349120   360A      4.358067   361A      4.371600  
     362A      4.383212   363A      4.401831   364A      4.415573  
     365A      4.425415   366A      4.444593   367A      4.466302  
     368A      4.477541   369A      4.484749   370A      4.520779  
     371A      4.534440   372A      4.543468   373A      4.546984  
     374A      4.557216   375A      4.558375   376A      4.563530  
     377A      4.591734   378A      4.596178   379A      4.611319  
     380A      4.621509   381A      4.632289   382A      4.658564  
     383A      4.672452   384A      4.686268   385A      4.708610  
     386A      4.733781   387A      4.740137   388A      4.742863  
     389A      4.771875   390A      4.789765   391A      4.821278  
     392A      4.829662   393A      4.851253   394A      4.868578  
     395A      4.893523   396A      4.901685   397A      4.915007  
     398A      4.926851   399A      4.951045   400A      5.045436  
     401A      5.095233   402A      5.146866   403A      5.171406  
     404A      5.174497   405A      5.178656   406A      5.191863  
     407A      5.216968   408A      5.253330   409A      5.278220  
     410A      5.285637   411A      5.301032   412A      5.318444  
     413A      5.343734   414A      5.355689   415A      5.388988  
     416A      5.432763   417A      5.447347   418A      5.464857  
     419A      5.484796   420A      5.497788   421A      5.516287  
     422A      5.545965   423A      5.572753   424A      5.614580  
     425A      5.695040   426A      5.785751   427A      5.852479  
     428A      5.860875   429A      5.959433   430A      6.036448  
     431A      6.220153   432A      6.276336   433A      6.292353  
     434A      6.344765   435A      6.424664   436A      6.485450  
     437A      6.629208   438A      6.656069   439A      6.678451  
     440A      6.689061   441A      6.718524   442A      6.805088  
     443A      6.815965   444A      6.830200   445A      6.890962  
     446A      6.905763   447A      6.932040   448A      6.963429  
     449A      6.996349   450A      7.018937   451A      7.090174  
     452A      7.174604   453A      7.191238   454A      7.197217  
     455A      7.227995   456A      7.262877   457A      7.275434  
     458A      7.276945   459A      7.285157   460A      7.318606  
     461A      7.336698   462A      7.343287   463A      7.353237  
     464A      7.372090   465A      7.393004   466A      7.402007  
     467A      7.409169   468A      7.417617   469A      7.435773  
     470A      7.442868   471A      7.445286   472A      7.452190  
     473A      7.457515   474A      7.475142   475A      7.479848  
     476A      7.488676   477A      7.510822   478A      7.535503  
     479A      7.541219   480A      7.560843   481A      7.582037  
     482A      7.636963   483A      7.685735   484A      7.712685  
     485A      7.730191   486A      7.777129   487A      7.807752  
     488A      7.826621   489A      7.866403   490A      7.921287  
     491A      7.968635   492A      7.972375   493A      7.993585  
     494A      7.998546   495A      8.019062   496A      8.034695  
     497A      8.076940   498A      8.156274   499A      8.310148  
     500A      8.652435   501A      8.820265   502A      8.824858  
     503A      8.905706   504A      8.948584   505A     15.395313  
     506A     15.596777   507A     16.147241   508A     16.348707  
     509A     16.656710   510A     65.090035  

    Final Occupation by Irrep:
              A 
    DOCC [    25 ]
    NA   [    25 ]
    NB   [    25 ]

  @DF-RHF Final Energy:  -380.27723945605794

   => Energetics <=

    Nuclear Repulsion Energy =            190.1820364428970151
    One-Electron Energy =                -905.1476137601339360
    Two-Electron Energy =                 334.6883378611789794
    Total Energy =                       -380.2772394560579414

Computation Completed


Properties will be evaluated at   0.000000,   0.000000,   0.000000 [a0]

Properties computed using the SCF density matrix


 Multipole Moments:

 ------------------------------------------------------------------------------------
     Multipole            Electronic (a.u.)      Nuclear  (a.u.)        Total (a.u.)
 ------------------------------------------------------------------------------------

 L = 1.  Multiply by 2.5417464519 to convert [e a0] to [Debye]
 Dipole X            :        -40.1897411           41.3930203            1.2032791
 Dipole Y            :        -33.1116511           33.6480212            0.5363701
 Dipole Z            :          5.8656567           -4.2358551            1.6298016
 Magnitude           :                                                    2.0956686

 ------------------------------------------------------------------------------------

*** tstop() called on moses-razer at Mon Jan  8 02:38:45 2024
Module time:
	user time   =      74.00 seconds =       1.23 minutes
	system time =       1.22 seconds =       0.02 minutes
	total time  =         13 seconds =       0.22 minutes
Total time:
	user time   =     196.18 seconds =       3.27 minutes
	system time =       5.32 seconds =       0.09 minutes
	total time  =         36 seconds =       0.60 minutes
  Constructing Basis Sets for SAPT...

   => Loading Basis Set <=

    Name: (AUG-CC-PVTZ AUX)
    Role: RIFIT
    Keyword: DF_BASIS_SAPT
    atoms 1                            entry NA         line   610 file /home/kchung25/anaconda3/envs/p415env/share/psi4/basis/def2-qzvpp-ri.gbs 
    atoms 2, 5, 8, 11, 14              entry O          line   264 file /home/kchung25/anaconda3/envs/p415env/share/psi4/basis/aug-cc-pvtz-ri.gbs 
    atoms 3-4, 6-7, 9-10, 12-13, 15-16 entry H          line    30 file /home/kchung25/anaconda3/envs/p415env/share/psi4/basis/aug-cc-pvtz-ri.gbs 

   => Loading Basis Set <=

    Name: (AUG-CC-PVTZ AUX)
    Role: JKFIT
    Keyword: DF_BASIS_ELST
    atoms 1                            entry NA         line   498 file /home/kchung25/anaconda3/envs/p415env/share/psi4/basis/def2-universal-jkfit.gbs 
    atoms 2, 5, 8, 11, 14              entry O          line   286 file /home/kchung25/anaconda3/envs/p415env/share/psi4/basis/aug-cc-pvtz-jkfit.gbs 
    atoms 3-4, 6-7, 9-10, 12-13, 15-16 entry H          line    70 file /home/kchung25/anaconda3/envs/p415env/share/psi4/basis/aug-cc-pvtz-jkfit.gbs 


  //>>>>>>>>>>>>>>>>>>>>>>>>>>>>>>>>>>>//
  //               SAPT2+              //
  //<<<<<<<<<<<<<<<<<<<<<<<<<<<<<<<<<<<//


*** tstart() called on moses-razer
*** at Mon Jan  8 02:38:46 2024

        SAPT2+  
    Ed Hohenstein
     6 June 2009

      Orbital Information
  --------------------------
    NSO        =       510
    NMO        =       510
    NRI        =      1156
    NOCC A     =         5
    NOCC B     =        25
    FOCC A     =         0
    FOCC B     =         0
    NVIR A     =       505
    NVIR B     =       485

    Estimated memory usage: 6183.8 MB

    Natural Orbital Cutoff:   1.000E-06
    Disp(T3) Truncation:            Yes
    CCD (vv|vv) Truncation:         Yes
    MBPT T2 Truncation:             Yes

    Monomer A: 488 virtual orbitals dropped
    Monomer B: 77 virtual orbitals dropped

    Elst10,r            =    -0.122284146630 [Eh]
    Exch10 (S^2)        =     0.029393393254 [Eh]
    Exch10              =     0.029431187397 [Eh]
    Ind20,r (A<-B)      =    -0.000140124453 [Eh]
    Ind20,r (B<-A)      =    -0.060898421656 [Eh]
    Ind20,r             =    -0.061038546109 [Eh]
    Exch-Ind20,r (A<-B) =     0.000107237568 [Eh]
    Exch-Ind20,r (B<-A) =     0.026547415384 [Eh]
    Exch-Ind20,r        =     0.026654652952 [Eh]
    Disp20              =    -0.002984213411 [Eh]
    Disp20 (NO)         =    -0.002601339389 [Eh]
    Exch-Disp20         =     0.000507483799 [Eh]
    Elst12,r            =     0.006509594510 [Eh]
    Exch11              =    -0.000643421794 [Eh]
    Exch12              =     0.004504133308 [Eh]
    Ind22               =    -0.009571026151 [Eh]
    Disp21              =    -0.000076660183 [Eh]
    Disp22 (SDQ)        =    -0.000194601905 [Eh]

    (i =   1 of  25)          0 seconds
    (i =   2 of  25)          0 seconds
    (i =   3 of  25)          0 seconds
    (i =   4 of  25)          0 seconds
    (i =   5 of  25)          1 seconds
    (i =   6 of  25)          1 seconds
    (i =   7 of  25)          1 seconds
    (i =   8 of  25)          1 seconds
    (i =   9 of  25)          1 seconds
    (i =  10 of  25)          1 seconds
    (i =  11 of  25)          1 seconds
    (i =  12 of  25)          1 seconds
    (i =  13 of  25)          1 seconds
    (i =  14 of  25)          1 seconds
    (i =  15 of  25)          1 seconds
    (i =  16 of  25)          1 seconds
    (i =  17 of  25)          1 seconds
    (i =  18 of  25)          2 seconds
    (i =  19 of  25)          2 seconds
    (i =  20 of  25)          2 seconds
    (i =  21 of  25)          2 seconds
    (i =  22 of  25)          2 seconds
    (i =  23 of  25)          2 seconds
    (i =  24 of  25)          2 seconds
    (i =  25 of  25)          2 seconds

    Disp220 (T)         =    -0.000089562354 [Eh]

    (i =   1 of   5)         49 seconds
    (i =   2 of   5)         99 seconds
    (i =   3 of   5)        148 seconds
    (i =   4 of   5)        197 seconds
    (i =   5 of   5)        246 seconds

    Disp202 (T)         =    -0.000169202650 [Eh]

    Disp22 (T)          =    -0.000258765005 [Eh]

    Est. Disp220 (T)    =    -0.000102744448 [Eh]
    Est. Disp202 (T)    =    -0.000194106475 [Eh]

    Est. Disp22 (T)     =    -0.000296850922 [Eh]

    SAPT Results 
  --------------------------------------------------------------------------------------------------------
    Electrostatics               -115.77455212 [mEh]     -72.64962828 [kcal/mol]    -303.96604472 [kJ/mol]
      Elst10,r                   -122.28414663 [mEh]     -76.73446050 [kcal/mol]    -321.05698275 [kJ/mol]
      Elst12,r                      6.50959451 [mEh]       4.08483223 [kcal/mol]      17.09093803 [kJ/mol]

    Exchange                       33.29189891 [mEh]      20.89098197 [kcal/mol]      87.40786855 [kJ/mol]
      Exch10                       29.43118740 [mEh]      18.46834892 [kcal/mol]      77.27157187 [kJ/mol]
      Exch10(S^2)                  29.39339325 [mEh]      18.44463273 [kcal/mol]      77.17234336 [kJ/mol]
      Exch11(S^2)                  -0.64342179 [mEh]      -0.40375327 [kcal/mol]      -1.68930369 [kJ/mol]
      Exch12(S^2)                   4.50413331 [mEh]       2.82638632 [kcal/mol]      11.82560037 [kJ/mol]

    Induction                     -37.88564554 [mEh]     -23.77360150 [kcal/mol]     -99.46874866 [kJ/mol]
      Ind20,r                     -61.03854611 [mEh]     -38.30226595 [kcal/mol]    -160.25668073 [kJ/mol]
      Ind22                        -9.57102615 [mEh]      -6.00590958 [kcal/mol]     -25.12872570 [kJ/mol]
      Exch-Ind20,r                 26.65465295 [mEh]      16.72604725 [kcal/mol]      69.98178168 [kJ/mol]
      Exch-Ind22                    4.17952911 [mEh]       2.62269411 [kcal/mol]      10.97335217 [kJ/mol]
      delta HF,r (2)                1.88974465 [mEh]       1.18583267 [kcal/mol]       4.96152391 [kJ/mol]

    Dispersion                     -3.04484262 [mEh]      -1.91066759 [kcal/mol]      -7.99423320 [kJ/mol]
      Disp20                       -2.98421341 [mEh]      -1.87262219 [kcal/mol]      -7.83505123 [kJ/mol]
      Disp21                       -0.07666018 [mEh]      -0.04810499 [kcal/mol]      -0.20127128 [kJ/mol]
      Disp22 (SDQ)                 -0.19460190 [mEh]      -0.12211454 [kcal/mol]      -0.51092723 [kJ/mol]
      Disp22 (T)                   -0.25876500 [mEh]      -0.16237749 [kcal/mol]      -0.67938743 [kJ/mol]
      Est. Disp22 (T)              -0.29685092 [mEh]      -0.18627677 [kcal/mol]      -0.77938199 [kJ/mol]
      Exch-Disp20                   0.50748380 [mEh]       0.31845089 [kcal/mol]       1.33239853 [kJ/mol]

  Total HF                       -125.34710774 [mEh]     -78.65649761 [kcal/mol]    -329.09878602 [kJ/mol]
  Total SAPT0                    -127.82383735 [mEh]     -80.21066891 [kcal/mol]    -335.60143872 [kJ/mol]
  Total SAPT2                    -122.84502836 [mEh]     -77.08641910 [kcal/mol]    -322.52957753 [kJ/mol]
  Total SAPT2+                   -123.41314137 [mEh]     -77.44291540 [kcal/mol]    -324.02115804 [kJ/mol]

  Special recipe for scaled SAPT0 (see Manual):
    Electrostatics sSAPT0        -122.28414663 [mEh]     -76.73446050 [kcal/mol]    -321.05698275 [kJ/mol]
    Exchange sSAPT0                29.43118740 [mEh]      18.46834892 [kcal/mol]      77.27157187 [kJ/mol]
    Induction sSAPT0              -32.39119826 [mEh]     -20.32578378 [kcal/mol]     -85.04307933 [kJ/mol]
    Dispersion sSAPT0              -2.47476952 [mEh]      -1.55294132 [kcal/mol]      -6.49750648 [kJ/mol]
  Total sSAPT0                   -127.71892702 [mEh]     -80.14483668 [kcal/mol]    -335.32599669 [kJ/mol]
  --------------------------------------------------------------------------------------------------------

*** tstop() called on moses-razer at Mon Jan  8 02:57:03 2024
Module time:
	user time   =    5883.89 seconds =      98.06 minutes
	system time =      66.95 seconds =       1.12 minutes
	total time  =       1097 seconds =      18.28 minutes
Total time:
	user time   =    6080.91 seconds =     101.35 minutes
	system time =      72.28 seconds =       1.20 minutes
	total time  =       1134 seconds =      18.90 minutes

    Psi4 stopped on: Monday, 08 January 2024 02:57AM
    Psi4 wall time for execution: 0:18:54.47

*** Psi4 exiting successfully. Buy a developer a beer!
