
    -----------------------------------------------------------------------
          Psi4: An Open-Source Ab Initio Electronic Structure Package
                               Psi4 1.9 release

                         Git: Rev {} zzzzzzz 


    D. G. A. Smith, L. A. Burns, A. C. Simmonett, R. M. Parrish,
    M. C. Schieber, R. Galvelis, P. Kraus, H. Kruse, R. Di Remigio,
    A. Alenaizan, A. M. James, S. Lehtola, J. P. Misiewicz, M. Scheurer,
    R. A. Shaw, J. B. Schriber, Y. Xie, Z. L. Glick, D. A. Sirianni,
    J. S. O'Brien, J. M. Waldrop, A. Kumar, E. G. Hohenstein,
    B. P. Pritchard, B. R. Brooks, H. F. Schaefer III, A. Yu. Sokolov,
    K. Patkowski, A. E. DePrince III, U. Bozkaya, R. A. King,
    F. A. Evangelista, J. M. Turney, T. D. Crawford, C. D. Sherrill,
    J. Chem. Phys. 152(18) 184108 (2020). https://doi.org/10.1063/5.0006002

                            Additional Code Authors
    E. T. Seidl, C. L. Janssen, E. F. Valeev, M. L. Leininger,
    J. F. Gonthier, R. M. Richard, H. R. McAlexander, M. Saitow, X. Wang,
    P. Verma, M. H. Lechner, A. Jiang, S. Behnle, A. G. Heide,
    M. F. Herbst, and D. L. Poole

             Previous Authors, Complete List of Code Contributors,
                       and Citations for Specific Modules
    https://github.com/psi4/psi4/blob/master/codemeta.json
    https://github.com/psi4/psi4/graphs/contributors
    http://psicode.org/psi4manual/master/introduction.html#citing-psifour

    -----------------------------------------------------------------------


    Psi4 started on: Sunday, 07 January 2024 02:10PM

    Process ID: 584095
    Host:       moses-razer
    PSIDATADIR: /home/kchung25/anaconda3/envs/psi4_19/share/psi4
    Memory:     500.0 MiB
    Threads:    6
    
  ==> Input File <==

--------------------------------------------------------------------------
MEMORY 60 GB

molecule dimer {
1 1
Na     0.000000     0.000000     0.000000
--
0 1
O     -0.033562     0.651864    -2.283036
H      0.894796     0.893756    -2.460802
H     -0.574548     1.432965    -2.476385
O      2.159584    -0.736393     0.244526
H      2.484224    -0.797737    -0.668585
H      2.769476    -0.050577     0.618321
O      1.010079     1.997128     0.381980
H      1.335088     1.941477     1.298553
H      1.836526     2.246424    -0.124748
O     -0.693443    -2.201180    -0.087038
H     -1.384165    -2.200407     0.626177
H     -1.159158    -2.555826    -0.870984
O     -0.562174    -0.147253     2.221974
H      0.059516    -0.569628     2.892423
H     -0.988942     0.664075     2.631446
O     -2.540820     0.600282    -0.110639
H     -2.964940    -0.234719     0.142310
H     -2.996517     1.319936     0.377222

units ang
no_reorient
no_com
symmetry c1
}

set {
basis        aug-cc-pVTZ
scf_type     df
}

energy("sapt2+")
--------------------------------------------------------------------------

  Memory set to  55.879 GiB by Python driver.

Scratch directory: /scratch/
   => Loading Basis Set <=

    Name: AUG-CC-PVTZ
    Role: ORBITAL
    Keyword: BASIS
    atoms 1                                   entry NA         line   469 file /home/kchung25/anaconda3/envs/p415env/share/psi4/basis/aug-cc-pvtz.gbs 
    atoms 2, 5, 8, 11, 14, 17                 entry O          line   331 file /home/kchung25/anaconda3/envs/p415env/share/psi4/basis/aug-cc-pvtz.gbs 
    atoms 3-4, 6-7, 9-10, 12-13, 15-16, 18-19 entry H          line    40 file /home/kchung25/anaconda3/envs/p415env/share/psi4/basis/aug-cc-pvtz.gbs 

   => Loading Basis Set <=

    Name: AUG-CC-PVTZ
    Role: ORBITAL
    Keyword: BASIS
    atoms 1                                   entry NA         line   469 file /home/kchung25/anaconda3/envs/p415env/share/psi4/basis/aug-cc-pvtz.gbs 
    atoms 2, 5, 8, 11, 14, 17                 entry O          line   331 file /home/kchung25/anaconda3/envs/p415env/share/psi4/basis/aug-cc-pvtz.gbs 
    atoms 3-4, 6-7, 9-10, 12-13, 15-16, 18-19 entry H          line    40 file /home/kchung25/anaconda3/envs/p415env/share/psi4/basis/aug-cc-pvtz.gbs 


  //>>>>>>>>>>>>>>>>>>>>>>>>>>>>>>>>>>>//
  //              Dimer HF             //
  //<<<<<<<<<<<<<<<<<<<<<<<<<<<<<<<<<<<//

   => Libint2 <=

    Primary   basis highest AM E, G, H:  5, 4, 3
    Auxiliary basis highest AM E, G, H:  6, 5, 4
    Onebody   basis highest AM E, G, H:  6, 5, 4
    Solid Harmonics ordering:            gaussian

*** tstart() called on moses-razer
*** at Sun Jan  7 14:10:37 2024

   => Loading Basis Set <=

    Name: AUG-CC-PVTZ
    Role: ORBITAL
    Keyword: BASIS
    atoms 1                                   entry NA         line   469 file /home/kchung25/anaconda3/envs/p415env/share/psi4/basis/aug-cc-pvtz.gbs 
    atoms 2, 5, 8, 11, 14, 17                 entry O          line   331 file /home/kchung25/anaconda3/envs/p415env/share/psi4/basis/aug-cc-pvtz.gbs 
    atoms 3-4, 6-7, 9-10, 12-13, 15-16, 18-19 entry H          line    40 file /home/kchung25/anaconda3/envs/p415env/share/psi4/basis/aug-cc-pvtz.gbs 


         ---------------------------------------------------------
                                   SCF
               by Justin Turney, Rob Parrish, Andy Simmonett
                          and Daniel G. A. Smith
                              RHF Reference
                        6 Threads,  57220 MiB Core
         ---------------------------------------------------------

  ==> Geometry <==

    Molecular point group: c1
    Full point group: C1

    Geometry (in Angstrom), charge = 1, multiplicity = 1:

       Center              X                  Y                   Z               Mass       
    ------------   -----------------  -----------------  -----------------  -----------------
         NA           0.000000000000     0.000000000000     0.000000000000    22.989769282000
         O           -0.033562000000     0.651864000000    -2.283036000000    15.994914619570
         H            0.894796000000     0.893756000000    -2.460802000000     1.007825032230
         H           -0.574548000000     1.432965000000    -2.476385000000     1.007825032230
         O            2.159584000000    -0.736393000000     0.244526000000    15.994914619570
         H            2.484224000000    -0.797737000000    -0.668585000000     1.007825032230
         H            2.769476000000    -0.050577000000     0.618321000000     1.007825032230
         O            1.010079000000     1.997128000000     0.381980000000    15.994914619570
         H            1.335088000000     1.941477000000     1.298553000000     1.007825032230
         H            1.836526000000     2.246424000000    -0.124748000000     1.007825032230
         O           -0.693443000000    -2.201180000000    -0.087038000000    15.994914619570
         H           -1.384165000000    -2.200407000000     0.626177000000     1.007825032230
         H           -1.159158000000    -2.555826000000    -0.870984000000     1.007825032230
         O           -0.562174000000    -0.147253000000     2.221974000000    15.994914619570
         H            0.059516000000    -0.569628000000     2.892423000000     1.007825032230
         H           -0.988942000000     0.664075000000     2.631446000000     1.007825032230
         O           -2.540820000000     0.600282000000    -0.110639000000    15.994914619570
         H           -2.964940000000    -0.234719000000     0.142310000000     1.007825032230
         H           -2.996517000000     1.319936000000     0.377222000000     1.007825032230

  Running in c1 symmetry.

  Rotational constants: A =      0.04404  B =      0.03960  C =      0.03633 [cm^-1]
  Rotational constants: A =   1320.19285  B =   1187.10381  C =   1089.26704 [MHz]
  Nuclear repulsion =  414.507022870069534

  Charge       = 1
  Multiplicity = 1
  Electrons    = 70
  Nalpha       = 35
  Nbeta        = 35

  ==> Algorithm <==

  SCF Algorithm Type is DF.
  DIIS enabled.
  MOM disabled.
  Fractional occupation disabled.
  Guess Type is SAD.
  Energy threshold   = 1.00e-08
  Density threshold  = 1.00e-08
  Integral threshold = 1.00e-12

  ==> Primary Basis <==

  Basis Set: AUG-CC-PVTZ
    Blend: AUG-CC-PVTZ
    Number of shells: 208
    Number of basis functions: 602
    Number of Cartesian functions: 689
    Spherical Harmonics?: true
    Max angular momentum: 3

   => Loading Basis Set <=

    Name: (AUG-CC-PVTZ AUX)
    Role: JKFIT
    Keyword: DF_BASIS_SCF
    atoms 1                                   entry NA         line   498 file /home/kchung25/anaconda3/envs/p415env/share/psi4/basis/def2-universal-jkfit.gbs 
    atoms 2, 5, 8, 11, 14, 17                 entry O          line   286 file /home/kchung25/anaconda3/envs/p415env/share/psi4/basis/aug-cc-pvtz-jkfit.gbs 
    atoms 3-4, 6-7, 9-10, 12-13, 15-16, 18-19 entry H          line    70 file /home/kchung25/anaconda3/envs/p415env/share/psi4/basis/aug-cc-pvtz-jkfit.gbs 

  ==> Integral Setup <==

  ==> DiskDFJK: Density-Fitted J/K Matrices <==

    J tasked:                  Yes
    K tasked:                  Yes
    wK tasked:                  No
    OpenMP threads:              6
    Integrals threads:           6
    Memory [MiB]:            42915
    Algorithm:                Core
    Integral Cache:           SAVE
    Schwarz Cutoff:          1E-12
    Fitting Condition:       1E-10

   => Auxiliary Basis Set <=

  Basis Set: (AUG-CC-PVTZ AUX)
    Blend: AUG-CC-PVTZ-JKFIT + DEF2-UNIVERSAL-JKFIT
    Number of shells: 382
    Number of basis functions: 1288
    Number of Cartesian functions: 1583
    Spherical Harmonics?: true
    Max angular momentum: 4

  Minimum eigenvalue in the overlap matrix is 1.7503689844E-05.
  Reciprocal condition number of the overlap matrix is 1.1006617223E-06.
    Using symmetric orthogonalization.

  ==> Pre-Iterations <==

  SCF Guess: Superposition of Atomic Densities via on-the-fly atomic UHF (no occupation information).

   -------------------------
    Irrep   Nso     Nmo    
   -------------------------
     A        602     602 
   -------------------------
    Total     602     602
   -------------------------

  ==> Iterations <==

                           Total Energy        Delta E     RMS |[F,P]|

   @DF-RHF iter SAD:  -614.94624671602503   -6.14946e+02   0.00000e+00 
   @DF-RHF iter   1:  -617.60361126600139   -2.65736e+00   1.93512e-03 DIIS/ADIIS
   @DF-RHF iter   2:  -617.93786936504864   -3.34258e-01   1.31802e-03 DIIS/ADIIS
   @DF-RHF iter   3:  -618.13614213754147   -1.98273e-01   9.65159e-05 DIIS
   @DF-RHF iter   4:  -618.13895090467918   -2.80877e-03   2.50870e-05 DIIS
   @DF-RHF iter   5:  -618.13914762000422   -1.96715e-04   6.93275e-06 DIIS
   @DF-RHF iter   6:  -618.13916529133871   -1.76713e-05   3.00888e-06 DIIS
   @DF-RHF iter   7:  -618.13916720719567   -1.91586e-06   6.72142e-07 DIIS
   @DF-RHF iter   8:  -618.13916739444653   -1.87251e-07   1.21658e-07 DIIS
   @DF-RHF iter   9:  -618.13916740046454   -6.01801e-09   2.98817e-08 DIIS
   @DF-RHF iter  10:  -618.13916740072898   -2.64436e-10   1.17821e-08 DIIS
   @DF-RHF iter  11:  -618.13916740075683   -2.78533e-11   3.47931e-09 DIIS
  Energy and wave function converged.


  ==> Post-Iterations <==

    Orbital Energies [Eh]
    ---------------------

    Doubly Occupied:                                                      

       1A    -40.515799     2A    -20.734166     3A    -20.730046  
       4A    -20.724001     5A    -20.710459     6A    -20.707564  
       7A    -20.707531     8A     -2.842008     9A     -1.569523  
      10A     -1.568371    11A     -1.567272    12A     -1.507410  
      13A     -1.498866    14A     -1.490070    15A     -1.487862  
      16A     -1.482851    17A     -1.478799    18A     -0.865727  
      19A     -0.861049    20A     -0.858002    21A     -0.853790  
      22A     -0.853427    23A     -0.840470    24A     -0.759701  
      25A     -0.749370    26A     -0.738915    27A     -0.730323  
      28A     -0.722726    29A     -0.719249    30A     -0.694677  
      31A     -0.669840    32A     -0.657436    33A     -0.656085  
      34A     -0.653877    35A     -0.647630  

    Virtual:                                                              

      36A     -0.096251    37A     -0.077901    38A     -0.069730  
      39A     -0.063031    40A     -0.048251    41A     -0.044926  
      42A     -0.042696    43A     -0.041127    44A     -0.036801  
      45A     -0.032508    46A     -0.029409    47A     -0.025744  
      48A     -0.019924    49A     -0.016774    50A     -0.014564  
      51A     -0.010780    52A     -0.009536    53A     -0.004333  
      54A      0.003914    55A      0.006673    56A      0.014870  
      57A      0.018653    58A      0.021586    59A      0.025149  
      60A      0.027028    61A      0.044373    62A      0.046976  
      63A      0.052346    64A      0.058613    65A      0.065398  
      66A      0.065736    67A      0.072708    68A      0.080756  
      69A      0.085144    70A      0.090369    71A      0.091798  
      72A      0.094190    73A      0.099634    74A      0.102207  
      75A      0.104089    76A      0.110167    77A      0.114599  
      78A      0.118864    79A      0.121615    80A      0.132781  
      81A      0.141304    82A      0.143797    83A      0.147824  
      84A      0.152222    85A      0.155875    86A      0.161927  
      87A      0.164276    88A      0.168491    89A      0.177729  
      90A      0.183939    91A      0.191694    92A      0.197331  
      93A      0.200196    94A      0.205844    95A      0.215550  
      96A      0.216459    97A      0.231254    98A      0.237652  
      99A      0.244776   100A      0.250139   101A      0.254297  
     102A      0.261140   103A      0.268343   104A      0.273312  
     105A      0.280619   106A      0.291204   107A      0.308294  
     108A      0.313108   109A      0.313765   110A      0.317748  
     111A      0.320881   112A      0.323816   113A      0.327870  
     114A      0.330705   115A      0.336985   116A      0.338922  
     117A      0.342904   118A      0.345213   119A      0.347680  
     120A      0.353194   121A      0.356186   122A      0.358827  
     123A      0.361605   124A      0.366112   125A      0.370168  
     126A      0.371232   127A      0.375946   128A      0.379293  
     129A      0.383440   130A      0.387378   131A      0.393018  
     132A      0.397887   133A      0.402939   134A      0.407108  
     135A      0.408100   136A      0.409858   137A      0.413928  
     138A      0.418516   139A      0.424461   140A      0.427777  
     141A      0.437729   142A      0.441522   143A      0.456106  
     144A      0.464348   145A      0.473606   146A      0.476946  
     147A      0.481180   148A      0.490818   149A      0.493004  
     150A      0.525598   151A      0.528646   152A      0.546420  
     153A      0.552126   154A      0.572569   155A      0.580085  
     156A      0.584199   157A      0.589694   158A      0.598777  
     159A      0.616047   160A      0.628444   161A      0.637410  
     162A      0.645627   163A      0.649025   164A      0.654192  
     165A      0.673389   166A      0.681958   167A      0.687551  
     168A      0.699795   169A      0.700466   170A      0.709236  
     171A      0.721624   172A      0.722190   173A      0.729526  
     174A      0.734153   175A      0.745071   176A      0.747448  
     177A      0.762084   178A      0.765315   179A      0.769674  
     180A      0.776158   181A      0.784972   182A      0.788217  
     183A      0.789646   184A      0.801816   185A      0.805160  
     186A      0.810444   187A      0.818639   188A      0.823703  
     189A      0.826572   190A      0.837296   191A      0.843651  
     192A      0.845335   193A      0.858131   194A      0.858672  
     195A      0.864876   196A      0.871979   197A      0.875878  
     198A      0.882001   199A      0.886221   200A      0.893120  
     201A      0.895721   202A      0.902910   203A      0.909552  
     204A      0.912699   205A      0.922575   206A      0.927440  
     207A      0.931240   208A      0.937731   209A      0.945784  
     210A      0.949674   211A      0.953522   212A      0.957983  
     213A      0.965209   214A      0.973926   215A      0.985789  
     216A      0.988053   217A      0.994250   218A      1.004401  
     219A      1.008460   220A      1.016108   221A      1.019347  
     222A      1.024619   223A      1.031427   224A      1.037125  
     225A      1.043237   226A      1.054092   227A      1.055990  
     228A      1.063048   229A      1.080071   230A      1.086436  
     231A      1.096496   232A      1.103572   233A      1.112882  
     234A      1.118270   235A      1.121387   236A      1.127187  
     237A      1.138467   238A      1.146801   239A      1.154713  
     240A      1.159977   241A      1.164534   242A      1.175123  
     243A      1.183722   244A      1.188928   245A      1.195222  
     246A      1.196794   247A      1.207213   248A      1.214833  
     249A      1.221804   250A      1.230068   251A      1.242318  
     252A      1.246845   253A      1.251688   254A      1.255605  
     255A      1.271975   256A      1.274533   257A      1.281622  
     258A      1.300067   259A      1.306447   260A      1.313195  
     261A      1.326106   262A      1.339838   263A      1.341413  
     264A      1.352683   265A      1.363991   266A      1.368418  
     267A      1.396193   268A      1.398505   269A      1.400610  
     270A      1.408915   271A      1.426340   272A      1.429662  
     273A      1.444521   274A      1.458535   275A      1.487018  
     276A      1.493922   277A      1.499663   278A      1.524176  
     279A      1.542184   280A      1.549126   281A      1.570876  
     282A      1.578221   283A      1.582420   284A      1.592969  
     285A      1.607694   286A      1.614029   287A      1.620492  
     288A      1.643774   289A      1.644635   290A      1.667722  
     291A      1.673513   292A      1.681576   293A      1.688008  
     294A      1.702356   295A      1.708609   296A      1.717369  
     297A      1.730617   298A      1.739320   299A      1.752934  
     300A      1.764196   301A      1.766391   302A      1.783739  
     303A      1.797105   304A      1.800650   305A      1.831857  
     306A      1.846464   307A      1.864581   308A      1.884488  
     309A      1.905536   310A      1.911258   311A      1.913825  
     312A      1.928407   313A      1.936382   314A      1.951250  
     315A      1.955869   316A      1.960951   317A      1.980554  
     318A      1.987879   319A      2.014919   320A      2.033825  
     321A      2.082191   322A      2.089797   323A      2.121285  
     324A      2.144723   325A      2.187932   326A      2.216361  
     327A      2.228959   328A      2.240458   329A      2.253992  
     330A      2.273548   331A      2.278846   332A      2.284081  
     333A      2.296995   334A      2.305149   335A      2.313119  
     336A      2.335786   337A      2.346633   338A      2.366142  
     339A      2.377340   340A      2.392511   341A      2.398209  
     342A      2.410909   343A      2.415679   344A      2.420080  
     345A      2.432923   346A      2.447583   347A      2.457708  
     348A      2.467468   349A      2.470100   350A      2.474444  
     351A      2.485795   352A      2.499857   353A      2.516138  
     354A      2.521053   355A      2.537766   356A      2.542654  
     357A      2.550161   358A      2.567404   359A      2.574456  
     360A      2.589605   361A      2.604218   362A      2.623480  
     363A      2.627985   364A      2.630430   365A      2.648704  
     366A      2.660129   367A      2.665774   368A      2.678169  
     369A      2.686670   370A      2.698408   371A      2.704580  
     372A      2.708277   373A      2.720494   374A      2.727348  
     375A      2.738462   376A      2.750925   377A      2.770718  
     378A      2.773093   379A      2.793846   380A      2.798556  
     381A      2.808891   382A      2.823241   383A      2.835608  
     384A      2.838571   385A      2.852168   386A      2.856363  
     387A      2.866790   388A      2.880889   389A      2.892417  
     390A      2.898824   391A      2.905992   392A      2.931477  
     393A      2.952769   394A      2.965534   395A      2.982798  
     396A      3.059261   397A      3.099800   398A      3.394081  
     399A      3.630924   400A      3.658066   401A      3.673664  
     402A      3.712383   403A      3.735567   404A      3.742268  
     405A      3.749427   406A      3.791234   407A      3.804080  
     408A      3.819391   409A      3.834767   410A      3.875343  
     411A      3.953484   412A      3.993886   413A      4.014294  
     414A      4.020939   415A      4.028483   416A      4.056454  
     417A      4.077221   418A      4.101308   419A      4.110785  
     420A      4.116328   421A      4.133534   422A      4.139168  
     423A      4.148086   424A      4.154343   425A      4.160377  
     426A      4.176777   427A      4.193893   428A      4.197093  
     429A      4.212962   430A      4.222907   431A      4.229374  
     432A      4.251886   433A      4.261971   434A      4.272681  
     435A      4.304784   436A      4.325409   437A      4.347312  
     438A      4.355976   439A      4.363325   440A      4.366083  
     441A      4.383097   442A      4.385202   443A      4.406435  
     444A      4.406990   445A      4.411383   446A      4.415694  
     447A      4.417621   448A      4.442017   449A      4.458648  
     450A      4.470277   451A      4.476022   452A      4.486392  
     453A      4.491061   454A      4.508703   455A      4.521317  
     456A      4.527432   457A      4.543950   458A      4.555533  
     459A      4.571779   460A      4.588133   461A      4.595471  
     462A      4.621605   463A      4.626332   464A      4.657378  
     465A      4.663726   466A      4.673635   467A      4.681550  
     468A      4.703625   469A      4.709003   470A      4.725299  
     471A      4.729479   472A      4.737292   473A      4.757890  
     474A      4.774769   475A      4.792783   476A      4.847535  
     477A      4.919228   478A      4.947295   479A      4.971848  
     480A      4.975291   481A      4.999272   482A      5.012360  
     483A      5.020341   484A      5.033538   485A      5.047648  
     486A      5.048590   487A      5.056927   488A      5.065434  
     489A      5.092461   490A      5.131401   491A      5.158240  
     492A      5.170848   493A      5.187179   494A      5.191333  
     495A      5.209018   496A      5.222159   497A      5.240999  
     498A      5.254245   499A      5.266341   500A      5.283395  
     501A      5.325435   502A      5.393304   503A      5.428872  
     504A      5.473386   505A      5.485663   506A      5.535677  
     507A      5.578126   508A      5.632321   509A      5.649749  
     510A      5.658206   511A      5.691943   512A      5.739691  
     513A      6.134246   514A      6.156633   515A      6.180590  
     516A      6.227097   517A      6.240729   518A      6.307768  
     519A      6.471688   520A      6.491775   521A      6.512074  
     522A      6.522670   523A      6.538374   524A      6.556699  
     525A      6.637620   526A      6.665482   527A      6.668724  
     528A      6.671902   529A      6.699289   530A      6.727012  
     531A      6.757504   532A      6.783689   533A      6.797763  
     534A      6.832319   535A      6.842270   536A      6.855906  
     537A      7.003622   538A      7.014982   539A      7.034618  
     540A      7.040813   541A      7.072275   542A      7.079559  
     543A      7.081685   544A      7.118929   545A      7.127674  
     546A      7.160803   547A      7.168881   548A      7.170699  
     549A      7.178753   550A      7.182197   551A      7.201670  
     552A      7.210763   553A      7.213587   554A      7.231577  
     555A      7.234128   556A      7.237073   557A      7.243750  
     558A      7.246147   559A      7.247249   560A      7.264924  
     561A      7.280504   562A      7.284516   563A      7.288379  
     564A      7.300008   565A      7.304230   566A      7.309730  
     567A      7.332646   568A      7.351334   569A      7.361084  
     570A      7.390644   571A      7.404353   572A      7.420765  
     573A      7.508392   574A      7.527942   575A      7.535030  
     576A      7.562286   577A      7.571732   578A      7.610224  
     579A      7.716518   580A      7.736574   581A      7.754860  
     582A      7.770643   583A      7.770863   584A      7.805792  
     585A      7.807764   586A      7.836541   587A      7.845004  
     588A      7.861354   589A      7.891395   590A      7.939505  
     591A      8.472282   592A      8.601571   593A      8.617907  
     594A      8.675754   595A      8.689454   596A      8.706900  
     597A     14.966264   598A     15.487707   599A     15.595289  
     600A     15.636184   601A     15.723935   602A     15.855622  

    Final Occupation by Irrep:
              A 
    DOCC [    35 ]
    NA   [    35 ]
    NB   [    35 ]

  @DF-RHF Final Energy:  -618.13916740075683

   => Energetics <=

    Nuclear Repulsion Energy =            414.5070228700695338
    One-Electron Energy =               -1675.5825870903668147
    Two-Electron Energy =                 642.9363968195405050
    Total Energy =                       -618.1391674007568326

Computation Completed


Properties will be evaluated at   0.000000,   0.000000,   0.000000 [a0]

Properties computed using the SCF density matrix


 Multipole Moments:

 ------------------------------------------------------------------------------------
     Multipole            Electronic (a.u.)      Nuclear  (a.u.)        Total (a.u.)
 ------------------------------------------------------------------------------------

 L = 1.  Multiply by 2.5417464519 to convert [e a0] to [Debye]
 Dipole X            :         11.6157083          -11.2841821            0.3315262
 Dipole Y            :         -5.2743830            6.4351278            1.1607448
 Dipole Z            :         -8.4171432            9.3108394            0.8936961
 Magnitude           :                                                    1.5019757

 ------------------------------------------------------------------------------------

*** tstop() called on moses-razer at Sun Jan  7 14:11:07 2024
Module time:
	user time   =     164.97 seconds =       2.75 minutes
	system time =       4.68 seconds =       0.08 minutes
	total time  =         30 seconds =       0.50 minutes
Total time:
	user time   =     164.97 seconds =       2.75 minutes
	system time =       4.68 seconds =       0.08 minutes
	total time  =         30 seconds =       0.50 minutes

  //>>>>>>>>>>>>>>>>>>>>>>>>>>>>>>>>>>>//
  //            Monomer A HF           //
  //<<<<<<<<<<<<<<<<<<<<<<<<<<<<<<<<<<<//

   => Libint2 <=

    Primary   basis highest AM E, G, H:  5, 4, 3
    Auxiliary basis highest AM E, G, H:  6, 5, 4
    Onebody   basis highest AM E, G, H:  6, 5, 4
    Solid Harmonics ordering:            gaussian

*** tstart() called on moses-razer
*** at Sun Jan  7 14:11:07 2024

   => Loading Basis Set <=

    Name: AUG-CC-PVTZ
    Role: ORBITAL
    Keyword: BASIS
    atoms 1                                   entry NA         line   469 file /home/kchung25/anaconda3/envs/p415env/share/psi4/basis/aug-cc-pvtz.gbs 
    atoms 2, 5, 8, 11, 14, 17                 entry O          line   331 file /home/kchung25/anaconda3/envs/p415env/share/psi4/basis/aug-cc-pvtz.gbs 
    atoms 3-4, 6-7, 9-10, 12-13, 15-16, 18-19 entry H          line    40 file /home/kchung25/anaconda3/envs/p415env/share/psi4/basis/aug-cc-pvtz.gbs 


         ---------------------------------------------------------
                                   SCF
               by Justin Turney, Rob Parrish, Andy Simmonett
                          and Daniel G. A. Smith
                              RHF Reference
                        6 Threads,  57220 MiB Core
         ---------------------------------------------------------

  ==> Geometry <==

    Molecular point group: c1
    Full point group: C1

    Geometry (in Angstrom), charge = 1, multiplicity = 1:

       Center              X                  Y                   Z               Mass       
    ------------   -----------------  -----------------  -----------------  -----------------
         NA           0.000000000000     0.000000000000     0.000000000000    22.989769282000
      Gh(O)          -0.033562000000     0.651864000000    -2.283036000000    15.994914619570
      Gh(H)           0.894796000000     0.893756000000    -2.460802000000     1.007825032230
      Gh(H)          -0.574548000000     1.432965000000    -2.476385000000     1.007825032230
      Gh(O)           2.159584000000    -0.736393000000     0.244526000000    15.994914619570
      Gh(H)           2.484224000000    -0.797737000000    -0.668585000000     1.007825032230
      Gh(H)           2.769476000000    -0.050577000000     0.618321000000     1.007825032230
      Gh(O)           1.010079000000     1.997128000000     0.381980000000    15.994914619570
      Gh(H)           1.335088000000     1.941477000000     1.298553000000     1.007825032230
      Gh(H)           1.836526000000     2.246424000000    -0.124748000000     1.007825032230
      Gh(O)          -0.693443000000    -2.201180000000    -0.087038000000    15.994914619570
      Gh(H)          -1.384165000000    -2.200407000000     0.626177000000     1.007825032230
      Gh(H)          -1.159158000000    -2.555826000000    -0.870984000000     1.007825032230
      Gh(O)          -0.562174000000    -0.147253000000     2.221974000000    15.994914619570
      Gh(H)           0.059516000000    -0.569628000000     2.892423000000     1.007825032230
      Gh(H)          -0.988942000000     0.664075000000     2.631446000000     1.007825032230
      Gh(O)          -2.540820000000     0.600282000000    -0.110639000000    15.994914619570
      Gh(H)          -2.964940000000    -0.234719000000     0.142310000000     1.007825032230
      Gh(H)          -2.996517000000     1.319936000000     0.377222000000     1.007825032230

  Running in c1 symmetry.

  Rotational constants: A =      0.04404  B =      0.03960  C =      0.03633 [cm^-1]
  Rotational constants: A =   1320.19285  B =   1187.10381  C =   1089.26704 [MHz]
  Nuclear repulsion =    0.000000000000000

  Charge       = 1
  Multiplicity = 1
  Electrons    = 10
  Nalpha       = 5
  Nbeta        = 5

  ==> Algorithm <==

  SCF Algorithm Type is DF.
  DIIS enabled.
  MOM disabled.
  Fractional occupation disabled.
  Guess Type is SAD.
  Energy threshold   = 1.00e-08
  Density threshold  = 1.00e-08
  Integral threshold = 1.00e-12

  ==> Primary Basis <==

  Basis Set: AUG-CC-PVTZ
    Blend: AUG-CC-PVTZ
    Number of shells: 208
    Number of basis functions: 602
    Number of Cartesian functions: 689
    Spherical Harmonics?: true
    Max angular momentum: 3

   => Loading Basis Set <=

    Name: (AUG-CC-PVTZ AUX)
    Role: JKFIT
    Keyword: DF_BASIS_SCF
    atoms 1                                   entry NA         line   498 file /home/kchung25/anaconda3/envs/p415env/share/psi4/basis/def2-universal-jkfit.gbs 
    atoms 2, 5, 8, 11, 14, 17                 entry O          line   286 file /home/kchung25/anaconda3/envs/p415env/share/psi4/basis/aug-cc-pvtz-jkfit.gbs 
    atoms 3-4, 6-7, 9-10, 12-13, 15-16, 18-19 entry H          line    70 file /home/kchung25/anaconda3/envs/p415env/share/psi4/basis/aug-cc-pvtz-jkfit.gbs 

  ==> Integral Setup <==

  ==> DiskDFJK: Density-Fitted J/K Matrices <==

    J tasked:                  Yes
    K tasked:                  Yes
    wK tasked:                  No
    OpenMP threads:              6
    Integrals threads:           6
    Memory [MiB]:            42915
    Algorithm:                Core
    Integral Cache:           LOAD
    Schwarz Cutoff:          1E-12
    Fitting Condition:       1E-10

   => Auxiliary Basis Set <=

  Basis Set: (AUG-CC-PVTZ AUX)
    Blend: AUG-CC-PVTZ-JKFIT + DEF2-UNIVERSAL-JKFIT
    Number of shells: 382
    Number of basis functions: 1288
    Number of Cartesian functions: 1583
    Spherical Harmonics?: true
    Max angular momentum: 4

  Minimum eigenvalue in the overlap matrix is 1.7503689844E-05.
  Reciprocal condition number of the overlap matrix is 1.1006617223E-06.
    Using symmetric orthogonalization.

  ==> Pre-Iterations <==

  SCF Guess: Superposition of Atomic Densities via on-the-fly atomic UHF (no occupation information).

   -------------------------
    Irrep   Nso     Nmo    
   -------------------------
     A        602     602 
   -------------------------
    Total     602     602
   -------------------------

  ==> Iterations <==

                           Total Energy        Delta E     RMS |[F,P]|

   @DF-RHF iter SAD:  -161.74572714142877   -1.61746e+02   0.00000e+00 
   @DF-RHF iter   1:  -161.67607920787461    6.96479e-02   1.08735e-05 DIIS
   @DF-RHF iter   2:  -161.67609807211304   -1.88642e-05   1.95019e-06 DIIS
   @DF-RHF iter   3:  -161.67609858770493   -5.15592e-07   9.01704e-08 DIIS
   @DF-RHF iter   4:  -161.67609858851694   -8.12008e-10   1.50115e-08 DIIS
   @DF-RHF iter   5:  -161.67609858853589   -1.89573e-11   5.81016e-10 DIIS
  Energy and wave function converged.


  ==> Post-Iterations <==

    Orbital Energies [Eh]
    ---------------------

    Doubly Occupied:                                                      

       1A    -40.760332     2A     -3.073750     3A     -1.797109  
       4A     -1.797100     5A     -1.797089  

    Virtual:                                                              

       6A     -0.181803     7A     -0.109437     8A     -0.109434  
       9A     -0.109432    10A     -0.070091    11A     -0.052586  
      12A     -0.052495    13A     -0.051680    14A     -0.051549  
      15A     -0.051517    16A     -0.049384    17A     -0.049280  
      18A     -0.049226    19A     -0.027796    20A     -0.014372  
      21A     -0.013632    22A     -0.013125    23A     -0.012310  
      24A     -0.011313    25A     -0.010224    26A     -0.004912  
      27A     -0.004060    28A     -0.002064    29A      0.000475  
      30A      0.006601    31A      0.008992    32A      0.017130  
      33A      0.021577    34A      0.025130    35A      0.029712  
      36A      0.035242    37A      0.042182    38A      0.042399  
      39A      0.046606    40A      0.063774    41A      0.070485  
      42A      0.073918    43A      0.075171    44A      0.076906  
      45A      0.078979    46A      0.086880    47A      0.092397  
      48A      0.093397    49A      0.098140    50A      0.099636  
      51A      0.102580    52A      0.109249    53A      0.116967  
      54A      0.125661    55A      0.127062    56A      0.135535  
      57A      0.144407    58A      0.147157    59A      0.149567  
      60A      0.151054    61A      0.159262    62A      0.175867  
      63A      0.183492    64A      0.192895    65A      0.198668  
      66A      0.204795    67A      0.206430    68A      0.210794  
      69A      0.214299    70A      0.218852    71A      0.221572  
      72A      0.227517    73A      0.229065    74A      0.232294  
      75A      0.241353    76A      0.255779    77A      0.260309  
      78A      0.261940    79A      0.267363    80A      0.271440  
      81A      0.275029    82A      0.278737    83A      0.281468  
      84A      0.294647    85A      0.295140    86A      0.300026  
      87A      0.303608    88A      0.306231    89A      0.309527  
      90A      0.316512    91A      0.320339    92A      0.322272  
      93A      0.329032    94A      0.329961    95A      0.336906  
      96A      0.345480    97A      0.347698    98A      0.350228  
      99A      0.356300   100A      0.358469   101A      0.367041  
     102A      0.370400   103A      0.374222   104A      0.380485  
     105A      0.385818   106A      0.388650   107A      0.394610  
     108A      0.406751   109A      0.411242   110A      0.417569  
     111A      0.424925   112A      0.428880   113A      0.436195  
     114A      0.444076   115A      0.448944   116A      0.453612  
     117A      0.454018   118A      0.462027   119A      0.469729  
     120A      0.488011   121A      0.494785   122A      0.498462  
     123A      0.512848   124A      0.540277   125A      0.553415  
     126A      0.556506   127A      0.568993   128A      0.574272  
     129A      0.587031   130A      0.589783   131A      0.593044  
     132A      0.596222   133A      0.604179   134A      0.616129  
     135A      0.627910   136A      0.635044   137A      0.645761  
     138A      0.648862   139A      0.665340   140A      0.669152  
     141A      0.676867   142A      0.686227   143A      0.697447  
     144A      0.704319   145A      0.709054   146A      0.717940  
     147A      0.722562   148A      0.728135   149A      0.734008  
     150A      0.738072   151A      0.742284   152A      0.755729  
     153A      0.761489   154A      0.763097   155A      0.767702  
     156A      0.777036   157A      0.786207   158A      0.790546  
     159A      0.796162   160A      0.807703   161A      0.813733  
     162A      0.817897   163A      0.822556   164A      0.829457  
     165A      0.835089   166A      0.847910   167A      0.853783  
     168A      0.857574   169A      0.866125   170A      0.870676  
     171A      0.872603   172A      0.883897   173A      0.889402  
     174A      0.891697   175A      0.900032   176A      0.903767  
     177A      0.911530   178A      0.914088   179A      0.919069  
     180A      0.921770   181A      0.931520   182A      0.935794  
     183A      0.947759   184A      0.949798   185A      0.957684  
     186A      0.963768   187A      0.974054   188A      0.981919  
     189A      0.989464   190A      0.993011   191A      1.005177  
     192A      1.017208   193A      1.020608   194A      1.024908  
     195A      1.034194   196A      1.039476   197A      1.043368  
     198A      1.050028   199A      1.055338   200A      1.067644  
     201A      1.074229   202A      1.080774   203A      1.087394  
     204A      1.096098   205A      1.107388   206A      1.115845  
     207A      1.120591   208A      1.126446   209A      1.135390  
     210A      1.145149   211A      1.145801   212A      1.154720  
     213A      1.162468   214A      1.163947   215A      1.180519  
     216A      1.186184   217A      1.194097   218A      1.196805  
     219A      1.203473   220A      1.211969   221A      1.224669  
     222A      1.232515   223A      1.236018   224A      1.240755  
     225A      1.249671   226A      1.256595   227A      1.259850  
     228A      1.269224   229A      1.278542   230A      1.281125  
     231A      1.289072   232A      1.295166   233A      1.301235  
     234A      1.317275   235A      1.319999   236A      1.336043  
     237A      1.341012   238A      1.351619   239A      1.374071  
     240A      1.386557   241A      1.393241   242A      1.408916  
     243A      1.415295   244A      1.429729   245A      1.436196  
     246A      1.440098   247A      1.447281   248A      1.466316  
     249A      1.473486   250A      1.486464   251A      1.495223  
     252A      1.505028   253A      1.514497   254A      1.526938  
     255A      1.532155   256A      1.556042   257A      1.580225  
     258A      1.596063   259A      1.599464   260A      1.649201  
     261A      1.685107   262A      1.686880   263A      1.689535  
     264A      1.707132   265A      1.716384   266A      1.730285  
     267A      1.736958   268A      1.739980   269A      1.746700  
     270A      1.752137   271A      1.774178   272A      1.777495  
     273A      1.780677   274A      1.792396   275A      1.801552  
     276A      1.812443   277A      1.819968   278A      1.826019  
     279A      1.836663   280A      1.845416   281A      1.852933  
     282A      1.863938   283A      1.870118   284A      1.873325  
     285A      1.888618   286A      1.903746   287A      1.908414  
     288A      1.918608   289A      1.945430   290A      1.948078  
     291A      1.963923   292A      1.986334   293A      1.990540  
     294A      1.998940   295A      2.005891   296A      2.246719  
     297A      2.261983   298A      2.264761   299A      2.280799  
     300A      2.286427   301A      2.309192   302A      2.316516  
     303A      2.340221   304A      2.357954   305A      2.360177  
     306A      2.382022   307A      2.386491   308A      2.397520  
     309A      2.402570   310A      2.416497   311A      2.437410  
     312A      2.439586   313A      2.454941   314A      2.469723  
     315A      2.472331   316A      2.485738   317A      2.495524  
     318A      2.498395   319A      2.517854   320A      2.529082  
     321A      2.538623   322A      2.546117   323A      2.557867  
     324A      2.575392   325A      2.578938   326A      2.593783  
     327A      2.615790   328A      2.625692   329A      2.637070  
     330A      2.652976   331A      2.677103   332A      2.680780  
     333A      2.706442   334A      2.712330   335A      2.729037  
     336A      2.743106   337A      2.758754   338A      2.771914  
     339A      2.784540   340A      2.803966   341A      2.819330  
     342A      2.847647   343A      2.857014   344A      2.879387  
     345A      2.886914   346A      2.915306   347A      2.938440  
     348A      2.947864   349A      3.000725   350A      3.007611  
     351A      3.018825   352A      3.035406   353A      3.041012  
     354A      3.050555   355A      3.059271   356A      3.066284  
     357A      3.082490   358A      3.086046   359A      3.103307  
     360A      3.110248   361A      3.127049   362A      3.134903  
     363A      3.138023   364A      3.153122   365A      3.159972  
     366A      3.166127   367A      3.176065   368A      3.180194  
     369A      3.185327   370A      3.194970   371A      3.201129  
     372A      3.217992   373A      3.232266   374A      3.242321  
     375A      3.265970   376A      3.292422   377A      3.298862  
     378A      3.307475   379A      3.327477   380A      3.434105  
     381A      3.487074   382A      3.489438   383A      3.506232  
     384A      3.519856   385A      3.565363   386A      3.592962  
     387A      3.596097   388A      3.619671   389A      3.631179  
     390A      3.664109   391A      3.669371   392A      3.752949  
     393A      4.214879   394A      4.263123   395A      4.278124  
     396A      4.279915   397A      4.295222   398A      4.306237  
     399A      4.346188   400A      4.376068   401A      4.386634  
     402A      4.388727   403A      4.392358   404A      4.398388  
     405A      4.413166   406A      4.419985   407A      4.428331  
     408A      4.462780   409A      4.467569   410A      4.476933  
     411A      4.489056   412A      4.501774   413A      4.514213  
     414A      4.531309   415A      4.550919   416A      4.556846  
     417A      4.570076   418A      4.577288   419A      4.590457  
     420A      4.599287   421A      4.617606   422A      4.620805  
     423A      4.638597   424A      4.657201   425A      4.666934  
     426A      4.671792   427A      4.697405   428A      4.713441  
     429A      4.836863   430A      4.846015   431A      4.860505  
     432A      4.880633   433A      4.890601   434A      4.904348  
     435A      4.925849   436A      4.937548   437A      4.952202  
     438A      4.961053   439A      4.980734   440A      4.993732  
     441A      5.013650   442A      5.017305   443A      5.035251  
     444A      5.037948   445A      5.050395   446A      5.060370  
     447A      5.094803   448A      5.104088   449A      5.113971  
     450A      5.129727   451A      5.141207   452A      5.177421  
     453A      5.214310   454A      5.272487   455A      5.298598  
     456A      5.303205   457A      5.318190   458A      5.327524  
     459A      5.345423   460A      5.373255   461A      5.402841  
     462A      5.419496   463A      5.425524   464A      5.445756  
     465A      5.452386   466A      5.469724   467A      5.489636  
     468A      5.494281   469A      5.511813   470A      5.543974  
     471A      5.589905   472A      5.673450   473A      5.695720  
     474A      5.739352   475A      5.760675   476A      5.779048  
     477A      6.036312   478A      6.040754   479A      6.078660  
     480A      6.112210   481A      6.142509   482A      6.158794  
     483A      6.165456   484A      6.193302   485A      6.195069  
     486A      6.221015   487A      6.255274   488A      6.291535  
     489A      6.398915   490A      6.438689   491A      6.452613  
     492A      6.543130   493A      6.552775   494A      6.590419  
     495A      6.739559   496A      6.802042   497A      6.811691  
     498A      6.832964   499A      6.861656   500A      6.879007  
     501A      7.494734   502A      7.526731   503A      7.528510  
     504A      7.545562   505A      7.566456   506A      7.586603  
     507A      7.604083   508A      7.633111   509A      7.646649  
     510A      7.677639   511A      7.686836   512A      7.705352  
     513A      7.867939   514A      7.868532   515A      7.885312  
     516A      7.907974   517A      7.916916   518A      7.934395  
     519A      7.946843   520A      7.958024   521A      7.977446  
     522A      7.981100   523A      8.010898   524A      8.021169  
     525A      8.037175   526A      8.059058   527A      8.084810  
     528A      8.090301   529A      8.109095   530A      8.142474  
     531A      8.386766   532A      8.436609   533A      8.452979  
     534A      8.466309   535A      8.491884   536A      8.546194  
     537A      8.554065   538A      8.563686   539A      8.590718  
     540A      8.597346   541A      8.597470   542A      8.607572  
     543A      9.683172   544A      9.695021   545A      9.709448  
     546A      9.722693   547A      9.733823   548A      9.760373  
     549A      9.777763   550A      9.782136   551A      9.797242  
     552A      9.807608   553A      9.816059   554A      9.830261  
     555A      9.830651   556A      9.848248   557A      9.858232  
     558A      9.877616   559A      9.893257   560A      9.898375  
     561A      9.969824   562A     10.014817   563A     10.025056  
     564A     10.031680   565A     10.046535   566A     10.058051  
     567A     10.730773   568A     10.862178   569A     10.868074  
     570A     10.917860   571A     10.926580   572A     10.929142  
     573A     11.597612   574A     11.620089   575A     11.671213  
     576A     11.703872   577A     11.724002   578A     11.745655  
     579A     11.782966   580A     11.805309   581A     11.832062  
     582A     11.894029   583A     11.908100   584A     11.938220  
     585A     13.158785   586A     13.297831   587A     13.322290  
     588A     13.345449   589A     13.375394   590A     13.396294  
     591A     13.758585   592A     13.765313   593A     13.778369  
     594A     13.819316   595A     13.827217   596A     13.857237  
     597A     63.452240   598A     64.372633   599A     64.639876  
     600A     64.670477   601A     64.845238   602A     64.985348  

    Final Occupation by Irrep:
              A 
    DOCC [     5 ]
    NA   [     5 ]
    NB   [     5 ]

  @DF-RHF Final Energy:  -161.67609858853589

   => Energetics <=

    Nuclear Repulsion Energy =              0.0000000000000000
    One-Electron Energy =                -224.9014379296167192
    Two-Electron Energy =                  63.2253393410808187
    Total Energy =                       -161.6760985885358934

Computation Completed


Properties will be evaluated at   0.000000,   0.000000,   0.000000 [a0]

Properties computed using the SCF density matrix


 Multipole Moments:

 ------------------------------------------------------------------------------------
     Multipole            Electronic (a.u.)      Nuclear  (a.u.)        Total (a.u.)
 ------------------------------------------------------------------------------------

 L = 1.  Multiply by 2.5417464519 to convert [e a0] to [Debye]
 Dipole X            :         -0.0000568            0.0000000           -0.0000568
 Dipole Y            :          0.0000325            0.0000000            0.0000325
 Dipole Z            :          0.0000192            0.0000000            0.0000192
 Magnitude           :                                                    0.0000682

 ------------------------------------------------------------------------------------

*** tstop() called on moses-razer at Sun Jan  7 14:11:19 2024
Module time:
	user time   =      63.60 seconds =       1.06 minutes
	system time =       1.27 seconds =       0.02 minutes
	total time  =         12 seconds =       0.20 minutes
Total time:
	user time   =     228.59 seconds =       3.81 minutes
	system time =       5.95 seconds =       0.10 minutes
	total time  =         42 seconds =       0.70 minutes

  //>>>>>>>>>>>>>>>>>>>>>>>>>>>>>>>>>>>//
  //            Monomer B HF           //
  //<<<<<<<<<<<<<<<<<<<<<<<<<<<<<<<<<<<//

   => Libint2 <=

    Primary   basis highest AM E, G, H:  5, 4, 3
    Auxiliary basis highest AM E, G, H:  6, 5, 4
    Onebody   basis highest AM E, G, H:  6, 5, 4
    Solid Harmonics ordering:            gaussian

*** tstart() called on moses-razer
*** at Sun Jan  7 14:11:19 2024

   => Loading Basis Set <=

    Name: AUG-CC-PVTZ
    Role: ORBITAL
    Keyword: BASIS
    atoms 1                                   entry NA         line   469 file /home/kchung25/anaconda3/envs/p415env/share/psi4/basis/aug-cc-pvtz.gbs 
    atoms 2, 5, 8, 11, 14, 17                 entry O          line   331 file /home/kchung25/anaconda3/envs/p415env/share/psi4/basis/aug-cc-pvtz.gbs 
    atoms 3-4, 6-7, 9-10, 12-13, 15-16, 18-19 entry H          line    40 file /home/kchung25/anaconda3/envs/p415env/share/psi4/basis/aug-cc-pvtz.gbs 


         ---------------------------------------------------------
                                   SCF
               by Justin Turney, Rob Parrish, Andy Simmonett
                          and Daniel G. A. Smith
                              RHF Reference
                        6 Threads,  57220 MiB Core
         ---------------------------------------------------------

  ==> Geometry <==

    Molecular point group: c1
    Full point group: C1

    Geometry (in Angstrom), charge = 0, multiplicity = 1:

       Center              X                  Y                   Z               Mass       
    ------------   -----------------  -----------------  -----------------  -----------------
      Gh(NA)          0.000000000000     0.000000000000     0.000000000000    22.989769282000
         O           -0.033562000000     0.651864000000    -2.283036000000    15.994914619570
         H            0.894796000000     0.893756000000    -2.460802000000     1.007825032230
         H           -0.574548000000     1.432965000000    -2.476385000000     1.007825032230
         O            2.159584000000    -0.736393000000     0.244526000000    15.994914619570
         H            2.484224000000    -0.797737000000    -0.668585000000     1.007825032230
         H            2.769476000000    -0.050577000000     0.618321000000     1.007825032230
         O            1.010079000000     1.997128000000     0.381980000000    15.994914619570
         H            1.335088000000     1.941477000000     1.298553000000     1.007825032230
         H            1.836526000000     2.246424000000    -0.124748000000     1.007825032230
         O           -0.693443000000    -2.201180000000    -0.087038000000    15.994914619570
         H           -1.384165000000    -2.200407000000     0.626177000000     1.007825032230
         H           -1.159158000000    -2.555826000000    -0.870984000000     1.007825032230
         O           -0.562174000000    -0.147253000000     2.221974000000    15.994914619570
         H            0.059516000000    -0.569628000000     2.892423000000     1.007825032230
         H           -0.988942000000     0.664075000000     2.631446000000     1.007825032230
         O           -2.540820000000     0.600282000000    -0.110639000000    15.994914619570
         H           -2.964940000000    -0.234719000000     0.142310000000     1.007825032230
         H           -2.996517000000     1.319936000000     0.377222000000     1.007825032230

  Running in c1 symmetry.

  Rotational constants: A =      0.04404  B =      0.03960  C =      0.03633 [cm^-1]
  Rotational constants: A =   1320.19285  B =   1187.10381  C =   1089.26704 [MHz]
  Nuclear repulsion =  271.484535925628393

  Charge       = 0
  Multiplicity = 1
  Electrons    = 60
  Nalpha       = 30
  Nbeta        = 30

  ==> Algorithm <==

  SCF Algorithm Type is DF.
  DIIS enabled.
  MOM disabled.
  Fractional occupation disabled.
  Guess Type is SAD.
  Energy threshold   = 1.00e-08
  Density threshold  = 1.00e-08
  Integral threshold = 1.00e-12

  ==> Primary Basis <==

  Basis Set: AUG-CC-PVTZ
    Blend: AUG-CC-PVTZ
    Number of shells: 208
    Number of basis functions: 602
    Number of Cartesian functions: 689
    Spherical Harmonics?: true
    Max angular momentum: 3

   => Loading Basis Set <=

    Name: (AUG-CC-PVTZ AUX)
    Role: JKFIT
    Keyword: DF_BASIS_SCF
    atoms 1                                   entry NA         line   498 file /home/kchung25/anaconda3/envs/p415env/share/psi4/basis/def2-universal-jkfit.gbs 
    atoms 2, 5, 8, 11, 14, 17                 entry O          line   286 file /home/kchung25/anaconda3/envs/p415env/share/psi4/basis/aug-cc-pvtz-jkfit.gbs 
    atoms 3-4, 6-7, 9-10, 12-13, 15-16, 18-19 entry H          line    70 file /home/kchung25/anaconda3/envs/p415env/share/psi4/basis/aug-cc-pvtz-jkfit.gbs 

  ==> Integral Setup <==

  ==> DiskDFJK: Density-Fitted J/K Matrices <==

    J tasked:                  Yes
    K tasked:                  Yes
    wK tasked:                  No
    OpenMP threads:              6
    Integrals threads:           6
    Memory [MiB]:            42915
    Algorithm:                Core
    Integral Cache:           LOAD
    Schwarz Cutoff:          1E-12
    Fitting Condition:       1E-10

   => Auxiliary Basis Set <=

  Basis Set: (AUG-CC-PVTZ AUX)
    Blend: AUG-CC-PVTZ-JKFIT + DEF2-UNIVERSAL-JKFIT
    Number of shells: 382
    Number of basis functions: 1288
    Number of Cartesian functions: 1583
    Spherical Harmonics?: true
    Max angular momentum: 4

  Minimum eigenvalue in the overlap matrix is 1.7503689844E-05.
  Reciprocal condition number of the overlap matrix is 1.1006617223E-06.
    Using symmetric orthogonalization.

  ==> Pre-Iterations <==

  SCF Guess: Superposition of Atomic Densities via on-the-fly atomic UHF (no occupation information).

   -------------------------
    Irrep   Nso     Nmo    
   -------------------------
     A        602     602 
   -------------------------
    Total     602     602
   -------------------------

  ==> Iterations <==

                           Total Energy        Delta E     RMS |[F,P]|

   @DF-RHF iter SAD:  -452.82977447107925   -4.52830e+02   0.00000e+00 
   @DF-RHF iter   1:  -455.75604154835617   -2.92627e+00   1.94006e-03 DIIS/ADIIS
   @DF-RHF iter   2:  -456.07301790548826   -3.16976e-01   1.40751e-03 DIIS/ADIIS
   @DF-RHF iter   3:  -456.30492904334210   -2.31911e-01   9.70787e-05 DIIS
   @DF-RHF iter   4:  -456.30794129567215   -3.01225e-03   2.64883e-05 DIIS
   @DF-RHF iter   5:  -456.30816661263714   -2.25317e-04   8.80353e-06 DIIS
   @DF-RHF iter   6:  -456.30819081448942   -2.42019e-05   3.76615e-06 DIIS
   @DF-RHF iter   7:  -456.30819452239120   -3.70790e-06   7.71031e-07 DIIS
   @DF-RHF iter   8:  -456.30819483837445   -3.15983e-07   1.53614e-07 DIIS
   @DF-RHF iter   9:  -456.30819484945539   -1.10809e-08   4.72270e-08 DIIS
   @DF-RHF iter  10:  -456.30819485006589   -6.10498e-10   1.85183e-08 DIIS
   @DF-RHF iter  11:  -456.30819485015286   -8.69704e-11   5.23348e-09 DIIS
  Energy and wave function converged.


  ==> Post-Iterations <==

    Orbital Energies [Eh]
    ---------------------

    Doubly Occupied:                                                      

       1A    -20.549919     2A    -20.549846     3A    -20.539831  
       4A    -20.539117     5A    -20.528999     6A    -20.524849  
       7A     -1.318940     8A     -1.313448     9A     -1.310015  
      10A     -1.304310    11A     -1.303832    12A     -1.292261  
      13A     -0.684773    14A     -0.678837    15A     -0.677010  
      16A     -0.673485    17A     -0.666012    18A     -0.654871  
      19A     -0.561098    20A     -0.551844    21A     -0.546033  
      22A     -0.540688    23A     -0.534419    24A     -0.528204  
      25A     -0.498575    26A     -0.480460    27A     -0.476870  
      28A     -0.465729    29A     -0.463237    30A     -0.458342  

    Virtual:                                                              

      31A      0.007303    32A      0.014098    33A      0.018042  
      34A      0.020414    35A      0.041804    36A      0.049503  
      37A      0.051217    38A      0.052114    39A      0.055669  
      40A      0.059187    41A      0.063940    42A      0.065491  
      43A      0.073372    44A      0.076447    45A      0.077043  
      46A      0.080947    47A      0.082319    48A      0.086463  
      49A      0.096453    50A      0.101461    51A      0.106456  
      52A      0.118054    53A      0.121938    54A      0.123242  
      55A      0.125594    56A      0.158374    57A      0.163773  
      58A      0.171209    59A      0.175116    60A      0.177661  
      61A      0.188330    62A      0.190681    63A      0.199493  
      64A      0.204403    65A      0.206684    66A      0.210239  
      67A      0.210649    68A      0.213647    69A      0.221083  
      70A      0.224210    71A      0.227402    72A      0.235407  
      73A      0.240755    74A      0.246381    75A      0.257297  
      76A      0.260728    77A      0.265896    78A      0.272471  
      79A      0.277078    80A      0.280057    81A      0.289578  
      82A      0.290854    83A      0.306181    84A      0.309722  
      85A      0.316650    86A      0.325567    87A      0.331593  
      88A      0.335446    89A      0.349578    90A      0.354868  
      91A      0.357928    92A      0.374120    93A      0.375286  
      94A      0.384552    95A      0.388242    96A      0.394376  
      97A      0.400899    98A      0.409953    99A      0.412588  
     100A      0.418964   101A      0.426874   102A      0.444605  
     103A      0.447837   104A      0.449939   105A      0.453026  
     106A      0.456336   107A      0.459170   108A      0.462280  
     109A      0.466164   110A      0.473304   111A      0.476789  
     112A      0.478132   113A      0.485764   114A      0.486767  
     115A      0.493315   116A      0.494646   117A      0.499332  
     118A      0.504614   119A      0.505896   120A      0.509182  
     121A      0.511592   122A      0.514586   123A      0.521345  
     124A      0.526101   125A      0.531223   126A      0.531772  
     127A      0.535951   128A      0.541702   129A      0.544192  
     130A      0.546810   131A      0.551042   132A      0.553982  
     133A      0.558877   134A      0.566706   135A      0.573147  
     136A      0.574394   137A      0.600993   138A      0.610424  
     139A      0.621624   140A      0.632278   141A      0.642361  
     142A      0.649131   143A      0.656212   144A      0.672658  
     145A      0.695206   146A      0.702127   147A      0.718170  
     148A      0.726250   149A      0.735261   150A      0.739893  
     151A      0.749157   152A      0.749711   153A      0.767648  
     154A      0.784481   155A      0.792198   156A      0.801243  
     157A      0.804415   158A      0.813554   159A      0.823986  
     160A      0.841642   161A      0.848217   162A      0.852695  
     163A      0.867437   164A      0.872251   165A      0.885797  
     166A      0.887548   167A      0.895434   168A      0.901624  
     169A      0.909859   170A      0.913861   171A      0.926161  
     172A      0.931197   173A      0.935413   174A      0.941004  
     175A      0.947541   176A      0.951735   177A      0.960086  
     178A      0.965496   179A      0.970957   180A      0.975979  
     181A      0.982296   182A      0.987365   183A      0.990679  
     184A      0.993606   185A      0.998314   186A      1.005069  
     187A      1.010752   188A      1.015800   189A      1.027234  
     190A      1.031932   191A      1.036241   192A      1.037821  
     193A      1.042773   194A      1.047894   195A      1.058271  
     196A      1.065633   197A      1.067634   198A      1.069158  
     199A      1.079171   200A      1.085461   201A      1.088117  
     202A      1.092875   203A      1.101544   204A      1.109525  
     205A      1.113048   206A      1.119681   207A      1.123269  
     208A      1.134954   209A      1.136912   210A      1.147479  
     211A      1.149423   212A      1.158382   213A      1.162377  
     214A      1.166037   215A      1.180542   216A      1.185273  
     217A      1.188562   218A      1.192398   219A      1.203037  
     220A      1.210996   221A      1.217314   222A      1.228909  
     223A      1.232032   224A      1.237700   225A      1.250592  
     226A      1.258729   227A      1.262068   228A      1.276188  
     229A      1.278462   230A      1.283808   231A      1.298906  
     232A      1.311348   233A      1.318895   234A      1.321209  
     235A      1.322828   236A      1.332304   237A      1.340376  
     238A      1.344237   239A      1.355820   240A      1.369926  
     241A      1.371149   242A      1.377096   243A      1.392373  
     244A      1.397693   245A      1.401509   246A      1.409129  
     247A      1.421346   248A      1.424144   249A      1.435172  
     250A      1.442746   251A      1.451839   252A      1.465392  
     253A      1.477944   254A      1.487807   255A      1.494029  
     256A      1.495838   257A      1.510076   258A      1.520944  
     259A      1.531523   260A      1.540311   261A      1.541925  
     262A      1.555562   263A      1.577360   264A      1.582648  
     265A      1.592505   266A      1.607805   267A      1.613294  
     268A      1.626024   269A      1.640671   270A      1.654425  
     271A      1.674908   272A      1.687845   273A      1.698886  
     274A      1.716668   275A      1.723925   276A      1.742420  
     277A      1.748687   278A      1.764353   279A      1.767298  
     280A      1.778663   281A      1.784846   282A      1.797369  
     283A      1.798299   284A      1.818034   285A      1.827638  
     286A      1.839035   287A      1.846340   288A      1.863681  
     289A      1.868647   290A      1.883101   291A      1.887671  
     292A      1.905287   293A      1.907655   294A      1.914632  
     295A      1.927517   296A      1.934982   297A      1.951790  
     298A      1.969279   299A      1.983521   300A      2.005272  
     301A      2.027405   302A      2.050013   303A      2.051541  
     304A      2.066346   305A      2.080080   306A      2.085989  
     307A      2.091047   308A      2.105817   309A      2.121222  
     310A      2.137164   311A      2.150636   312A      2.161181  
     313A      2.167140   314A      2.185812   315A      2.215043  
     316A      2.254123   317A      2.277870   318A      2.317203  
     319A      2.329122   320A      2.376235   321A      2.392385  
     322A      2.423810   323A      2.425211   324A      2.438581  
     325A      2.449784   326A      2.466505   327A      2.468134  
     328A      2.475603   329A      2.494854   330A      2.503104  
     331A      2.523395   332A      2.530106   333A      2.539684  
     334A      2.558115   335A      2.574863   336A      2.584427  
     337A      2.594237   338A      2.601735   339A      2.606347  
     340A      2.616296   341A      2.623059   342A      2.636595  
     343A      2.647190   344A      2.658383   345A      2.667241  
     346A      2.669393   347A      2.679731   348A      2.694305  
     349A      2.707491   350A      2.715701   351A      2.730859  
     352A      2.737889   353A      2.747854   354A      2.763211  
     355A      2.770138   356A      2.781941   357A      2.791257  
     358A      2.805915   359A      2.810775   360A      2.815542  
     361A      2.839437   362A      2.841766   363A      2.859446  
     364A      2.864096   365A      2.877549   366A      2.883705  
     367A      2.890865   368A      2.904168   369A      2.909074  
     370A      2.917209   371A      2.925853   372A      2.950232  
     373A      2.962931   374A      2.967817   375A      2.989369  
     376A      2.993235   377A      2.995893   378A      3.018848  
     379A      3.022969   380A      3.026129   381A      3.038256  
     382A      3.048870   383A      3.060577   384A      3.071883  
     385A      3.081758   386A      3.092899   387A      3.120499  
     388A      3.121700   389A      3.145228   390A      3.160068  
     391A      3.191604   392A      3.257532   393A      3.295071  
     394A      3.799113   395A      3.831316   396A      3.854455  
     397A      3.884419   398A      3.912191   399A      3.921965  
     400A      3.925061   401A      3.949036   402A      3.983190  
     403A      3.989504   404A      4.011483   405A      4.042180  
     406A      4.121769   407A      4.167037   408A      4.178224  
     409A      4.185047   410A      4.205547   411A      4.222506  
     412A      4.251653   413A      4.256348   414A      4.286453  
     415A      4.290464   416A      4.304287   417A      4.309485  
     418A      4.324152   419A      4.326638   420A      4.335881  
     421A      4.350328   422A      4.369752   423A      4.376248  
     424A      4.381426   425A      4.396011   426A      4.403829  
     427A      4.419188   428A      4.441115   429A      4.448377  
     430A      4.479550   431A      4.496937   432A      4.515088  
     433A      4.531827   434A      4.538051   435A      4.539146  
     436A      4.556494   437A      4.558061   438A      4.575985  
     439A      4.583573   440A      4.585781   441A      4.590975  
     442A      4.595254   443A      4.618868   444A      4.625641  
     445A      4.637666   446A      4.649827   447A      4.653662  
     448A      4.663009   449A      4.670155   450A      4.681803  
     451A      4.700495   452A      4.713702   453A      4.729145  
     454A      4.734580   455A      4.751276   456A      4.764365  
     457A      4.778882   458A      4.799871   459A      4.823436  
     460A      4.833669   461A      4.845701   462A      4.858773  
     463A      4.876457   464A      4.881114   465A      4.887974  
     466A      4.907857   467A      4.912447   468A      4.915612  
     469A      4.938625   470A      4.963620   471A      5.010005  
     472A      5.095591   473A      5.128281   474A      5.148501  
     475A      5.152649   476A      5.175650   477A      5.186206  
     478A      5.194026   479A      5.215617   480A      5.223590  
     481A      5.226132   482A      5.233692   483A      5.249085  
     484A      5.266452   485A      5.313312   486A      5.335430  
     487A      5.349241   488A      5.365083   489A      5.371075  
     490A      5.387384   491A      5.402432   492A      5.418812  
     493A      5.431599   494A      5.437234   495A      5.462011  
     496A      5.499530   497A      5.570135   498A      5.609187  
     499A      5.652209   500A      5.658189   501A      5.711218  
     502A      5.754476   503A      5.807435   504A      5.810091  
     505A      5.828268   506A      5.862078   507A      5.908093  
     508A      6.184366   509A      6.277759   510A      6.301927  
     511A      6.364912   512A      6.399566   513A      6.421949  
     514A      6.498015   515A      6.661284   516A      6.680038  
     517A      6.692695   518A      6.697787   519A      6.723439  
     520A      6.740625   521A      6.831313   522A      6.836175  
     523A      6.858644   524A      6.862988   525A      6.886104  
     526A      6.919665   527A      6.946850   528A      6.962435  
     529A      6.986988   530A      7.023707   531A      7.033510  
     532A      7.044067   533A      7.147749   534A      7.166434  
     535A      7.209290   536A      7.216220   537A      7.233411  
     538A      7.245834   539A      7.259992   540A      7.284825  
     541A      7.291083   542A      7.307215   543A      7.317318  
     544A      7.331484   545A      7.343144   546A      7.356709  
     547A      7.363547   548A      7.374511   549A      7.377195  
     550A      7.389344   551A      7.403370   552A      7.410298  
     553A      7.416699   554A      7.424709   555A      7.430030  
     556A      7.442476   557A      7.460696   558A      7.468560  
     559A      7.471879   560A      7.477628   561A      7.488276  
     562A      7.490880   563A      7.495830   564A      7.512541  
     565A      7.535957   566A      7.548725   567A      7.573159  
     568A      7.580931   569A      7.679895   570A      7.711577  
     571A      7.720302   572A      7.745301   573A      7.757180  
     574A      7.792819   575A      7.894149   576A      7.908750  
     577A      7.936249   578A      7.939391   579A      7.951477  
     580A      7.956155   581A      7.979987   582A      7.997337  
     583A      8.006964   584A      8.029117   585A      8.062187  
     586A      8.063123   587A      8.090373   588A      8.136430  
     589A      8.199009   590A      8.655295   591A      8.784364  
     592A      8.796162   593A      8.857809   594A      8.873676  
     595A      8.891539   596A     15.157955   597A     15.682572  
     598A     15.785574   599A     15.821653   600A     15.905619  
     601A     16.043268   602A     65.150784  

    Final Occupation by Irrep:
              A 
    DOCC [    30 ]
    NA   [    30 ]
    NB   [    30 ]

  @DF-RHF Final Energy:  -456.30819485015286

   => Energetics <=

    Nuclear Repulsion Energy =            271.4845359256283928
    One-Electron Energy =               -1173.1537426500060519
    Two-Electron Energy =                 445.3610118742248005
    Total Energy =                       -456.3081948501528586

Computation Completed


Properties will be evaluated at   0.000000,   0.000000,   0.000000 [a0]

Properties computed using the SCF density matrix


 Multipole Moments:

 ------------------------------------------------------------------------------------
     Multipole            Electronic (a.u.)      Nuclear  (a.u.)        Total (a.u.)
 ------------------------------------------------------------------------------------

 L = 1.  Multiply by 2.5417464519 to convert [e a0] to [Debye]
 Dipole X            :         11.5949886          -11.2841821            0.3108066
 Dipole Y            :         -5.3495173            6.4351278            1.0856105
 Dipole Z            :         -8.5104290            9.3108394            0.8004104
 Magnitude           :                                                    1.3841271

 ------------------------------------------------------------------------------------

*** tstop() called on moses-razer at Sun Jan  7 14:11:44 2024
Module time:
	user time   =     137.88 seconds =       2.30 minutes
	system time =       1.89 seconds =       0.03 minutes
	total time  =         25 seconds =       0.42 minutes
Total time:
	user time   =     366.50 seconds =       6.11 minutes
	system time =       7.84 seconds =       0.13 minutes
	total time  =         67 seconds =       1.12 minutes
  Constructing Basis Sets for SAPT...

   => Loading Basis Set <=

    Name: (AUG-CC-PVTZ AUX)
    Role: RIFIT
    Keyword: DF_BASIS_SAPT
    atoms 1                                   entry NA         line   610 file /home/kchung25/anaconda3/envs/p415env/share/psi4/basis/def2-qzvpp-ri.gbs 
    atoms 2, 5, 8, 11, 14, 17                 entry O          line   264 file /home/kchung25/anaconda3/envs/p415env/share/psi4/basis/aug-cc-pvtz-ri.gbs 
    atoms 3-4, 6-7, 9-10, 12-13, 15-16, 18-19 entry H          line    30 file /home/kchung25/anaconda3/envs/p415env/share/psi4/basis/aug-cc-pvtz-ri.gbs 

   => Loading Basis Set <=

    Name: (AUG-CC-PVTZ AUX)
    Role: JKFIT
    Keyword: DF_BASIS_ELST
    atoms 1                                   entry NA         line   498 file /home/kchung25/anaconda3/envs/p415env/share/psi4/basis/def2-universal-jkfit.gbs 
    atoms 2, 5, 8, 11, 14, 17                 entry O          line   286 file /home/kchung25/anaconda3/envs/p415env/share/psi4/basis/aug-cc-pvtz-jkfit.gbs 
    atoms 3-4, 6-7, 9-10, 12-13, 15-16, 18-19 entry H          line    70 file /home/kchung25/anaconda3/envs/p415env/share/psi4/basis/aug-cc-pvtz-jkfit.gbs 


  //>>>>>>>>>>>>>>>>>>>>>>>>>>>>>>>>>>>//
  //               SAPT2+              //
  //<<<<<<<<<<<<<<<<<<<<<<<<<<<<<<<<<<<//


*** tstart() called on moses-razer
*** at Sun Jan  7 14:11:44 2024

        SAPT2+  
    Ed Hohenstein
     6 June 2009

      Orbital Information
  --------------------------
    NSO        =       602
    NMO        =       602
    NRI        =      1354
    NOCC A     =         5
    NOCC B     =        30
    FOCC A     =         0
    FOCC B     =         0
    NVIR A     =       597
    NVIR B     =       572

    Estimated memory usage: 11559.1 MB

    Natural Orbital Cutoff:   1.000E-06
    Disp(T3) Truncation:            Yes
    CCD (vv|vv) Truncation:         Yes
    MBPT T2 Truncation:             Yes

    Monomer A: 576 virtual orbitals dropped
    Monomer B: 82 virtual orbitals dropped

    Elst10,r            =    -0.159033580524 [Eh]
    Exch10 (S^2)        =     0.043729500625 [Eh]
    Exch10              =     0.043786430121 [Eh]
    Ind20,r (A<-B)      =    -0.000213729675 [Eh]
    Ind20,r (B<-A)      =    -0.079141780325 [Eh]
    Ind20,r             =    -0.079355510000 [Eh]
    Exch-Ind20,r (A<-B) =     0.000208894734 [Eh]
    Exch-Ind20,r (B<-A) =     0.037050317272 [Eh]
    Exch-Ind20,r        =     0.037259212006 [Eh]
    Disp20              =    -0.004247638893 [Eh]
    Disp20 (NO)         =    -0.003769474069 [Eh]
    Exch-Disp20         =     0.000829566062 [Eh]
    Elst12,r            =     0.008541783576 [Eh]
    Exch11              =    -0.001119229888 [Eh]
    Exch12              =     0.006325713460 [Eh]
    Ind22               =    -0.012779037095 [Eh]
    Disp21              =    -0.000070377119 [Eh]
    Disp22 (SDQ)        =    -0.000280426037 [Eh]

    (i =   1 of  30)          1 seconds
    (i =   2 of  30)          1 seconds
    (i =   3 of  30)          1 seconds
    (i =   4 of  30)          1 seconds
    (i =   5 of  30)          1 seconds
    (i =   6 of  30)          1 seconds
    (i =   7 of  30)          2 seconds
    (i =   8 of  30)          2 seconds
    (i =   9 of  30)          2 seconds
    (i =  10 of  30)          2 seconds
    (i =  11 of  30)          2 seconds
    (i =  12 of  30)          2 seconds
    (i =  13 of  30)          3 seconds
    (i =  14 of  30)          3 seconds
    (i =  15 of  30)          3 seconds
    (i =  16 of  30)          3 seconds
    (i =  17 of  30)          3 seconds
    (i =  18 of  30)          3 seconds
    (i =  19 of  30)          3 seconds
    (i =  20 of  30)          4 seconds
    (i =  21 of  30)          4 seconds
    (i =  22 of  30)          4 seconds
    (i =  23 of  30)          4 seconds
    (i =  24 of  30)          4 seconds
    (i =  25 of  30)          4 seconds
    (i =  26 of  30)          5 seconds
    (i =  27 of  30)          5 seconds
    (i =  28 of  30)          5 seconds
    (i =  29 of  30)          5 seconds
    (i =  30 of  30)          5 seconds

    Disp220 (T)         =    -0.000135942859 [Eh]

    (i =   1 of   5)        146 seconds
    (i =   2 of   5)        293 seconds
    (i =   3 of   5)        436 seconds
    (i =   4 of   5)        581 seconds
    (i =   5 of   5)        725 seconds

    Disp202 (T)         =    -0.000243379720 [Eh]

    Disp22 (T)          =    -0.000379322580 [Eh]

    Est. Disp220 (T)    =    -0.000153187465 [Eh]
    Est. Disp202 (T)    =    -0.000274252892 [Eh]

    Est. Disp22 (T)     =    -0.000427440357 [Eh]

    SAPT Results 
  --------------------------------------------------------------------------------------------------------
    Electrostatics               -150.49179695 [mEh]     -94.43502831 [kcal/mol]    -395.11615845 [kJ/mol]
      Elst10,r                   -159.03358052 [mEh]     -99.79507843 [kcal/mol]    -417.54260814 [kJ/mol]
      Elst12,r                      8.54178358 [mEh]       5.36005012 [kcal/mol]      22.42644969 [kJ/mol]

    Exchange                       48.99291369 [mEh]      30.74351749 [kcal/mol]     128.63087718 [kJ/mol]
      Exch10                       43.78643012 [mEh]      27.47639972 [kcal/mol]     114.96125644 [kJ/mol]
      Exch10(S^2)                  43.72950063 [mEh]      27.44067593 [kcal/mol]     114.81178807 [kJ/mol]
      Exch11(S^2)                  -1.11922989 [mEh]      -0.70232736 [kcal/mol]      -2.93853767 [kJ/mol]
      Exch12(S^2)                   6.32571346 [mEh]       3.96944512 [kcal/mol]      16.60815840 [kJ/mol]

    Induction                     -46.40580097 [mEh]     -29.12007975 [kcal/mol]    -121.83841366 [kJ/mol]
      Ind20,r                     -79.35551000 [mEh]     -49.79633432 [kcal/mol]    -208.34786280 [kJ/mol]
      Ind22                       -12.77903710 [mEh]      -8.01896684 [kcal/mol]     -33.55135727 [kJ/mol]
      Exch-Ind20,r                 37.25921201 [mEh]      23.38050852 [kcal/mol]      97.82404764 [kJ/mol]
      Exch-Ind22                    6.00004779 [mEh]       3.76508683 [kcal/mol]      15.75312330 [kJ/mol]
      delta HF,r (2)                2.46948633 [mEh]       1.54962607 [kcal/mol]       6.48363547 [kJ/mol]

    Dispersion                     -4.19631635 [mEh]      -2.63322826 [kcal/mol]     -11.01742705 [kJ/mol]
      Disp20                       -4.24763889 [mEh]      -2.66543365 [kcal/mol]     -11.15217438 [kJ/mol]
      Disp21                       -0.07037712 [mEh]      -0.04416231 [kcal/mol]      -0.18477510 [kJ/mol]
      Disp22 (SDQ)                 -0.28042604 [mEh]      -0.17597000 [kcal/mol]      -0.73625846 [kJ/mol]
      Disp22 (T)                   -0.37932258 [mEh]      -0.23802851 [kcal/mol]      -0.99591130 [kJ/mol]
      Est. Disp22 (T)              -0.42744036 [mEh]      -0.26822287 [kcal/mol]      -1.12224450 [kJ/mol]
      Exch-Disp20                   0.82956606 [mEh]       0.52056056 [kcal/mol]       2.17802539 [kJ/mol]

  Total HF                       -154.87396207 [mEh]     -97.18487844 [kcal/mol]    -406.62153139 [kJ/mol]
  Total SAPT0                    -158.29203490 [mEh]     -99.32975152 [kcal/mol]    -415.59568037 [kJ/mol]
  Total SAPT2                    -151.32275706 [mEh]     -94.95646365 [kcal/mol]    -397.29784392 [kJ/mol]
  Total SAPT2+                   -152.10100057 [mEh]     -95.44481883 [kcal/mol]    -399.34112198 [kJ/mol]

  Special recipe for scaled SAPT0 (see Manual):
    Electrostatics sSAPT0        -159.03358052 [mEh]     -99.79507843 [kcal/mol]    -417.54260814 [kJ/mol]
    Exchange sSAPT0                43.78643012 [mEh]      27.47639972 [kcal/mol]     114.96125644 [kJ/mol]
    Induction sSAPT0              -39.48110380 [mEh]     -24.77476667 [kcal/mol]    -103.65762374 [kJ/mol]
    Dispersion sSAPT0              -3.41482869 [mEh]      -2.14283735 [kcal/mol]      -8.96563148 [kJ/mol]
  Total sSAPT0                   -158.14308289 [mEh]     -99.23628272 [kcal/mol]    -415.20460692 [kJ/mol]
  --------------------------------------------------------------------------------------------------------

*** tstop() called on moses-razer at Sun Jan  7 14:59:08 2024
Module time:
	user time   =   15031.22 seconds =     250.52 minutes
	system time =     122.00 seconds =       2.03 minutes
	total time  =       2844 seconds =      47.40 minutes
Total time:
	user time   =   15398.74 seconds =     256.65 minutes
	system time =     129.86 seconds =       2.16 minutes
	total time  =       2911 seconds =      48.52 minutes

    Psi4 stopped on: Sunday, 07 January 2024 02:59PM
    Psi4 wall time for execution: 0:48:30.92

*** Psi4 exiting successfully. Buy a developer a beer!
