
    -----------------------------------------------------------------------
          Psi4: An Open-Source Ab Initio Electronic Structure Package
                               Psi4 1.9 release

                         Git: Rev {} zzzzzzz 


    D. G. A. Smith, L. A. Burns, A. C. Simmonett, R. M. Parrish,
    M. C. Schieber, R. Galvelis, P. Kraus, H. Kruse, R. Di Remigio,
    A. Alenaizan, A. M. James, S. Lehtola, J. P. Misiewicz, M. Scheurer,
    R. A. Shaw, J. B. Schriber, Y. Xie, Z. L. Glick, D. A. Sirianni,
    J. S. O'Brien, J. M. Waldrop, A. Kumar, E. G. Hohenstein,
    B. P. Pritchard, B. R. Brooks, H. F. Schaefer III, A. Yu. Sokolov,
    K. Patkowski, A. E. DePrince III, U. Bozkaya, R. A. King,
    F. A. Evangelista, J. M. Turney, T. D. Crawford, C. D. Sherrill,
    J. Chem. Phys. 152(18) 184108 (2020). https://doi.org/10.1063/5.0006002

                            Additional Code Authors
    E. T. Seidl, C. L. Janssen, E. F. Valeev, M. L. Leininger,
    J. F. Gonthier, R. M. Richard, H. R. McAlexander, M. Saitow, X. Wang,
    P. Verma, M. H. Lechner, A. Jiang, S. Behnle, A. G. Heide,
    M. F. Herbst, and D. L. Poole

             Previous Authors, Complete List of Code Contributors,
                       and Citations for Specific Modules
    https://github.com/psi4/psi4/blob/master/codemeta.json
    https://github.com/psi4/psi4/graphs/contributors
    http://psicode.org/psi4manual/master/introduction.html#citing-psifour

    -----------------------------------------------------------------------


    Psi4 started on: Monday, 08 January 2024 04:02AM

    Process ID: 612892
    Host:       moses-razer
    PSIDATADIR: /home/kchung25/anaconda3/envs/psi4_19/share/psi4
    Memory:     500.0 MiB
    Threads:    6
    
  ==> Input File <==

--------------------------------------------------------------------------
MEMORY 60 GB

molecule dimer {
1 1
Na     0.000000     0.000000     0.000000
--
0 1
O     -1.724880    -1.271601     1.213900
H     -2.325128    -0.571095     1.379831
H     -2.168723    -1.746989     0.502293
O     -0.039054    -1.936295    -1.391128
H      0.391505    -2.720753    -1.100880
H      0.371378    -1.668308    -2.222008
O     -1.221731     2.060268    -0.618102
H     -2.197672     1.923654    -0.578974
H     -1.034113     2.478922     0.254269
O      2.170696    -1.419467     0.263194
H      2.386052    -0.539926    -0.129718
H      2.614810    -1.412889     1.118737
O      1.577504     0.614945    -1.358706
H      1.342517     0.541305    -2.293175
H      1.634371     1.604489    -1.284154
O      0.804081     0.832483     2.115286
H      0.484562     0.652400     2.977864
H      1.717967     0.859279     2.323688

units ang
no_reorient
no_com
symmetry c1
}

set {
basis        aug-cc-pVTZ
scf_type     df
}

energy("sapt2+")
--------------------------------------------------------------------------

  Memory set to  55.879 GiB by Python driver.

Scratch directory: /scratch/
   => Loading Basis Set <=

    Name: AUG-CC-PVTZ
    Role: ORBITAL
    Keyword: BASIS
    atoms 1                                   entry NA         line   469 file /home/kchung25/anaconda3/envs/p415env/share/psi4/basis/aug-cc-pvtz.gbs 
    atoms 2, 5, 8, 11, 14, 17                 entry O          line   331 file /home/kchung25/anaconda3/envs/p415env/share/psi4/basis/aug-cc-pvtz.gbs 
    atoms 3-4, 6-7, 9-10, 12-13, 15-16, 18-19 entry H          line    40 file /home/kchung25/anaconda3/envs/p415env/share/psi4/basis/aug-cc-pvtz.gbs 

   => Loading Basis Set <=

    Name: AUG-CC-PVTZ
    Role: ORBITAL
    Keyword: BASIS
    atoms 1                                   entry NA         line   469 file /home/kchung25/anaconda3/envs/p415env/share/psi4/basis/aug-cc-pvtz.gbs 
    atoms 2, 5, 8, 11, 14, 17                 entry O          line   331 file /home/kchung25/anaconda3/envs/p415env/share/psi4/basis/aug-cc-pvtz.gbs 
    atoms 3-4, 6-7, 9-10, 12-13, 15-16, 18-19 entry H          line    40 file /home/kchung25/anaconda3/envs/p415env/share/psi4/basis/aug-cc-pvtz.gbs 


  //>>>>>>>>>>>>>>>>>>>>>>>>>>>>>>>>>>>//
  //              Dimer HF             //
  //<<<<<<<<<<<<<<<<<<<<<<<<<<<<<<<<<<<//

   => Libint2 <=

    Primary   basis highest AM E, G, H:  5, 4, 3
    Auxiliary basis highest AM E, G, H:  6, 5, 4
    Onebody   basis highest AM E, G, H:  6, 5, 4
    Solid Harmonics ordering:            gaussian

*** tstart() called on moses-razer
*** at Mon Jan  8 04:02:02 2024

   => Loading Basis Set <=

    Name: AUG-CC-PVTZ
    Role: ORBITAL
    Keyword: BASIS
    atoms 1                                   entry NA         line   469 file /home/kchung25/anaconda3/envs/p415env/share/psi4/basis/aug-cc-pvtz.gbs 
    atoms 2, 5, 8, 11, 14, 17                 entry O          line   331 file /home/kchung25/anaconda3/envs/p415env/share/psi4/basis/aug-cc-pvtz.gbs 
    atoms 3-4, 6-7, 9-10, 12-13, 15-16, 18-19 entry H          line    40 file /home/kchung25/anaconda3/envs/p415env/share/psi4/basis/aug-cc-pvtz.gbs 


         ---------------------------------------------------------
                                   SCF
               by Justin Turney, Rob Parrish, Andy Simmonett
                          and Daniel G. A. Smith
                              RHF Reference
                        6 Threads,  57220 MiB Core
         ---------------------------------------------------------

  ==> Geometry <==

    Molecular point group: c1
    Full point group: C1

    Geometry (in Angstrom), charge = 1, multiplicity = 1:

       Center              X                  Y                   Z               Mass       
    ------------   -----------------  -----------------  -----------------  -----------------
         NA           0.000000000000     0.000000000000     0.000000000000    22.989769282000
         O           -1.724880000000    -1.271601000000     1.213900000000    15.994914619570
         H           -2.325128000000    -0.571095000000     1.379831000000     1.007825032230
         H           -2.168723000000    -1.746989000000     0.502293000000     1.007825032230
         O           -0.039054000000    -1.936295000000    -1.391128000000    15.994914619570
         H            0.391505000000    -2.720753000000    -1.100880000000     1.007825032230
         H            0.371378000000    -1.668308000000    -2.222008000000     1.007825032230
         O           -1.221731000000     2.060268000000    -0.618102000000    15.994914619570
         H           -2.197672000000     1.923654000000    -0.578974000000     1.007825032230
         H           -1.034113000000     2.478922000000     0.254269000000     1.007825032230
         O            2.170696000000    -1.419467000000     0.263194000000    15.994914619570
         H            2.386052000000    -0.539926000000    -0.129718000000     1.007825032230
         H            2.614810000000    -1.412889000000     1.118737000000     1.007825032230
         O            1.577504000000     0.614945000000    -1.358706000000    15.994914619570
         H            1.342517000000     0.541305000000    -2.293175000000     1.007825032230
         H            1.634371000000     1.604489000000    -1.284154000000     1.007825032230
         O            0.804081000000     0.832483000000     2.115286000000    15.994914619570
         H            0.484562000000     0.652400000000     2.977864000000     1.007825032230
         H            1.717967000000     0.859279000000     2.323688000000     1.007825032230

  Running in c1 symmetry.

  Rotational constants: A =      0.04311  B =      0.03700  C =      0.03546 [cm^-1]
  Rotational constants: A =   1292.28561  B =   1109.24398  C =   1063.00079 [MHz]
  Nuclear repulsion =  413.490303959983976

  Charge       = 1
  Multiplicity = 1
  Electrons    = 70
  Nalpha       = 35
  Nbeta        = 35

  ==> Algorithm <==

  SCF Algorithm Type is DF.
  DIIS enabled.
  MOM disabled.
  Fractional occupation disabled.
  Guess Type is SAD.
  Energy threshold   = 1.00e-08
  Density threshold  = 1.00e-08
  Integral threshold = 1.00e-12

  ==> Primary Basis <==

  Basis Set: AUG-CC-PVTZ
    Blend: AUG-CC-PVTZ
    Number of shells: 208
    Number of basis functions: 602
    Number of Cartesian functions: 689
    Spherical Harmonics?: true
    Max angular momentum: 3

   => Loading Basis Set <=

    Name: (AUG-CC-PVTZ AUX)
    Role: JKFIT
    Keyword: DF_BASIS_SCF
    atoms 1                                   entry NA         line   498 file /home/kchung25/anaconda3/envs/p415env/share/psi4/basis/def2-universal-jkfit.gbs 
    atoms 2, 5, 8, 11, 14, 17                 entry O          line   286 file /home/kchung25/anaconda3/envs/p415env/share/psi4/basis/aug-cc-pvtz-jkfit.gbs 
    atoms 3-4, 6-7, 9-10, 12-13, 15-16, 18-19 entry H          line    70 file /home/kchung25/anaconda3/envs/p415env/share/psi4/basis/aug-cc-pvtz-jkfit.gbs 

  ==> Integral Setup <==

  ==> DiskDFJK: Density-Fitted J/K Matrices <==

    J tasked:                  Yes
    K tasked:                  Yes
    wK tasked:                  No
    OpenMP threads:              6
    Integrals threads:           6
    Memory [MiB]:            42915
    Algorithm:                Core
    Integral Cache:           SAVE
    Schwarz Cutoff:          1E-12
    Fitting Condition:       1E-10

   => Auxiliary Basis Set <=

  Basis Set: (AUG-CC-PVTZ AUX)
    Blend: AUG-CC-PVTZ-JKFIT + DEF2-UNIVERSAL-JKFIT
    Number of shells: 382
    Number of basis functions: 1288
    Number of Cartesian functions: 1583
    Spherical Harmonics?: true
    Max angular momentum: 4

  Minimum eigenvalue in the overlap matrix is 1.5032502641E-05.
  Reciprocal condition number of the overlap matrix is 9.2790882759E-07.
    Using symmetric orthogonalization.

  ==> Pre-Iterations <==

  SCF Guess: Superposition of Atomic Densities via on-the-fly atomic UHF (no occupation information).

   -------------------------
    Irrep   Nso     Nmo    
   -------------------------
     A        602     602 
   -------------------------
    Total     602     602
   -------------------------

  ==> Iterations <==

                           Total Energy        Delta E     RMS |[F,P]|

   @DF-RHF iter SAD:  -615.18420427952640   -6.15184e+02   0.00000e+00 
   @DF-RHF iter   1:  -617.64490345606100   -2.46070e+00   1.88666e-03 ADIIS/DIIS
   @DF-RHF iter   2:  -617.97050742764509   -3.25604e-01   1.23141e-03 ADIIS/DIIS
   @DF-RHF iter   3:  -618.13967745990089   -1.69170e-01   9.33368e-05 DIIS
   @DF-RHF iter   4:  -618.14222728744687   -2.54983e-03   2.32780e-05 DIIS
   @DF-RHF iter   5:  -618.14238215613284   -1.54869e-04   7.51819e-06 DIIS
   @DF-RHF iter   6:  -618.14239780200626   -1.56459e-05   3.13202e-06 DIIS
   @DF-RHF iter   7:  -618.14240004415797   -2.24215e-06   5.79641e-07 DIIS
   @DF-RHF iter   8:  -618.14240019786473   -1.53707e-07   1.20300e-07 DIIS
   @DF-RHF iter   9:  -618.14240020312241   -5.25768e-09   3.89243e-08 DIIS
   @DF-RHF iter  10:  -618.14240020348211   -3.59705e-10   1.34807e-08 DIIS
   @DF-RHF iter  11:  -618.14240020352327   -4.11546e-11   3.19887e-09 DIIS
  Energy and wave function converged.


  ==> Post-Iterations <==

    Orbital Energies [Eh]
    ---------------------

    Doubly Occupied:                                                      

       1A    -40.547097     2A    -20.751116     3A    -20.737813  
       4A    -20.729044     5A    -20.712763     6A    -20.700330  
       7A    -20.687280     8A     -2.871689     9A     -1.600379  
      10A     -1.596650    11A     -1.595572    12A     -1.535022  
      13A     -1.532660    14A     -1.508615    15A     -1.507377  
      16A     -1.494038    17A     -1.468039    18A     -0.885647  
      19A     -0.879509    20A     -0.866121    21A     -0.864439  
      22A     -0.861355    23A     -0.854190    24A     -0.781493  
      25A     -0.771025    26A     -0.756924    27A     -0.742171  
      28A     -0.730212    29A     -0.717104    30A     -0.698031  
      31A     -0.684414    32A     -0.681100    33A     -0.662738  
      34A     -0.649381    35A     -0.630760  

    Virtual:                                                              

      36A     -0.094766    37A     -0.075763    38A     -0.073758  
      39A     -0.063662    40A     -0.046360    41A     -0.043445  
      42A     -0.042584    43A     -0.039853    44A     -0.037721  
      45A     -0.034096    46A     -0.029095    47A     -0.028478  
      48A     -0.021651    49A     -0.014853    50A     -0.011866  
      51A     -0.010119    52A     -0.006207    53A     -0.004559  
      54A     -0.001377    55A      0.003815    56A      0.012453  
      57A      0.019155    58A      0.020731    59A      0.023285  
      60A      0.027037    61A      0.042283    62A      0.045800  
      63A      0.053015    64A      0.060967    65A      0.064000  
      66A      0.069152    67A      0.071493    68A      0.079485  
      69A      0.083761    70A      0.086291    71A      0.089913  
      72A      0.095127    73A      0.097522    74A      0.100456  
      75A      0.104245    76A      0.110268    77A      0.117717  
      78A      0.119972    79A      0.122158    80A      0.127248  
      81A      0.133993    82A      0.137537    83A      0.143546  
      84A      0.148133    85A      0.156480    86A      0.162114  
      87A      0.165477    88A      0.169111    89A      0.174451  
      90A      0.180616    91A      0.184054    92A      0.190272  
      93A      0.195418    94A      0.202805    95A      0.209156  
      96A      0.212211    97A      0.216843    98A      0.225459  
      99A      0.238783   100A      0.252232   101A      0.257012  
     102A      0.263025   103A      0.270026   104A      0.279956  
     105A      0.286423   106A      0.296248   107A      0.300949  
     108A      0.305705   109A      0.308798   110A      0.313586  
     111A      0.317239   112A      0.320432   113A      0.324603  
     114A      0.331794   115A      0.332944   116A      0.334282  
     117A      0.341274   118A      0.346293   119A      0.348704  
     120A      0.353072   121A      0.357959   122A      0.359901  
     123A      0.361504   124A      0.366870   125A      0.373334  
     126A      0.374577   127A      0.381876   128A      0.382755  
     129A      0.385149   130A      0.390535   131A      0.392207  
     132A      0.397708   133A      0.401959   134A      0.406769  
     135A      0.410073   136A      0.415680   137A      0.420515  
     138A      0.426457   139A      0.432484   140A      0.435650  
     141A      0.444495   142A      0.445887   143A      0.452283  
     144A      0.458260   145A      0.459614   146A      0.471828  
     147A      0.477106   148A      0.485374   149A      0.502965  
     150A      0.516846   151A      0.528710   152A      0.542972  
     153A      0.550317   154A      0.554540   155A      0.565665  
     156A      0.579463   157A      0.594766   158A      0.598277  
     159A      0.602618   160A      0.605330   161A      0.619416  
     162A      0.632565   163A      0.638142   164A      0.643886  
     165A      0.653348   166A      0.668413   167A      0.670579  
     168A      0.678883   169A      0.688687   170A      0.694959  
     171A      0.704945   172A      0.717782   173A      0.720037  
     174A      0.725079   175A      0.735011   176A      0.748160  
     177A      0.755172   178A      0.757249   179A      0.766395  
     180A      0.770051   181A      0.773990   182A      0.791229  
     183A      0.792411   184A      0.797185   185A      0.807770  
     186A      0.812892   187A      0.816346   188A      0.831262  
     189A      0.835162   190A      0.840189   191A      0.844744  
     192A      0.852419   193A      0.859570   194A      0.863972  
     195A      0.866828   196A      0.872960   197A      0.876228  
     198A      0.884497   199A      0.889100   200A      0.890957  
     201A      0.902743   202A      0.908255   203A      0.912051  
     204A      0.920986   205A      0.923583   206A      0.930318  
     207A      0.931933   208A      0.940101   209A      0.945402  
     210A      0.955337   211A      0.958476   212A      0.959680  
     213A      0.970812   214A      0.973297   215A      0.980638  
     216A      0.986986   217A      0.990681   218A      0.998850  
     219A      1.004593   220A      1.009561   221A      1.017145  
     222A      1.024222   223A      1.036264   224A      1.042362  
     225A      1.045731   226A      1.058329   227A      1.062318  
     228A      1.066729   229A      1.076782   230A      1.077213  
     231A      1.088906   232A      1.102089   233A      1.103292  
     234A      1.109686   235A      1.120365   236A      1.121450  
     237A      1.134135   238A      1.145371   239A      1.150824  
     240A      1.156174   241A      1.170083   242A      1.178985  
     243A      1.181332   244A      1.185261   245A      1.197893  
     246A      1.202378   247A      1.212794   248A      1.220754  
     249A      1.222742   250A      1.232128   251A      1.237574  
     252A      1.241759   253A      1.262490   254A      1.264312  
     255A      1.272344   256A      1.294540   257A      1.299015  
     258A      1.304456   259A      1.307653   260A      1.314631  
     261A      1.322313   262A      1.336972   263A      1.345093  
     264A      1.348715   265A      1.371723   266A      1.385762  
     267A      1.390724   268A      1.407191   269A      1.417354  
     270A      1.425240   271A      1.429209   272A      1.450652  
     273A      1.453439   274A      1.472378   275A      1.481149  
     276A      1.496447   277A      1.499021   278A      1.504627  
     279A      1.513080   280A      1.529449   281A      1.540588  
     282A      1.554974   283A      1.581767   284A      1.590688  
     285A      1.604920   286A      1.617634   287A      1.625764  
     288A      1.631388   289A      1.645015   290A      1.662491  
     291A      1.686127   292A      1.694142   293A      1.705132  
     294A      1.710582   295A      1.725256   296A      1.726497  
     297A      1.734260   298A      1.753987   299A      1.770644  
     300A      1.777676   301A      1.788300   302A      1.792060  
     303A      1.805349   304A      1.824499   305A      1.837573  
     306A      1.872630   307A      1.881160   308A      1.900145  
     309A      1.910013   310A      1.919556   311A      1.937618  
     312A      1.957089   313A      1.965765   314A      1.970994  
     315A      1.983783   316A      1.996229   317A      2.014315  
     318A      2.015367   319A      2.068760   320A      2.076338  
     321A      2.106151   322A      2.124399   323A      2.155113  
     324A      2.177175   325A      2.184332   326A      2.225167  
     327A      2.239198   328A      2.257227   329A      2.262839  
     330A      2.269951   331A      2.282432   332A      2.288478  
     333A      2.311941   334A      2.324652   335A      2.334553  
     336A      2.343266   337A      2.359365   338A      2.363915  
     339A      2.387522   340A      2.391474   341A      2.402514  
     342A      2.415928   343A      2.427383   344A      2.435064  
     345A      2.443217   346A      2.452242   347A      2.457313  
     348A      2.470032   349A      2.486775   350A      2.499218  
     351A      2.510593   352A      2.519358   353A      2.521450  
     354A      2.523647   355A      2.548399   356A      2.552041  
     357A      2.564705   358A      2.576974   359A      2.579448  
     360A      2.595604   361A      2.616465   362A      2.621517  
     363A      2.626802   364A      2.633744   365A      2.647167  
     366A      2.656370   367A      2.667039   368A      2.676211  
     369A      2.679156   370A      2.689221   371A      2.700157  
     372A      2.712095   373A      2.716962   374A      2.721540  
     375A      2.742148   376A      2.751392   377A      2.760751  
     378A      2.776178   379A      2.786580   380A      2.800372  
     381A      2.807460   382A      2.812755   383A      2.819605  
     384A      2.835279   385A      2.838951   386A      2.859075  
     387A      2.881686   388A      2.886328   389A      2.900305  
     390A      2.912809   391A      2.923886   392A      2.946511  
     393A      2.968381   394A      2.985050   395A      2.998773  
     396A      3.073368   397A      3.097043   398A      3.523769  
     399A      3.647602   400A      3.671951   401A      3.703236  
     402A      3.741682   403A      3.749742   404A      3.771147  
     405A      3.794373   406A      3.830369   407A      3.851408  
     408A      3.877401   409A      3.902488   410A      3.960572  
     411A      3.982962   412A      4.013663   413A      4.022809  
     414A      4.045854   415A      4.055139   416A      4.074315  
     417A      4.090910   418A      4.094244   419A      4.113222  
     420A      4.124254   421A      4.136040   422A      4.155398  
     423A      4.171653   424A      4.189763   425A      4.194715  
     426A      4.198502   427A      4.207342   428A      4.213613  
     429A      4.241318   430A      4.247439   431A      4.258565  
     432A      4.276029   433A      4.296271   434A      4.309000  
     435A      4.330882   436A      4.348352   437A      4.353445  
     438A      4.369284   439A      4.376082   440A      4.388295  
     441A      4.397058   442A      4.402080   443A      4.406865  
     444A      4.421616   445A      4.437798   446A      4.443982  
     447A      4.448712   448A      4.460792   449A      4.466105  
     450A      4.480827   451A      4.485831   452A      4.498502  
     453A      4.511185   454A      4.526489   455A      4.532083  
     456A      4.542283   457A      4.565687   458A      4.574081  
     459A      4.587558   460A      4.613169   461A      4.631760  
     462A      4.641624   463A      4.648766   464A      4.666556  
     465A      4.701462   466A      4.723468   467A      4.754246  
     468A      4.760406   469A      4.781159   470A      4.797851  
     471A      4.822265   472A      4.837059   473A      4.848986  
     474A      4.875473   475A      4.885544   476A      4.938035  
     477A      4.964614   478A      4.974261   479A      4.997504  
     480A      5.017124   481A      5.055273   482A      5.070643  
     483A      5.096238   484A      5.101724   485A      5.117432  
     486A      5.118292   487A      5.132617   488A      5.142487  
     489A      5.162745   490A      5.174781   491A      5.196055  
     492A      5.211453   493A      5.226889   494A      5.244143  
     495A      5.275731   496A      5.308078   497A      5.325611  
     498A      5.336574   499A      5.359487   500A      5.400834  
     501A      5.414487   502A      5.457079   503A      5.474429  
     504A      5.511720   505A      5.528814   506A      5.548142  
     507A      5.578324   508A      5.655561   509A      5.673647  
     510A      5.687610   511A      5.766616   512A      5.853364  
     513A      6.160999   514A      6.195285   515A      6.236909  
     516A      6.259554   517A      6.286539   518A      6.371595  
     519A      6.436366   520A      6.470319   521A      6.479998  
     522A      6.506566   523A      6.529174   524A      6.589432  
     525A      6.621953   526A      6.656167   527A      6.672951  
     528A      6.701530   529A      6.736316   530A      6.777167  
     531A      6.799339   532A      6.853379   533A      6.880470  
     534A      6.896784   535A      6.960034   536A      6.969995  
     537A      7.005614   538A      7.042890   539A      7.063689  
     540A      7.081080   541A      7.090617   542A      7.105290  
     543A      7.106890   544A      7.125437   545A      7.144778  
     546A      7.155413   547A      7.180720   548A      7.190964  
     549A      7.204258   550A      7.222945   551A      7.229484  
     552A      7.240060   553A      7.244768   554A      7.257915  
     555A      7.266548   556A      7.268379   557A      7.275421  
     558A      7.279655   559A      7.284807   560A      7.303015  
     561A      7.305037   562A      7.318091   563A      7.328252  
     564A      7.341061   565A      7.349273   566A      7.363324  
     567A      7.373412   568A      7.387494   569A      7.413300  
     570A      7.424654   571A      7.462294   572A      7.468627  
     573A      7.539030   574A      7.563518   575A      7.600470  
     576A      7.623215   577A      7.626978   578A      7.654635  
     579A      7.701912   580A      7.709907   581A      7.715716  
     582A      7.772821   583A      7.811092   584A      7.865100  
     585A      7.912335   586A      7.928430   587A      7.943508  
     588A      7.953008   589A      7.959926   590A      8.015851  
     591A      8.617898   592A      8.709105   593A      8.734269  
     594A      8.803868   595A      8.854972   596A      8.919869  
     597A     15.295385   598A     15.986760   599A     16.212427  
     600A     16.458595   601A     16.564739   602A     16.893985  

    Final Occupation by Irrep:
              A 
    DOCC [    35 ]
    NA   [    35 ]
    NB   [    35 ]

  @DF-RHF Final Energy:  -618.14240020352327

   => Energetics <=

    Nuclear Repulsion Energy =            413.4903039599839758
    One-Electron Energy =               -1672.6812048942383626
    Two-Electron Energy =                 641.0485007307311207
    Total Energy =                       -618.1424002035232661

Computation Completed


Properties will be evaluated at   0.000000,   0.000000,   0.000000 [a0]

Properties computed using the SCF density matrix


 Multipole Moments:

 ------------------------------------------------------------------------------------
     Multipole            Electronic (a.u.)      Nuclear  (a.u.)        Total (a.u.)
 ------------------------------------------------------------------------------------

 L = 1.  Multiply by 2.5417464519 to convert [e a0] to [Debye]
 Dipole X            :        -29.6228460           29.7640444            0.1411984
 Dipole Y            :         19.1517840          -18.0605793            1.0912047
 Dipole Z            :         -4.9004037            5.1841329            0.2837293
 Magnitude           :                                                    1.1362953

 ------------------------------------------------------------------------------------

*** tstop() called on moses-razer at Mon Jan  8 04:02:31 2024
Module time:
	user time   =     164.07 seconds =       2.73 minutes
	system time =       4.74 seconds =       0.08 minutes
	total time  =         29 seconds =       0.48 minutes
Total time:
	user time   =     164.07 seconds =       2.73 minutes
	system time =       4.74 seconds =       0.08 minutes
	total time  =         29 seconds =       0.48 minutes

  //>>>>>>>>>>>>>>>>>>>>>>>>>>>>>>>>>>>//
  //            Monomer A HF           //
  //<<<<<<<<<<<<<<<<<<<<<<<<<<<<<<<<<<<//

   => Libint2 <=

    Primary   basis highest AM E, G, H:  5, 4, 3
    Auxiliary basis highest AM E, G, H:  6, 5, 4
    Onebody   basis highest AM E, G, H:  6, 5, 4
    Solid Harmonics ordering:            gaussian

*** tstart() called on moses-razer
*** at Mon Jan  8 04:02:31 2024

   => Loading Basis Set <=

    Name: AUG-CC-PVTZ
    Role: ORBITAL
    Keyword: BASIS
    atoms 1                                   entry NA         line   469 file /home/kchung25/anaconda3/envs/p415env/share/psi4/basis/aug-cc-pvtz.gbs 
    atoms 2, 5, 8, 11, 14, 17                 entry O          line   331 file /home/kchung25/anaconda3/envs/p415env/share/psi4/basis/aug-cc-pvtz.gbs 
    atoms 3-4, 6-7, 9-10, 12-13, 15-16, 18-19 entry H          line    40 file /home/kchung25/anaconda3/envs/p415env/share/psi4/basis/aug-cc-pvtz.gbs 


         ---------------------------------------------------------
                                   SCF
               by Justin Turney, Rob Parrish, Andy Simmonett
                          and Daniel G. A. Smith
                              RHF Reference
                        6 Threads,  57220 MiB Core
         ---------------------------------------------------------

  ==> Geometry <==

    Molecular point group: c1
    Full point group: C1

    Geometry (in Angstrom), charge = 1, multiplicity = 1:

       Center              X                  Y                   Z               Mass       
    ------------   -----------------  -----------------  -----------------  -----------------
         NA           0.000000000000     0.000000000000     0.000000000000    22.989769282000
      Gh(O)          -1.724880000000    -1.271601000000     1.213900000000    15.994914619570
      Gh(H)          -2.325128000000    -0.571095000000     1.379831000000     1.007825032230
      Gh(H)          -2.168723000000    -1.746989000000     0.502293000000     1.007825032230
      Gh(O)          -0.039054000000    -1.936295000000    -1.391128000000    15.994914619570
      Gh(H)           0.391505000000    -2.720753000000    -1.100880000000     1.007825032230
      Gh(H)           0.371378000000    -1.668308000000    -2.222008000000     1.007825032230
      Gh(O)          -1.221731000000     2.060268000000    -0.618102000000    15.994914619570
      Gh(H)          -2.197672000000     1.923654000000    -0.578974000000     1.007825032230
      Gh(H)          -1.034113000000     2.478922000000     0.254269000000     1.007825032230
      Gh(O)           2.170696000000    -1.419467000000     0.263194000000    15.994914619570
      Gh(H)           2.386052000000    -0.539926000000    -0.129718000000     1.007825032230
      Gh(H)           2.614810000000    -1.412889000000     1.118737000000     1.007825032230
      Gh(O)           1.577504000000     0.614945000000    -1.358706000000    15.994914619570
      Gh(H)           1.342517000000     0.541305000000    -2.293175000000     1.007825032230
      Gh(H)           1.634371000000     1.604489000000    -1.284154000000     1.007825032230
      Gh(O)           0.804081000000     0.832483000000     2.115286000000    15.994914619570
      Gh(H)           0.484562000000     0.652400000000     2.977864000000     1.007825032230
      Gh(H)           1.717967000000     0.859279000000     2.323688000000     1.007825032230

  Running in c1 symmetry.

  Rotational constants: A =      0.04311  B =      0.03700  C =      0.03546 [cm^-1]
  Rotational constants: A =   1292.28561  B =   1109.24398  C =   1063.00079 [MHz]
  Nuclear repulsion =    0.000000000000000

  Charge       = 1
  Multiplicity = 1
  Electrons    = 10
  Nalpha       = 5
  Nbeta        = 5

  ==> Algorithm <==

  SCF Algorithm Type is DF.
  DIIS enabled.
  MOM disabled.
  Fractional occupation disabled.
  Guess Type is SAD.
  Energy threshold   = 1.00e-08
  Density threshold  = 1.00e-08
  Integral threshold = 1.00e-12

  ==> Primary Basis <==

  Basis Set: AUG-CC-PVTZ
    Blend: AUG-CC-PVTZ
    Number of shells: 208
    Number of basis functions: 602
    Number of Cartesian functions: 689
    Spherical Harmonics?: true
    Max angular momentum: 3

   => Loading Basis Set <=

    Name: (AUG-CC-PVTZ AUX)
    Role: JKFIT
    Keyword: DF_BASIS_SCF
    atoms 1                                   entry NA         line   498 file /home/kchung25/anaconda3/envs/p415env/share/psi4/basis/def2-universal-jkfit.gbs 
    atoms 2, 5, 8, 11, 14, 17                 entry O          line   286 file /home/kchung25/anaconda3/envs/p415env/share/psi4/basis/aug-cc-pvtz-jkfit.gbs 
    atoms 3-4, 6-7, 9-10, 12-13, 15-16, 18-19 entry H          line    70 file /home/kchung25/anaconda3/envs/p415env/share/psi4/basis/aug-cc-pvtz-jkfit.gbs 

  ==> Integral Setup <==

  ==> DiskDFJK: Density-Fitted J/K Matrices <==

    J tasked:                  Yes
    K tasked:                  Yes
    wK tasked:                  No
    OpenMP threads:              6
    Integrals threads:           6
    Memory [MiB]:            42915
    Algorithm:                Core
    Integral Cache:           LOAD
    Schwarz Cutoff:          1E-12
    Fitting Condition:       1E-10

   => Auxiliary Basis Set <=

  Basis Set: (AUG-CC-PVTZ AUX)
    Blend: AUG-CC-PVTZ-JKFIT + DEF2-UNIVERSAL-JKFIT
    Number of shells: 382
    Number of basis functions: 1288
    Number of Cartesian functions: 1583
    Spherical Harmonics?: true
    Max angular momentum: 4

  Minimum eigenvalue in the overlap matrix is 1.5032502641E-05.
  Reciprocal condition number of the overlap matrix is 9.2790882759E-07.
    Using symmetric orthogonalization.

  ==> Pre-Iterations <==

  SCF Guess: Superposition of Atomic Densities via on-the-fly atomic UHF (no occupation information).

   -------------------------
    Irrep   Nso     Nmo    
   -------------------------
     A        602     602 
   -------------------------
    Total     602     602
   -------------------------

  ==> Iterations <==

                           Total Energy        Delta E     RMS |[F,P]|

   @DF-RHF iter SAD:  -161.74573887369192   -1.61746e+02   0.00000e+00 
   @DF-RHF iter   1:  -161.67607898312122    6.96599e-02   1.08529e-05 DIIS
   @DF-RHF iter   2:  -161.67609779869835   -1.88156e-05   1.97008e-06 DIIS
   @DF-RHF iter   3:  -161.67609831379761   -5.15099e-07   9.47123e-08 DIIS
   @DF-RHF iter   4:  -161.67609831467925   -8.81641e-10   1.46157e-08 DIIS
   @DF-RHF iter   5:  -161.67609831469784   -1.85878e-11   5.80042e-10 DIIS
  Energy and wave function converged.


  ==> Post-Iterations <==

    Orbital Energies [Eh]
    ---------------------

    Doubly Occupied:                                                      

       1A    -40.760405     2A     -3.073776     3A     -1.797139  
       4A     -1.797123     5A     -1.797108  

    Virtual:                                                              

       6A     -0.181803     7A     -0.109437     8A     -0.109434  
       9A     -0.109432    10A     -0.070088    11A     -0.052480  
      12A     -0.052290    13A     -0.051942    14A     -0.051691  
      15A     -0.051377    16A     -0.049398    17A     -0.049289  
      18A     -0.049226    19A     -0.027668    20A     -0.013949  
      21A     -0.012987    22A     -0.012766    23A     -0.012217  
      24A     -0.010688    25A     -0.009114    26A     -0.006568  
      27A     -0.004029    28A     -0.001574    29A     -0.000622  
      30A      0.010231    31A      0.013467    32A      0.015618  
      33A      0.019187    34A      0.024899    35A      0.027931  
      36A      0.036665    37A      0.038408    38A      0.040936  
      39A      0.048021    40A      0.063600    41A      0.070626  
      42A      0.073634    43A      0.078097    44A      0.079029  
      45A      0.081608    46A      0.085693    47A      0.089380  
      48A      0.092122    49A      0.099179    50A      0.100262  
      51A      0.104472    52A      0.107411    53A      0.113083  
      54A      0.118983    55A      0.132905    56A      0.134643  
      57A      0.137649    58A      0.147131    59A      0.148983  
      60A      0.156862    61A      0.171447    62A      0.179210  
      63A      0.181383    64A      0.186069    65A      0.187932  
      66A      0.196516    67A      0.199785    68A      0.202080  
      69A      0.212172    70A      0.217846    71A      0.225916  
      72A      0.232852    73A      0.239040    74A      0.240353  
      75A      0.242803    76A      0.251115    77A      0.255914  
      78A      0.257843    79A      0.266131    80A      0.271053  
      81A      0.274200    82A      0.281894    83A      0.284531  
      84A      0.290786    85A      0.292435    86A      0.298788  
      87A      0.305055    88A      0.310125    89A      0.311963  
      90A      0.316537    91A      0.320314    92A      0.325028  
      93A      0.331091    94A      0.336073    95A      0.342111  
      96A      0.343254    97A      0.345004    98A      0.348887  
      99A      0.357390   100A      0.362442   101A      0.368868  
     102A      0.371158   103A      0.377827   104A      0.382347  
     105A      0.389367   106A      0.392194   107A      0.401515  
     108A      0.408478   109A      0.414343   110A      0.418062  
     111A      0.423553   112A      0.429753   113A      0.434664  
     114A      0.441169   115A      0.447153   116A      0.457030  
     117A      0.462676   118A      0.471143   119A      0.474970  
     120A      0.484297   121A      0.495495   122A      0.509536  
     123A      0.517995   124A      0.534378   125A      0.548341  
     126A      0.556195   127A      0.562871   128A      0.574311  
     129A      0.578726   130A      0.588718   131A      0.599749  
     132A      0.602829   133A      0.607763   134A      0.611570  
     135A      0.620262   136A      0.635875   137A      0.648133  
     138A      0.650129   139A      0.656907   140A      0.661621  
     141A      0.669974   142A      0.675558   143A      0.686829  
     144A      0.689372   145A      0.705718   146A      0.715237  
     147A      0.719134   148A      0.726277   149A      0.735518  
     150A      0.740139   151A      0.745823   152A      0.749016  
     153A      0.753952   154A      0.760081   155A      0.766780  
     156A      0.776290   157A      0.783864   158A      0.790396  
     159A      0.800067   160A      0.804388   161A      0.808073  
     162A      0.813885   163A      0.821704   164A      0.836104  
     165A      0.837833   166A      0.845008   167A      0.847381  
     168A      0.857186   169A      0.859321   170A      0.873502  
     171A      0.878738   172A      0.882495   173A      0.888804  
     174A      0.895004   175A      0.897968   176A      0.907456  
     177A      0.915519   178A      0.923190   179A      0.927785  
     180A      0.928436   181A      0.942377   182A      0.946048  
     183A      0.957049   184A      0.961865   185A      0.968366  
     186A      0.973292   187A      0.974535   188A      0.977313  
     189A      0.987033   190A      0.995869   191A      0.999540  
     192A      1.003170   193A      1.018367   194A      1.021713  
     195A      1.027999   196A      1.032766   197A      1.049011  
     198A      1.053110   199A      1.065472   200A      1.070147  
     201A      1.077083   202A      1.085170   203A      1.087413  
     204A      1.097585   205A      1.109739   206A      1.112474  
     207A      1.117464   208A      1.127381   209A      1.136893  
     210A      1.140553   211A      1.150030   212A      1.152703  
     213A      1.154030   214A      1.167930   215A      1.177713  
     216A      1.184552   217A      1.189181   218A      1.206284  
     219A      1.209655   220A      1.225466   221A      1.234004  
     222A      1.235601   223A      1.241909   224A      1.248098  
     225A      1.255813   226A      1.267911   227A      1.281662  
     228A      1.283052   229A      1.290863   230A      1.293402  
     231A      1.302215   232A      1.312992   233A      1.321360  
     234A      1.335538   235A      1.341504   236A      1.349536  
     237A      1.353953   238A      1.365639   239A      1.375411  
     240A      1.394280   241A      1.399722   242A      1.418471  
     243A      1.423283   244A      1.427765   245A      1.452532  
     246A      1.462905   247A      1.471980   248A      1.472964  
     249A      1.505038   250A      1.506602   251A      1.510294  
     252A      1.534527   253A      1.540586   254A      1.555751  
     255A      1.570183   256A      1.589462   257A      1.608598  
     258A      1.610147   259A      1.641412   260A      1.652145  
     261A      1.660407   262A      1.670929   263A      1.673163  
     264A      1.708425   265A      1.713220   266A      1.718236  
     267A      1.723787   268A      1.742818   269A      1.752110  
     270A      1.758632   271A      1.768340   272A      1.775701  
     273A      1.778874   274A      1.790818   275A      1.799952  
     276A      1.805188   277A      1.821330   278A      1.828673  
     279A      1.845435   280A      1.863761   281A      1.877222  
     282A      1.883404   283A      1.895455   284A      1.898825  
     285A      1.907467   286A      1.922659   287A      1.936862  
     288A      1.956188   289A      1.966833   290A      1.981820  
     291A      1.983479   292A      2.007568   293A      2.027953  
     294A      2.054415   295A      2.126894   296A      2.263947  
     297A      2.290692   298A      2.296765   299A      2.303644  
     300A      2.315453   301A      2.332794   302A      2.343709  
     303A      2.356515   304A      2.374812   305A      2.379367  
     306A      2.399145   307A      2.409538   308A      2.418468  
     309A      2.425363   310A      2.442603   311A      2.453332  
     312A      2.456794   313A      2.473977   314A      2.479046  
     315A      2.484271   316A      2.492148   317A      2.497340  
     318A      2.515806   319A      2.534633   320A      2.539505  
     321A      2.555343   322A      2.563414   323A      2.588311  
     324A      2.595040   325A      2.603923   326A      2.616481  
     327A      2.620565   328A      2.644231   329A      2.664179  
     330A      2.677234   331A      2.698647   332A      2.705978  
     333A      2.714198   334A      2.719479   335A      2.737015  
     336A      2.749194   337A      2.758486   338A      2.782904  
     339A      2.794948   340A      2.821302   341A      2.828008  
     342A      2.838726   343A      2.848295   344A      2.862174  
     345A      2.898629   346A      2.927632   347A      2.934428  
     348A      2.961064   349A      2.991467   350A      3.002919  
     351A      3.033772   352A      3.046084   353A      3.053894  
     354A      3.059603   355A      3.075735   356A      3.085459  
     357A      3.101803   358A      3.123523   359A      3.135331  
     360A      3.138973   361A      3.151141   362A      3.162024  
     363A      3.164835   364A      3.182381   365A      3.193885  
     366A      3.205216   367A      3.213150   368A      3.228657  
     369A      3.244488   370A      3.245448   371A      3.252824  
     372A      3.264608   373A      3.272717   374A      3.284869  
     375A      3.303987   376A      3.317667   377A      3.336845  
     378A      3.373433   379A      3.406726   380A      3.444913  
     381A      3.483388   382A      3.488657   383A      3.502783  
     384A      3.551303   385A      3.565721   386A      3.591275  
     387A      3.620892   388A      3.625557   389A      3.642439  
     390A      3.677246   391A      3.747364   392A      3.789447  
     393A      4.261304   394A      4.276023   395A      4.290029  
     396A      4.308228   397A      4.323242   398A      4.345996  
     399A      4.355136   400A      4.359035   401A      4.376389  
     402A      4.403506   403A      4.414457   404A      4.429980  
     405A      4.440403   406A      4.458863   407A      4.463909  
     408A      4.468934   409A      4.474738   410A      4.491015  
     411A      4.502409   412A      4.512452   413A      4.536451  
     414A      4.565521   415A      4.574402   416A      4.577744  
     417A      4.590671   418A      4.600496   419A      4.605175  
     420A      4.626151   421A      4.640979   422A      4.654100  
     423A      4.676783   424A      4.690006   425A      4.720522  
     426A      4.740792   427A      4.770113   428A      4.809262  
     429A      4.836734   430A      4.841522   431A      4.846698  
     432A      4.875952   433A      4.882168   434A      4.893162  
     435A      4.900567   436A      4.935774   437A      4.951663  
     438A      4.965385   439A      4.976341   440A      4.979513  
     441A      5.001812   442A      5.017005   443A      5.040425  
     444A      5.044385   445A      5.081276   446A      5.099046  
     447A      5.112447   448A      5.125440   449A      5.148458  
     450A      5.160349   451A      5.188123   452A      5.265268  
     453A      5.310252   454A      5.358889   455A      5.376744  
     456A      5.394771   457A      5.400292   458A      5.430478  
     459A      5.439199   460A      5.452001   461A      5.478822  
     462A      5.498594   463A      5.511226   464A      5.546212  
     465A      5.562330   466A      5.576418   467A      5.589023  
     468A      5.609029   469A      5.634587   470A      5.654812  
     471A      5.726404   472A      5.740994   473A      5.821574  
     474A      5.830696   475A      5.849893   476A      5.892865  
     477A      6.039843   478A      6.084958   479A      6.107859  
     480A      6.148819   481A      6.154082   482A      6.173251  
     483A      6.219832   484A      6.269641   485A      6.287413  
     486A      6.305346   487A      6.337568   488A      6.369534  
     489A      6.389556   490A      6.529029   491A      6.536538  
     492A      6.624225   493A      6.670021   494A      6.691207  
     495A      6.787820   496A      6.854143   497A      6.946105  
     498A      6.966140   499A      7.016363   500A      7.050828  
     501A      7.513182   502A      7.546106   503A      7.557533  
     504A      7.571815   505A      7.612855   506A      7.655675  
     507A      7.670874   508A      7.692903   509A      7.722743  
     510A      7.732559   511A      7.794871   512A      7.843233  
     513A      7.878663   514A      7.897537   515A      7.913822  
     516A      7.922587   517A      7.943982   518A      7.950225  
     519A      7.961248   520A      7.975186   521A      7.986033  
     522A      8.001265   523A      8.025394   524A      8.083379  
     525A      8.098548   526A      8.111052   527A      8.160997  
     528A      8.186751   529A      8.191675   530A      8.212500  
     531A      8.415085   532A      8.506857   533A      8.565601  
     534A      8.626806   535A      8.634324   536A      8.652160  
     537A      8.669046   538A      8.685037   539A      8.700006  
     540A      8.723485   541A      8.737892   542A      8.847253  
     543A      9.650207   544A      9.697485   545A      9.715599  
     546A      9.753581   547A      9.764985   548A      9.775996  
     549A      9.791350   550A      9.810991   551A      9.815007  
     552A      9.830018   553A      9.832268   554A      9.844358  
     555A      9.855704   556A      9.876505   557A      9.890861  
     558A      9.898155   559A      9.923338   560A      9.934478  
     561A     10.033072   562A     10.041250   563A     10.047366  
     564A     10.068026   565A     10.111966   566A     10.191639  
     567A     10.896424   568A     10.951237   569A     10.989357  
     570A     11.059429   571A     11.120399   572A     11.278199  
     573A     11.641908   574A     11.696126   575A     11.708702  
     576A     11.730755   577A     11.771844   578A     11.779533  
     579A     11.864059   580A     11.967920   581A     12.150837  
     582A     12.184749   583A     12.212277   584A     12.358383  
     585A     13.298542   586A     13.392396   587A     13.432056  
     588A     13.532598   589A     13.577322   590A     13.652278  
     591A     13.688296   592A     13.757196   593A     13.785741  
     594A     13.802304   595A     13.834431   596A     13.856592  
     597A     64.042471   598A     65.292129   599A     65.977837  
     600A     66.149276   601A     66.326590   602A     66.991170  

    Final Occupation by Irrep:
              A 
    DOCC [     5 ]
    NA   [     5 ]
    NB   [     5 ]

  @DF-RHF Final Energy:  -161.67609831469784

   => Energetics <=

    Nuclear Repulsion Energy =              0.0000000000000000
    One-Electron Energy =                -224.9010944662896350
    Two-Electron Energy =                  63.2249961515917818
    Total Energy =                       -161.6760983146978674

Computation Completed


Properties will be evaluated at   0.000000,   0.000000,   0.000000 [a0]

Properties computed using the SCF density matrix


 Multipole Moments:

 ------------------------------------------------------------------------------------
     Multipole            Electronic (a.u.)      Nuclear  (a.u.)        Total (a.u.)
 ------------------------------------------------------------------------------------

 L = 1.  Multiply by 2.5417464519 to convert [e a0] to [Debye]
 Dipole X            :          0.0000306            0.0000000            0.0000306
 Dipole Y            :         -0.0000459            0.0000000           -0.0000459
 Dipole Z            :         -0.0000308            0.0000000           -0.0000308
 Magnitude           :                                                    0.0000632

 ------------------------------------------------------------------------------------

*** tstop() called on moses-razer at Mon Jan  8 04:02:43 2024
Module time:
	user time   =      60.44 seconds =       1.01 minutes
	system time =       1.16 seconds =       0.02 minutes
	total time  =         12 seconds =       0.20 minutes
Total time:
	user time   =     224.54 seconds =       3.74 minutes
	system time =       5.90 seconds =       0.10 minutes
	total time  =         41 seconds =       0.68 minutes

  //>>>>>>>>>>>>>>>>>>>>>>>>>>>>>>>>>>>//
  //            Monomer B HF           //
  //<<<<<<<<<<<<<<<<<<<<<<<<<<<<<<<<<<<//

   => Libint2 <=

    Primary   basis highest AM E, G, H:  5, 4, 3
    Auxiliary basis highest AM E, G, H:  6, 5, 4
    Onebody   basis highest AM E, G, H:  6, 5, 4
    Solid Harmonics ordering:            gaussian

*** tstart() called on moses-razer
*** at Mon Jan  8 04:02:43 2024

   => Loading Basis Set <=

    Name: AUG-CC-PVTZ
    Role: ORBITAL
    Keyword: BASIS
    atoms 1                                   entry NA         line   469 file /home/kchung25/anaconda3/envs/p415env/share/psi4/basis/aug-cc-pvtz.gbs 
    atoms 2, 5, 8, 11, 14, 17                 entry O          line   331 file /home/kchung25/anaconda3/envs/p415env/share/psi4/basis/aug-cc-pvtz.gbs 
    atoms 3-4, 6-7, 9-10, 12-13, 15-16, 18-19 entry H          line    40 file /home/kchung25/anaconda3/envs/p415env/share/psi4/basis/aug-cc-pvtz.gbs 


         ---------------------------------------------------------
                                   SCF
               by Justin Turney, Rob Parrish, Andy Simmonett
                          and Daniel G. A. Smith
                              RHF Reference
                        6 Threads,  57220 MiB Core
         ---------------------------------------------------------

  ==> Geometry <==

    Molecular point group: c1
    Full point group: C1

    Geometry (in Angstrom), charge = 0, multiplicity = 1:

       Center              X                  Y                   Z               Mass       
    ------------   -----------------  -----------------  -----------------  -----------------
      Gh(NA)          0.000000000000     0.000000000000     0.000000000000    22.989769282000
         O           -1.724880000000    -1.271601000000     1.213900000000    15.994914619570
         H           -2.325128000000    -0.571095000000     1.379831000000     1.007825032230
         H           -2.168723000000    -1.746989000000     0.502293000000     1.007825032230
         O           -0.039054000000    -1.936295000000    -1.391128000000    15.994914619570
         H            0.391505000000    -2.720753000000    -1.100880000000     1.007825032230
         H            0.371378000000    -1.668308000000    -2.222008000000     1.007825032230
         O           -1.221731000000     2.060268000000    -0.618102000000    15.994914619570
         H           -2.197672000000     1.923654000000    -0.578974000000     1.007825032230
         H           -1.034113000000     2.478922000000     0.254269000000     1.007825032230
         O            2.170696000000    -1.419467000000     0.263194000000    15.994914619570
         H            2.386052000000    -0.539926000000    -0.129718000000     1.007825032230
         H            2.614810000000    -1.412889000000     1.118737000000     1.007825032230
         O            1.577504000000     0.614945000000    -1.358706000000    15.994914619570
         H            1.342517000000     0.541305000000    -2.293175000000     1.007825032230
         H            1.634371000000     1.604489000000    -1.284154000000     1.007825032230
         O            0.804081000000     0.832483000000     2.115286000000    15.994914619570
         H            0.484562000000     0.652400000000     2.977864000000     1.007825032230
         H            1.717967000000     0.859279000000     2.323688000000     1.007825032230

  Running in c1 symmetry.

  Rotational constants: A =      0.04311  B =      0.03700  C =      0.03546 [cm^-1]
  Rotational constants: A =   1292.28561  B =   1109.24398  C =   1063.00079 [MHz]
  Nuclear repulsion =  272.894609297187628

  Charge       = 0
  Multiplicity = 1
  Electrons    = 60
  Nalpha       = 30
  Nbeta        = 30

  ==> Algorithm <==

  SCF Algorithm Type is DF.
  DIIS enabled.
  MOM disabled.
  Fractional occupation disabled.
  Guess Type is SAD.
  Energy threshold   = 1.00e-08
  Density threshold  = 1.00e-08
  Integral threshold = 1.00e-12

  ==> Primary Basis <==

  Basis Set: AUG-CC-PVTZ
    Blend: AUG-CC-PVTZ
    Number of shells: 208
    Number of basis functions: 602
    Number of Cartesian functions: 689
    Spherical Harmonics?: true
    Max angular momentum: 3

   => Loading Basis Set <=

    Name: (AUG-CC-PVTZ AUX)
    Role: JKFIT
    Keyword: DF_BASIS_SCF
    atoms 1                                   entry NA         line   498 file /home/kchung25/anaconda3/envs/p415env/share/psi4/basis/def2-universal-jkfit.gbs 
    atoms 2, 5, 8, 11, 14, 17                 entry O          line   286 file /home/kchung25/anaconda3/envs/p415env/share/psi4/basis/aug-cc-pvtz-jkfit.gbs 
    atoms 3-4, 6-7, 9-10, 12-13, 15-16, 18-19 entry H          line    70 file /home/kchung25/anaconda3/envs/p415env/share/psi4/basis/aug-cc-pvtz-jkfit.gbs 

  ==> Integral Setup <==

  ==> DiskDFJK: Density-Fitted J/K Matrices <==

    J tasked:                  Yes
    K tasked:                  Yes
    wK tasked:                  No
    OpenMP threads:              6
    Integrals threads:           6
    Memory [MiB]:            42915
    Algorithm:                Core
    Integral Cache:           LOAD
    Schwarz Cutoff:          1E-12
    Fitting Condition:       1E-10

   => Auxiliary Basis Set <=

  Basis Set: (AUG-CC-PVTZ AUX)
    Blend: AUG-CC-PVTZ-JKFIT + DEF2-UNIVERSAL-JKFIT
    Number of shells: 382
    Number of basis functions: 1288
    Number of Cartesian functions: 1583
    Spherical Harmonics?: true
    Max angular momentum: 4

  Minimum eigenvalue in the overlap matrix is 1.5032502641E-05.
  Reciprocal condition number of the overlap matrix is 9.2790882759E-07.
    Using symmetric orthogonalization.

  ==> Pre-Iterations <==

  SCF Guess: Superposition of Atomic Densities via on-the-fly atomic UHF (no occupation information).

   -------------------------
    Irrep   Nso     Nmo    
   -------------------------
     A        602     602 
   -------------------------
    Total     602     602
   -------------------------

  ==> Iterations <==

                           Total Energy        Delta E     RMS |[F,P]|

   @DF-RHF iter SAD:  -453.07430548930211   -4.53074e+02   0.00000e+00 
   @DF-RHF iter   1:  -455.81910808705891   -2.74480e+00   1.90047e-03 ADIIS/DIIS
   @DF-RHF iter   2:  -456.13628547335418   -3.17177e-01   1.30800e-03 ADIIS/DIIS
   @DF-RHF iter   3:  -456.33118625747051   -1.94901e-01   9.28439e-05 DIIS
   @DF-RHF iter   4:  -456.33385300678157   -2.66675e-03   2.24890e-05 DIIS
   @DF-RHF iter   5:  -456.33401757312708   -1.64566e-04   6.51443e-06 DIIS
   @DF-RHF iter   6:  -456.33403294409135   -1.53710e-05   2.93844e-06 DIIS
   @DF-RHF iter   7:  -456.33403484681969   -1.90273e-06   6.51055e-07 DIIS
   @DF-RHF iter   8:  -456.33403504540229   -1.98583e-07   1.25483e-07 DIIS
   @DF-RHF iter   9:  -456.33403505219553   -6.79324e-09   3.84081e-08 DIIS
   @DF-RHF iter  10:  -456.33403505259218   -3.96653e-10   1.43118e-08 DIIS
   @DF-RHF iter  11:  -456.33403505263720   -4.50200e-11   3.79596e-09 DIIS
  Energy and wave function converged.


  ==> Post-Iterations <==

    Orbital Energies [Eh]
    ---------------------

    Doubly Occupied:                                                      

       1A    -20.560736     2A    -20.556338     3A    -20.550889  
       4A    -20.530292     5A    -20.518978     6A    -20.512288  
       7A     -1.354698     8A     -1.338694     9A     -1.324570  
      10A     -1.322875    11A     -1.309821    12A     -1.290384  
      13A     -0.700315    14A     -0.692578    15A     -0.682501  
      16A     -0.681075    17A     -0.677555    18A     -0.670268  
      19A     -0.586686    20A     -0.575575    21A     -0.568519  
      22A     -0.554658    23A     -0.538262    24A     -0.531764  
      25A     -0.501851    26A     -0.498370    27A     -0.490466  
      28A     -0.472823    29A     -0.461952    30A     -0.449285  

    Virtual:                                                              

      31A      0.008086    32A      0.015832    33A      0.016126  
      34A      0.020249    35A      0.043737    36A      0.050637  
      37A      0.052437    38A      0.053415    39A      0.055763  
      40A      0.058099    41A      0.062723    42A      0.065993  
      43A      0.069461    44A      0.077268    45A      0.080849  
      46A      0.082384    47A      0.086425    48A      0.088971  
      49A      0.092468    50A      0.101456    51A      0.107444  
      52A      0.114167    53A      0.119109    54A      0.122521  
      55A      0.125677    56A      0.158524    57A      0.161000  
      58A      0.171057    59A      0.176600    60A      0.181381  
      61A      0.186292    62A      0.190730    63A      0.197407  
      64A      0.200512    65A      0.204906    66A      0.209475  
      67A      0.212105    68A      0.216749    69A      0.218991  
      70A      0.222263    71A      0.227732    72A      0.235476  
      73A      0.236800    74A      0.246346    75A      0.252578  
      76A      0.261285    77A      0.269504    78A      0.272656  
      79A      0.280083    80A      0.282987    81A      0.291113  
      82A      0.292881    83A      0.301450    84A      0.308529  
      85A      0.311502    86A      0.318526    87A      0.328525  
      88A      0.337468    89A      0.342454    90A      0.349326  
      91A      0.351446    92A      0.364664    93A      0.367236  
      94A      0.381384    95A      0.391137    96A      0.395086  
      97A      0.405149    98A      0.408911    99A      0.415256  
     100A      0.419918   101A      0.431263   102A      0.434414  
     103A      0.438476   104A      0.445489   105A      0.449714  
     106A      0.454568   107A      0.455609   108A      0.461624  
     109A      0.467719   110A      0.473458   111A      0.473935  
     112A      0.480584   113A      0.483277   114A      0.487817  
     115A      0.488909   116A      0.493814   117A      0.497590  
     118A      0.503065   119A      0.505453   120A      0.511047  
     121A      0.516771   122A      0.520807   123A      0.522634  
     124A      0.526672   125A      0.531474   126A      0.538532  
     127A      0.542352   128A      0.543458   129A      0.548931  
     130A      0.556179   131A      0.560606   132A      0.566818  
     133A      0.570164   134A      0.577054   135A      0.583803  
     136A      0.588026   137A      0.592048   138A      0.609005  
     139A      0.610416   140A      0.624378   141A      0.634367  
     142A      0.645432   143A      0.653072   144A      0.668137  
     145A      0.686626   146A      0.704938   147A      0.715122  
     148A      0.722998   149A      0.724462   150A      0.736991  
     151A      0.751035   152A      0.757697   153A      0.761161  
     154A      0.772750   155A      0.777513   156A      0.781589  
     157A      0.801831   158A      0.808291   159A      0.816205  
     160A      0.824277   161A      0.834244   162A      0.846514  
     163A      0.855303   164A      0.867399   165A      0.872384  
     166A      0.884570   167A      0.887619   168A      0.898887  
     169A      0.900965   170A      0.911181   171A      0.915704  
     172A      0.923240   173A      0.926382   174A      0.938733  
     175A      0.940290   176A      0.946248   177A      0.957437  
     178A      0.963968   179A      0.971047   180A      0.974217  
     181A      0.976098   182A      0.982841   183A      0.994325  
     184A      0.999989   185A      1.004505   186A      1.010491  
     187A      1.011059   188A      1.016653   189A      1.021883  
     190A      1.026024   191A      1.032537   192A      1.044090  
     193A      1.050867   194A      1.054031   195A      1.054340  
     196A      1.057750   197A      1.067787   198A      1.074125  
     199A      1.080243   200A      1.089647   201A      1.092927  
     202A      1.098055   203A      1.103452   204A      1.110555  
     205A      1.113932   206A      1.123459   207A      1.130805  
     208A      1.140331   209A      1.143519   210A      1.145993  
     211A      1.148719   212A      1.156931   213A      1.161703  
     214A      1.166754   215A      1.173916   216A      1.185104  
     217A      1.191718   218A      1.194645   219A      1.209537  
     220A      1.209768   221A      1.221458   222A      1.226967  
     223A      1.231047   224A      1.236826   225A      1.245988  
     226A      1.253351   227A      1.260637   228A      1.267598  
     229A      1.275195   230A      1.285298   231A      1.295474  
     232A      1.304749   233A      1.310129   234A      1.317099  
     235A      1.323740   236A      1.334198   237A      1.342389  
     238A      1.347778   239A      1.356077   240A      1.364006  
     241A      1.373858   242A      1.376141   243A      1.383638  
     244A      1.399533   245A      1.405880   246A      1.411739  
     247A      1.420547   248A      1.435461   249A      1.438836  
     250A      1.452059   251A      1.461170   252A      1.468269  
     253A      1.474508   254A      1.483968   255A      1.492157  
     256A      1.502096   257A      1.508146   258A      1.520859  
     259A      1.531065   260A      1.555257   261A      1.558796  
     262A      1.574305   263A      1.576429   264A      1.591628  
     265A      1.609499   266A      1.613162   267A      1.625164  
     268A      1.647458   269A      1.655767   270A      1.664896  
     271A      1.667550   272A      1.678356   273A      1.687556  
     274A      1.691718   275A      1.702877   276A      1.713994  
     277A      1.745168   278A      1.749644   279A      1.779139  
     280A      1.782932   281A      1.791930   282A      1.797576  
     283A      1.817587   284A      1.821383   285A      1.839618  
     286A      1.862272   287A      1.867568   288A      1.873362  
     289A      1.877708   290A      1.890505   291A      1.895766  
     292A      1.907922   293A      1.920846   294A      1.941759  
     295A      1.947641   296A      1.962480   297A      1.972688  
     298A      1.975879   299A      2.009695   300A      2.010270  
     301A      2.034251   302A      2.055548   303A      2.059537  
     304A      2.084513   305A      2.098976   306A      2.122320  
     307A      2.127419   308A      2.132475   309A      2.144834  
     310A      2.158164   311A      2.177818   312A      2.188790  
     313A      2.201307   314A      2.233179   315A      2.253804  
     316A      2.287758   317A      2.307321   318A      2.325585  
     319A      2.356241   320A      2.364658   321A      2.415133  
     322A      2.417411   323A      2.435405   324A      2.444431  
     325A      2.455029   326A      2.459460   327A      2.477977  
     328A      2.486903   329A      2.499374   330A      2.515587  
     331A      2.527491   332A      2.547219   333A      2.549550  
     334A      2.556956   335A      2.579175   336A      2.581299  
     337A      2.593439   338A      2.602583   339A      2.617373  
     340A      2.628290   341A      2.638478   342A      2.650899  
     343A      2.657504   344A      2.661918   345A      2.677256  
     346A      2.690544   347A      2.699460   348A      2.704541  
     349A      2.708841   350A      2.726866   351A      2.736272  
     352A      2.743967   353A      2.748004   354A      2.761769  
     355A      2.769455   356A      2.784972   357A      2.801104  
     358A      2.814628   359A      2.822818   360A      2.824260  
     361A      2.835550   362A      2.844608   363A      2.850055  
     364A      2.864875   365A      2.872298   366A      2.881316  
     367A      2.884852   368A      2.897817   369A      2.902846  
     370A      2.914761   371A      2.935051   372A      2.942293  
     373A      2.946622   374A      2.963888   375A      2.976895  
     376A      2.989834   377A      2.993536   378A      2.997184  
     379A      3.010894   380A      3.019133   381A      3.034641  
     382A      3.045248   383A      3.084201   384A      3.093634  
     385A      3.097188   386A      3.113773   387A      3.135046  
     388A      3.154878   389A      3.164672   390A      3.173664  
     391A      3.190551   392A      3.268377   393A      3.277495  
     394A      3.824406   395A      3.844185   396A      3.880916  
     397A      3.912469   398A      3.918917   399A      3.945382  
     400A      3.971768   401A      4.011613   402A      4.021947  
     403A      4.048491   404A      4.057573   405A      4.134407  
     406A      4.157256   407A      4.186052   408A      4.199448  
     409A      4.215339   410A      4.229036   411A      4.248036  
     412A      4.264295   413A      4.270255   414A      4.287532  
     415A      4.296929   416A      4.306830   417A      4.336131  
     418A      4.343997   419A      4.361062   420A      4.366584  
     421A      4.376376   422A      4.384181   423A      4.393634  
     424A      4.412177   425A      4.420032   426A      4.433567  
     427A      4.451783   428A      4.469239   429A      4.475560  
     430A      4.486993   431A      4.509810   432A      4.530557  
     433A      4.535170   434A      4.548889   435A      4.551242  
     436A      4.564873   437A      4.576786   438A      4.584326  
     439A      4.596782   440A      4.614226   441A      4.618842  
     442A      4.622626   443A      4.631000   444A      4.638439  
     445A      4.649960   446A      4.660334   447A      4.671192  
     448A      4.681415   449A      4.698551   450A      4.703021  
     451A      4.715519   452A      4.725505   453A      4.744042  
     454A      4.752605   455A      4.762859   456A      4.806839  
     457A      4.818899   458A      4.831219   459A      4.835818  
     460A      4.853244   461A      4.901262   462A      4.927386  
     463A      4.933784   464A      4.950789   465A      4.962871  
     466A      4.977095   467A      5.013615   468A      5.019475  
     469A      5.044846   470A      5.055633   471A      5.112524  
     472A      5.146184   473A      5.157565   474A      5.171898  
     475A      5.197853   476A      5.225502   477A      5.250640  
     478A      5.274960   479A      5.280791   480A      5.291913  
     481A      5.298995   482A      5.309646   483A      5.319706  
     484A      5.339534   485A      5.351267   486A      5.374474  
     487A      5.383315   488A      5.399232   489A      5.423352  
     490A      5.453380   491A      5.490687   492A      5.505257  
     493A      5.516598   494A      5.532599   495A      5.576974  
     496A      5.585212   497A      5.626251   498A      5.653722  
     499A      5.688837   500A      5.709651   501A      5.713011  
     502A      5.756357   503A      5.813025   504A      5.844287  
     505A      5.860647   506A      5.942072   507A      6.032304  
     508A      6.293615   509A      6.334222   510A      6.390565  
     511A      6.395925   512A      6.462093   513A      6.493361  
     514A      6.568675   515A      6.618443   516A      6.655449  
     517A      6.661499   518A      6.691301   519A      6.717035  
     520A      6.773032   521A      6.808527   522A      6.841300  
     523A      6.858989   524A      6.876215   525A      6.918188  
     526A      6.959445   527A      6.983908   528A      7.039732  
     529A      7.064049   530A      7.079616   531A      7.116302  
     532A      7.150218   533A      7.184249   534A      7.202786  
     535A      7.232431   536A      7.243628   537A      7.277639  
     538A      7.282395   539A      7.290624   540A      7.302809  
     541A      7.315988   542A      7.325838   543A      7.332837  
     544A      7.361389   545A      7.377498   546A      7.384737  
     547A      7.402018   548A      7.405867   549A      7.415565  
     550A      7.427555   551A      7.432679   552A      7.444839  
     553A      7.452748   554A      7.456853   555A      7.464345  
     556A      7.478331   557A      7.483194   558A      7.489194  
     559A      7.500488   560A      7.513106   561A      7.522414  
     562A      7.532526   563A      7.544670   564A      7.555168  
     565A      7.572363   566A      7.603172   567A      7.627408  
     568A      7.648851   569A      7.684372   570A      7.699272  
     571A      7.734170   572A      7.783200   573A      7.798917  
     574A      7.829112   575A      7.844553   576A      7.881574  
     577A      7.884945   578A      7.899477   579A      7.935436  
     580A      7.958645   581A      7.998085   582A      8.050132  
     583A      8.095203   584A      8.106846   585A      8.126629  
     586A      8.133760   587A      8.147989   588A      8.195266  
     589A      8.264252   590A      8.798736   591A      8.900650  
     592A      8.912050   593A      8.987536   594A      9.037652  
     595A      9.100092   596A     15.480577   597A     16.167802  
     598A     16.406889   599A     16.643404   600A     16.751078  
     601A     17.072181   602A     65.147249  

    Final Occupation by Irrep:
              A 
    DOCC [    30 ]
    NA   [    30 ]
    NB   [    30 ]

  @DF-RHF Final Energy:  -456.33403505263720

   => Energetics <=

    Nuclear Repulsion Energy =            272.8946092971876283
    One-Electron Energy =               -1175.4471526888910375
    Two-Electron Energy =                 446.2185083390662612
    Total Energy =                       -456.3340350526372049

Computation Completed


Properties will be evaluated at   0.000000,   0.000000,   0.000000 [a0]

Properties computed using the SCF density matrix


 Multipole Moments:

 ------------------------------------------------------------------------------------
     Multipole            Electronic (a.u.)      Nuclear  (a.u.)        Total (a.u.)
 ------------------------------------------------------------------------------------

 L = 1.  Multiply by 2.5417464519 to convert [e a0] to [Debye]
 Dipole X            :        -29.7676116           29.7640444           -0.0035672
 Dipole Y            :         19.2197291          -18.0605793            1.1591497
 Dipole Z            :         -4.9154326            5.1841329            0.2687003
 Magnitude           :                                                    1.1898910

 ------------------------------------------------------------------------------------

*** tstop() called on moses-razer at Mon Jan  8 04:03:07 2024
Module time:
	user time   =     130.44 seconds =       2.17 minutes
	system time =       1.75 seconds =       0.03 minutes
	total time  =         24 seconds =       0.40 minutes
Total time:
	user time   =     355.01 seconds =       5.92 minutes
	system time =       7.65 seconds =       0.13 minutes
	total time  =         65 seconds =       1.08 minutes
  Constructing Basis Sets for SAPT...

   => Loading Basis Set <=

    Name: (AUG-CC-PVTZ AUX)
    Role: RIFIT
    Keyword: DF_BASIS_SAPT
    atoms 1                                   entry NA         line   610 file /home/kchung25/anaconda3/envs/p415env/share/psi4/basis/def2-qzvpp-ri.gbs 
    atoms 2, 5, 8, 11, 14, 17                 entry O          line   264 file /home/kchung25/anaconda3/envs/p415env/share/psi4/basis/aug-cc-pvtz-ri.gbs 
    atoms 3-4, 6-7, 9-10, 12-13, 15-16, 18-19 entry H          line    30 file /home/kchung25/anaconda3/envs/p415env/share/psi4/basis/aug-cc-pvtz-ri.gbs 

   => Loading Basis Set <=

    Name: (AUG-CC-PVTZ AUX)
    Role: JKFIT
    Keyword: DF_BASIS_ELST
    atoms 1                                   entry NA         line   498 file /home/kchung25/anaconda3/envs/p415env/share/psi4/basis/def2-universal-jkfit.gbs 
    atoms 2, 5, 8, 11, 14, 17                 entry O          line   286 file /home/kchung25/anaconda3/envs/p415env/share/psi4/basis/aug-cc-pvtz-jkfit.gbs 
    atoms 3-4, 6-7, 9-10, 12-13, 15-16, 18-19 entry H          line    70 file /home/kchung25/anaconda3/envs/p415env/share/psi4/basis/aug-cc-pvtz-jkfit.gbs 


  //>>>>>>>>>>>>>>>>>>>>>>>>>>>>>>>>>>>//
  //               SAPT2+              //
  //<<<<<<<<<<<<<<<<<<<<<<<<<<<<<<<<<<<//


*** tstart() called on moses-razer
*** at Mon Jan  8 04:03:07 2024

        SAPT2+  
    Ed Hohenstein
     6 June 2009

      Orbital Information
  --------------------------
    NSO        =       602
    NMO        =       602
    NRI        =      1354
    NOCC A     =         5
    NOCC B     =        30
    FOCC A     =         0
    FOCC B     =         0
    NVIR A     =       597
    NVIR B     =       572

    Estimated memory usage: 11559.1 MB

    Natural Orbital Cutoff:   1.000E-06
    Disp(T3) Truncation:            Yes
    CCD (vv|vv) Truncation:         Yes
    MBPT T2 Truncation:             Yes

    Monomer A: 577 virtual orbitals dropped
    Monomer B: 84 virtual orbitals dropped

    Elst10,r            =    -0.133802074664 [Eh]
    Exch10 (S^2)        =     0.038453285634 [Eh]
    Exch10              =     0.038522132521 [Eh]
    Ind20,r (A<-B)      =    -0.000220028285 [Eh]
    Ind20,r (B<-A)      =    -0.072895185455 [Eh]
    Ind20,r             =    -0.073115213739 [Eh]
    Exch-Ind20,r (A<-B) =     0.000177264902 [Eh]
    Exch-Ind20,r (B<-A) =     0.033793991151 [Eh]
    Exch-Ind20,r        =     0.033971256053 [Eh]
    Disp20              =    -0.003855875444 [Eh]
    Disp20 (NO)         =    -0.003447125982 [Eh]
    Exch-Disp20         =     0.000708407439 [Eh]
    Elst12,r            =     0.005946553762 [Eh]
    Exch11              =    -0.000919026557 [Eh]
    Exch12              =     0.005892318705 [Eh]
    Ind22               =    -0.011981290195 [Eh]
    Disp21              =    -0.000083636763 [Eh]
    Disp22 (SDQ)        =    -0.000258451662 [Eh]

    (i =   1 of  30)          0 seconds
    (i =   2 of  30)          0 seconds
    (i =   3 of  30)          0 seconds
    (i =   4 of  30)          0 seconds
    (i =   5 of  30)          0 seconds
    (i =   6 of  30)          1 seconds
    (i =   7 of  30)          1 seconds
    (i =   8 of  30)          1 seconds
    (i =   9 of  30)          1 seconds
    (i =  10 of  30)          1 seconds
    (i =  11 of  30)          1 seconds
    (i =  12 of  30)          1 seconds
    (i =  13 of  30)          2 seconds
    (i =  14 of  30)          2 seconds
    (i =  15 of  30)          2 seconds
    (i =  16 of  30)          2 seconds
    (i =  17 of  30)          2 seconds
    (i =  18 of  30)          2 seconds
    (i =  19 of  30)          2 seconds
    (i =  20 of  30)          3 seconds
    (i =  21 of  30)          3 seconds
    (i =  22 of  30)          3 seconds
    (i =  23 of  30)          3 seconds
    (i =  24 of  30)          3 seconds
    (i =  25 of  30)          3 seconds
    (i =  26 of  30)          3 seconds
    (i =  27 of  30)          4 seconds
    (i =  28 of  30)          4 seconds
    (i =  29 of  30)          4 seconds
    (i =  30 of  30)          4 seconds

    Disp220 (T)         =    -0.000121449640 [Eh]

    (i =   1 of   5)        135 seconds
    (i =   2 of   5)        269 seconds
    (i =   3 of   5)        402 seconds
    (i =   4 of   5)        537 seconds
    (i =   5 of   5)        671 seconds

    Disp202 (T)         =    -0.000223916628 [Eh]

    Disp22 (T)          =    -0.000345366268 [Eh]

    Est. Disp220 (T)    =    -0.000135850760 [Eh]
    Est. Disp202 (T)    =    -0.000250467964 [Eh]

    Est. Disp22 (T)     =    -0.000386318724 [Eh]

    SAPT Results 
  --------------------------------------------------------------------------------------------------------
    Electrostatics               -127.85552090 [mEh]     -80.23055064 [kcal/mol]    -335.68462388 [kJ/mol]
      Elst10,r                   -133.80207466 [mEh]     -83.96206946 [kcal/mol]    -351.29729863 [kJ/mol]
      Elst12,r                      5.94655376 [mEh]       3.73151882 [kcal/mol]      15.61267475 [kJ/mol]

    Exchange                       43.49542467 [mEh]      27.29379105 [kcal/mol]     114.19722173 [kJ/mol]
      Exch10                       38.52213252 [mEh]      24.17300311 [kcal/mol]     101.13984500 [kJ/mol]
      Exch10(S^2)                  38.45328563 [mEh]      24.12980103 [kcal/mol]     100.95908752 [kJ/mol]
      Exch11(S^2)                  -0.91902656 [mEh]      -0.57669787 [kcal/mol]      -2.41290389 [kJ/mol]
      Exch12(S^2)                   5.89231870 [mEh]       3.69748581 [kcal/mol]      15.47028063 [kJ/mol]

    Induction                     -43.40136092 [mEh]     -27.23476515 [kcal/mol]    -113.95025739 [kJ/mol]
      Ind20,r                     -73.11521374 [mEh]     -45.88048930 [kcal/mol]    -191.96396723 [kJ/mol]
      Ind22                       -11.98129019 [mEh]      -7.51837311 [kcal/mol]     -31.45687307 [kJ/mol]
      Exch-Ind20,r                 33.97125605 [mEh]      21.31728501 [kcal/mol]      89.19152048 [kJ/mol]
      Exch-Ind22                    5.56682332 [mEh]       3.49323437 [kcal/mol]      14.61569262 [kJ/mol]
      delta HF,r (2)                2.15706364 [mEh]       1.35357787 [kcal/mol]       5.66336981 [kJ/mol]

    Dispersion                     -3.87587515 [mEh]      -2.43214838 [kcal/mol]     -10.17610882 [kJ/mol]
      Disp20                       -3.85587544 [mEh]      -2.41959837 [kcal/mol]     -10.12359958 [kJ/mol]
      Disp21                       -0.08363676 [mEh]      -0.05248286 [kcal/mol]      -0.21958829 [kJ/mol]
      Disp22 (SDQ)                 -0.25845166 [mEh]      -0.16218087 [kcal/mol]      -0.67856474 [kJ/mol]
      Disp22 (T)                   -0.34536627 [mEh]      -0.21672060 [kcal/mol]      -0.90675901 [kJ/mol]
      Est. Disp22 (T)              -0.38631872 [mEh]      -0.24241866 [kcal/mol]      -1.01427967 [kJ/mol]
      Exch-Disp20                   0.70840744 [mEh]       0.44453238 [kcal/mol]       1.85992347 [kJ/mol]

  Total HF                       -132.26683619 [mEh]     -82.99869277 [kcal/mol]    -347.26653057 [kJ/mol]
  Total SAPT0                    -135.41430419 [mEh]     -84.97375877 [kcal/mol]    -355.53020668 [kJ/mol]
  Total SAPT2                    -130.90892516 [mEh]     -82.14659074 [kcal/mol]    -343.70133565 [kJ/mol]
  Total SAPT2+                   -131.63733231 [mEh]     -82.60367312 [kcal/mol]    -345.61376835 [kJ/mol]

  Special recipe for scaled SAPT0 (see Manual):
    Electrostatics sSAPT0        -133.80207466 [mEh]     -83.96206946 [kcal/mol]    -351.29729863 [kJ/mol]
    Exchange sSAPT0                38.52213252 [mEh]      24.17300311 [kcal/mol]     101.13984500 [kJ/mol]
    Induction sSAPT0              -36.80410042 [mEh]     -23.09492169 [kcal/mol]     -96.62915234 [kJ/mol]
    Dispersion sSAPT0              -3.14365618 [mEh]      -1.97267404 [kcal/mol]      -8.25366817 [kJ/mol]
  Total sSAPT0                   -135.22769875 [mEh]     -84.85666208 [kcal/mol]    -355.04027415 [kJ/mol]
  --------------------------------------------------------------------------------------------------------

*** tstop() called on moses-razer at Mon Jan  8 04:48:37 2024
Module time:
	user time   =   14579.61 seconds =     242.99 minutes
	system time =     116.20 seconds =       1.94 minutes
	total time  =       2730 seconds =      45.50 minutes
Total time:
	user time   =   14935.65 seconds =     248.93 minutes
	system time =     123.86 seconds =       2.06 minutes
	total time  =       2795 seconds =      46.58 minutes

    Psi4 stopped on: Monday, 08 January 2024 04:48AM
    Psi4 wall time for execution: 0:46:35.20

*** Psi4 exiting successfully. Buy a developer a beer!
