
    -----------------------------------------------------------------------
          Psi4: An Open-Source Ab Initio Electronic Structure Package
                               Psi4 1.9 release

                         Git: Rev {} zzzzzzz 


    D. G. A. Smith, L. A. Burns, A. C. Simmonett, R. M. Parrish,
    M. C. Schieber, R. Galvelis, P. Kraus, H. Kruse, R. Di Remigio,
    A. Alenaizan, A. M. James, S. Lehtola, J. P. Misiewicz, M. Scheurer,
    R. A. Shaw, J. B. Schriber, Y. Xie, Z. L. Glick, D. A. Sirianni,
    J. S. O'Brien, J. M. Waldrop, A. Kumar, E. G. Hohenstein,
    B. P. Pritchard, B. R. Brooks, H. F. Schaefer III, A. Yu. Sokolov,
    K. Patkowski, A. E. DePrince III, U. Bozkaya, R. A. King,
    F. A. Evangelista, J. M. Turney, T. D. Crawford, C. D. Sherrill,
    J. Chem. Phys. 152(18) 184108 (2020). https://doi.org/10.1063/5.0006002

                            Additional Code Authors
    E. T. Seidl, C. L. Janssen, E. F. Valeev, M. L. Leininger,
    J. F. Gonthier, R. M. Richard, H. R. McAlexander, M. Saitow, X. Wang,
    P. Verma, M. H. Lechner, A. Jiang, S. Behnle, A. G. Heide,
    M. F. Herbst, and D. L. Poole

             Previous Authors, Complete List of Code Contributors,
                       and Citations for Specific Modules
    https://github.com/psi4/psi4/blob/master/codemeta.json
    https://github.com/psi4/psi4/graphs/contributors
    http://psicode.org/psi4manual/master/introduction.html#citing-psifour

    -----------------------------------------------------------------------


    Psi4 started on: Sunday, 21 January 2024 10:05PM

    Process ID: 1106607
    Host:       moses-razer
    PSIDATADIR: /home/kchung25/anaconda3/envs/psi4_19/share/psi4
    Memory:     500.0 MiB
    Threads:    6
    
  ==> Input File <==

--------------------------------------------------------------------------
MEMORY 60 GB

molecule dimer {
1 1
K      0.000000     0.000000     0.000000
--
0 1
O      1.886407     0.240145     1.661583
H      1.920610    -0.405878     2.387775
H      2.353759     1.017833     1.991534
O     -0.633228    -1.707611     2.107517
H     -1.150731    -2.494049     1.810318
H      0.219587    -1.976046     2.382454
O     -2.383593     0.511145    -0.855188
H     -2.763257     1.011932    -0.148038
H     -3.173879     0.141298    -1.269293
O     -0.850357    -2.107687    -1.303976
H     -1.442063    -2.761127    -0.786684
H     -0.824084    -2.400965    -2.266133

units ang
no_reorient
no_com
symmetry c1
}

set {
basis        aug-cc-pVTZ
scf_type     df
}

energy("sapt2+")
--------------------------------------------------------------------------

  Memory set to  55.879 GiB by Python driver.

Scratch directory: /scratch/
   => Loading Basis Set <=

    Name: AUG-CC-PVTZ
    Role: ORBITAL
    Keyword: BASIS
    atoms 1                     entry K          line  1152 file /home/kchung25/anaconda3/envs/p415env/share/psi4/basis/aug-cc-pvtz.gbs 
    atoms 2, 5, 8, 11           entry O          line   331 file /home/kchung25/anaconda3/envs/p415env/share/psi4/basis/aug-cc-pvtz.gbs 
    atoms 3-4, 6-7, 9-10, 12-13 entry H          line    40 file /home/kchung25/anaconda3/envs/p415env/share/psi4/basis/aug-cc-pvtz.gbs 

   => Loading Basis Set <=

    Name: AUG-CC-PVTZ
    Role: ORBITAL
    Keyword: BASIS
    atoms 1                     entry K          line  1152 file /home/kchung25/anaconda3/envs/p415env/share/psi4/basis/aug-cc-pvtz.gbs 
    atoms 2, 5, 8, 11           entry O          line   331 file /home/kchung25/anaconda3/envs/p415env/share/psi4/basis/aug-cc-pvtz.gbs 
    atoms 3-4, 6-7, 9-10, 12-13 entry H          line    40 file /home/kchung25/anaconda3/envs/p415env/share/psi4/basis/aug-cc-pvtz.gbs 


  //>>>>>>>>>>>>>>>>>>>>>>>>>>>>>>>>>>>//
  //              Dimer HF             //
  //<<<<<<<<<<<<<<<<<<<<<<<<<<<<<<<<<<<//

   => Libint2 <=

    Primary   basis highest AM E, G, H:  5, 4, 3
    Auxiliary basis highest AM E, G, H:  6, 5, 4
    Onebody   basis highest AM E, G, H:  6, 5, 4
    Solid Harmonics ordering:            gaussian

*** tstart() called on moses-razer
*** at Sun Jan 21 22:05:34 2024

   => Loading Basis Set <=

    Name: AUG-CC-PVTZ
    Role: ORBITAL
    Keyword: BASIS
    atoms 1                     entry K          line  1152 file /home/kchung25/anaconda3/envs/p415env/share/psi4/basis/aug-cc-pvtz.gbs 
    atoms 2, 5, 8, 11           entry O          line   331 file /home/kchung25/anaconda3/envs/p415env/share/psi4/basis/aug-cc-pvtz.gbs 
    atoms 3-4, 6-7, 9-10, 12-13 entry H          line    40 file /home/kchung25/anaconda3/envs/p415env/share/psi4/basis/aug-cc-pvtz.gbs 


         ---------------------------------------------------------
                                   SCF
               by Justin Turney, Rob Parrish, Andy Simmonett
                          and Daniel G. A. Smith
                              RHF Reference
                        6 Threads,  57220 MiB Core
         ---------------------------------------------------------

  ==> Geometry <==

    Molecular point group: c1
    Full point group: C1

    Geometry (in Angstrom), charge = 1, multiplicity = 1:

       Center              X                  Y                   Z               Mass       
    ------------   -----------------  -----------------  -----------------  -----------------
         K            0.000000000000     0.000000000000     0.000000000000    38.963706486400
         O            1.886407000000     0.240145000000     1.661583000000    15.994914619570
         H            1.920610000000    -0.405878000000     2.387775000000     1.007825032230
         H            2.353759000000     1.017833000000     1.991534000000     1.007825032230
         O           -0.633228000000    -1.707611000000     2.107517000000    15.994914619570
         H           -1.150731000000    -2.494049000000     1.810318000000     1.007825032230
         H            0.219587000000    -1.976046000000     2.382454000000     1.007825032230
         O           -2.383593000000     0.511145000000    -0.855188000000    15.994914619570
         H           -2.763257000000     1.011932000000    -0.148038000000     1.007825032230
         H           -3.173879000000     0.141298000000    -1.269293000000     1.007825032230
         O           -0.850357000000    -2.107687000000    -1.303976000000    15.994914619570
         H           -1.442063000000    -2.761127000000    -0.786684000000     1.007825032230
         H           -0.824084000000    -2.400965000000    -2.266133000000     1.007825032230

  Running in c1 symmetry.

  Rotational constants: A =      0.07033  B =      0.04681  C =      0.03726 [cm^-1]
  Rotational constants: A =   2108.45902  B =   1403.30765  C =   1116.91447 [MHz]
  Nuclear repulsion =  265.190177805457097

  Charge       = 1
  Multiplicity = 1
  Electrons    = 58
  Nalpha       = 29
  Nbeta        = 29

  ==> Algorithm <==

  SCF Algorithm Type is DF.
  DIIS enabled.
  MOM disabled.
  Fractional occupation disabled.
  Guess Type is SAD.
  Energy threshold   = 1.00e-08
  Density threshold  = 1.00e-08
  Integral threshold = 1.00e-12

  ==> Primary Basis <==

  Basis Set: AUG-CC-PVTZ
    Blend: AUG-CC-PVTZ
    Number of shells: 147
    Number of basis functions: 427
    Number of Cartesian functions: 489
    Spherical Harmonics?: true
    Max angular momentum: 3

   => Loading Basis Set <=

    Name: (AUG-CC-PVTZ AUX)
    Role: JKFIT
    Keyword: DF_BASIS_SCF
    atoms 1                     entry K          line  1152 file /home/kchung25/anaconda3/envs/p415env/share/psi4/basis/def2-universal-jkfit.gbs 
    atoms 2, 5, 8, 11           entry O          line   286 file /home/kchung25/anaconda3/envs/p415env/share/psi4/basis/aug-cc-pvtz-jkfit.gbs 
    atoms 3-4, 6-7, 9-10, 12-13 entry H          line    70 file /home/kchung25/anaconda3/envs/p415env/share/psi4/basis/aug-cc-pvtz-jkfit.gbs 

  ==> Integral Setup <==

  ==> DiskDFJK: Density-Fitted J/K Matrices <==

    J tasked:                  Yes
    K tasked:                  Yes
    wK tasked:                  No
    OpenMP threads:              6
    Integrals threads:           6
    Memory [MiB]:            42915
    Algorithm:                Core
    Integral Cache:           SAVE
    Schwarz Cutoff:          1E-12
    Fitting Condition:       1E-10

   => Auxiliary Basis Set <=

  Basis Set: (AUG-CC-PVTZ AUX)
    Blend: AUG-CC-PVTZ-JKFIT + DEF2-UNIVERSAL-JKFIT
    Number of shells: 276
    Number of basis functions: 944
    Number of Cartesian functions: 1167
    Spherical Harmonics?: true
    Max angular momentum: 4

  Minimum eigenvalue in the overlap matrix is 4.9272591142E-05.
  Reciprocal condition number of the overlap matrix is 3.8336722107E-06.
    Using symmetric orthogonalization.

  ==> Pre-Iterations <==

  SCF Guess: Superposition of Atomic Densities via on-the-fly atomic UHF (no occupation information).

   -------------------------
    Irrep   Nso     Nmo    
   -------------------------
     A        427     427 
   -------------------------
    Total     427     427
   -------------------------

  ==> Iterations <==

                           Total Energy        Delta E     RMS |[F,P]|

   @DF-RHF iter SAD:  -901.10181983565985   -9.01102e+02   0.00000e+00 
   @DF-RHF iter   1:  -902.95189967415388   -1.85008e+00   2.26781e-03 ADIIS/DIIS
   @DF-RHF iter   2:  -903.17925636611221   -2.27357e-01   1.52737e-03 ADIIS/DIIS
   @DF-RHF iter   3:  -903.31130600216727   -1.32050e-01   1.08382e-04 ADIIS/DIIS
   @DF-RHF iter   4:  -903.31300014530973   -1.69414e-03   3.12879e-05 DIIS
   @DF-RHF iter   5:  -903.31312639258397   -1.26247e-04   1.11416e-05 DIIS
   @DF-RHF iter   6:  -903.31314075814328   -1.43656e-05   3.78283e-06 DIIS
   @DF-RHF iter   7:  -903.31314284965617   -2.09151e-06   6.98378e-07 DIIS
   @DF-RHF iter   8:  -903.31314297613585   -1.26480e-07   1.42736e-07 DIIS
   @DF-RHF iter   9:  -903.31314298038615   -4.25030e-09   3.78503e-08 DIIS
   @DF-RHF iter  10:  -903.31314298062455   -2.38401e-10   1.16764e-08 DIIS
   @DF-RHF iter  11:  -903.31314298064194   -1.73941e-11   4.66845e-09 DIIS
  Energy and wave function converged.


  ==> Post-Iterations <==

    Orbital Energies [Eh]
    ---------------------

    Doubly Occupied:                                                      

       1A   -133.605406     2A    -20.728732     3A    -20.725781  
       4A    -20.722191     5A    -20.714826     6A    -14.563983  
       7A    -11.593841     8A    -11.593798     9A    -11.593596  
      10A     -1.829234    11A     -1.513493    12A     -1.508585  
      13A     -1.508040    14A     -1.480333    15A     -1.041473  
      16A     -1.039891    17A     -1.039511    18A     -0.889450  
      19A     -0.872878    20A     -0.862344    21A     -0.848875  
      22A     -0.758888    23A     -0.745556    24A     -0.736179  
      25A     -0.729468    26A     -0.675706    27A     -0.670932  
      28A     -0.668576    29A     -0.655100  

    Virtual:                                                              

      30A     -0.094098    31A     -0.075603    32A     -0.072196  
      33A     -0.066575    34A     -0.052141    35A     -0.051374  
      36A     -0.048060    37A     -0.045962    38A     -0.045312  
      39A     -0.042370    40A     -0.037895    41A     -0.036491  
      42A     -0.034617    43A     -0.024753    44A     -0.022876  
      45A     -0.021339    46A     -0.019968    47A     -0.019520  
      48A     -0.016358    49A     -0.015073    50A     -0.012196  
      51A     -0.008556    52A     -0.006889    53A     -0.004028  
      54A      0.001512    55A      0.004172    56A      0.009573  
      57A      0.015606    58A      0.016831    59A      0.032135  
      60A      0.039079    61A      0.045738    62A      0.047407  
      63A      0.054016    64A      0.057050    65A      0.061809  
      66A      0.069778    67A      0.072652    68A      0.077890  
      69A      0.080320    70A      0.084207    71A      0.091025  
      72A      0.097764    73A      0.099967    74A      0.107226  
      75A      0.112544    76A      0.115923    77A      0.120908  
      78A      0.125383    79A      0.126707    80A      0.135247  
      81A      0.138375    82A      0.146666    83A      0.150270  
      84A      0.154641    85A      0.159362    86A      0.172804  
      87A      0.176925    88A      0.188522    89A      0.189288  
      90A      0.201696    91A      0.208605    92A      0.216820  
      93A      0.226810    94A      0.232413    95A      0.235521  
      96A      0.249062    97A      0.256663    98A      0.263543  
      99A      0.274049   100A      0.274565   101A      0.281164  
     102A      0.294890   103A      0.300124   104A      0.302841  
     105A      0.305889   106A      0.308289   107A      0.311965  
     108A      0.315475   109A      0.321044   110A      0.327836  
     111A      0.336517   112A      0.340435   113A      0.349458  
     114A      0.353803   115A      0.356443   116A      0.363376  
     117A      0.364993   118A      0.371653   119A      0.378437  
     120A      0.379361   121A      0.379994   122A      0.384481  
     123A      0.398377   124A      0.402990   125A      0.411733  
     126A      0.416045   127A      0.429424   128A      0.433087  
     129A      0.439399   130A      0.446732   131A      0.457702  
     132A      0.465583   133A      0.478913   134A      0.518562  
     135A      0.534971   136A      0.556305   137A      0.566576  
     138A      0.573136   139A      0.579635   140A      0.606727  
     141A      0.608034   142A      0.617296   143A      0.630130  
     144A      0.647523   145A      0.655525   146A      0.676714  
     147A      0.688341   148A      0.703755   149A      0.711662  
     150A      0.712458   151A      0.716597   152A      0.724038  
     153A      0.735474   154A      0.757730   155A      0.759667  
     156A      0.779154   157A      0.791844   158A      0.796059  
     159A      0.808617   160A      0.811762   161A      0.821789  
     162A      0.834113   163A      0.840145   164A      0.851651  
     165A      0.854948   166A      0.858349   167A      0.871538  
     168A      0.874246   169A      0.888261   170A      0.896469  
     171A      0.901016   172A      0.923189   173A      0.927229  
     174A      0.935643   175A      0.940488   176A      0.944778  
     177A      0.952818   178A      0.956852   179A      0.958138  
     180A      0.962849   181A      0.966396   182A      0.978719  
     183A      0.991303   184A      1.005910   185A      1.008399  
     186A      1.019432   187A      1.031282   188A      1.039487  
     189A      1.045912   190A      1.051963   191A      1.059577  
     192A      1.063801   193A      1.083591   194A      1.088380  
     195A      1.095328   196A      1.113458   197A      1.117797  
     198A      1.142807   199A      1.145194   200A      1.157879  
     201A      1.165188   202A      1.175647   203A      1.182894  
     204A      1.202163   205A      1.206112   206A      1.209857  
     207A      1.242419   208A      1.255545   209A      1.258095  
     210A      1.275453   211A      1.308993   212A      1.310386  
     213A      1.367887   214A      1.429754   215A      1.444346  
     216A      1.457894   217A      1.463603   218A      1.469226  
     219A      1.500945   220A      1.509956   221A      1.534416  
     222A      1.547352   223A      1.563142   224A      1.570553  
     225A      1.599250   226A      1.609268   227A      1.678484  
     228A      1.721366   229A      1.746673   230A      1.753395  
     231A      1.773482   232A      1.810141   233A      1.814116  
     234A      1.838091   235A      1.845081   236A      1.855253  
     237A      1.869160   238A      1.897255   239A      1.903188  
     240A      1.979565   241A      1.999324   242A      2.015764  
     243A      2.042291   244A      2.156550   245A      2.159758  
     246A      2.177553   247A      2.186929   248A      2.190945  
     249A      2.200686   250A      2.217628   251A      2.229554  
     252A      2.259360   253A      2.277622   254A      2.288020  
     255A      2.301760   256A      2.309418   257A      2.319456  
     258A      2.334472   259A      2.349245   260A      2.361139  
     261A      2.381648   262A      2.383647   263A      2.395704  
     264A      2.426560   265A      2.436799   266A      2.448057  
     267A      2.462671   268A      2.488252   269A      2.527362  
     270A      2.544384   271A      2.549714   272A      2.577703  
     273A      2.598306   274A      2.612261   275A      2.638724  
     276A      2.658848   277A      2.670470   278A      2.686268  
     279A      2.688545   280A      2.693292   281A      2.699768  
     282A      2.721755   283A      2.730410   284A      2.738060  
     285A      2.748903   286A      2.777251   287A      2.790367  
     288A      2.816141   289A      2.823209   290A      2.837646  
     291A      2.849282   292A      3.502986   293A      3.562996  
     294A      3.609753   295A      3.621398   296A      3.645364  
     297A      3.656416   298A      3.668422   299A      3.737369  
     300A      3.866079   301A      3.918886   302A      3.921581  
     303A      3.976377   304A      4.016128   305A      4.034480  
     306A      4.055907   307A      4.063870   308A      4.079370  
     309A      4.085737   310A      4.103315   311A      4.106299  
     312A      4.122682   313A      4.137105   314A      4.145460  
     315A      4.154425   316A      4.166952   317A      4.186967  
     318A      4.210562   319A      4.247067   320A      4.261618  
     321A      4.269527   322A      4.291628   323A      4.297151  
     324A      4.308368   325A      4.324044   326A      4.343990  
     327A      4.353718   328A      4.362943   329A      4.378613  
     330A      4.391020   331A      4.405258   332A      4.413323  
     333A      4.449083   334A      4.469608   335A      4.498231  
     336A      4.545847   337A      4.557910   338A      4.620972  
     339A      4.626972   340A      4.669578   341A      4.703031  
     342A      4.763796   343A      4.773866   344A      4.846333  
     345A      4.889371   346A      4.947089   347A      4.979135  
     348A      5.001276   349A      5.027747   350A      5.036296  
     351A      5.047497   352A      5.076289   353A      5.102399  
     354A      5.118552   355A      5.122653   356A      5.180979  
     357A      5.214681   358A      5.226820   359A      5.236607  
     360A      5.244553   361A      5.346029   362A      5.376331  
     363A      5.422651   364A      5.548666   365A      5.584625  
     366A      5.603922   367A      5.684097   368A      6.041811  
     369A      6.084645   370A      6.088821   371A      6.163247  
     372A      6.422659   373A      6.444354   374A      6.456987  
     375A      6.507438   376A      6.574697   377A      6.590703  
     378A      6.599170   379A      6.628789   380A      6.692427  
     381A      6.737196   382A      6.754486   383A      6.821159  
     384A      6.962569   385A      7.000321   386A      7.019941  
     387A      7.031315   388A      7.037624   389A      7.117108  
     390A      7.138521   391A      7.141797   392A      7.152277  
     393A      7.161461   394A      7.167919   395A      7.174246  
     396A      7.191164   397A      7.205108   398A      7.222530  
     399A      7.226183   400A      7.238651   401A      7.240199  
     402A      7.257548   403A      7.269896   404A      7.277839  
     405A      7.290860   406A      7.310300   407A      7.315847  
     408A      7.373492   409A      7.432877   410A      7.470383  
     411A      7.503219   412A      7.640377   413A      7.728300  
     414A      7.733302   415A      7.744893   416A      7.759730  
     417A      7.787077   418A      7.850947   419A      7.876851  
     420A      8.358273   421A      8.618779   422A      8.630670  
     423A      8.750737   424A     14.401753   425A     15.567560  
     426A     15.946500   427A     16.008010  

    Final Occupation by Irrep:
              A 
    DOCC [    29 ]
    NA   [    29 ]
    NB   [    29 ]

  @DF-RHF Final Energy:  -903.31314298064194

   => Energetics <=

    Nuclear Repulsion Energy =            265.1901778054570968
    One-Electron Energy =               -1765.1733051808755590
    Two-Electron Energy =                 596.6699843947765203
    Total Energy =                       -903.3131429806419419

Computation Completed


Properties will be evaluated at   0.000000,   0.000000,   0.000000 [a0]

Properties computed using the SCF density matrix


 Multipole Moments:

 ------------------------------------------------------------------------------------
     Multipole            Electronic (a.u.)      Nuclear  (a.u.)        Total (a.u.)
 ------------------------------------------------------------------------------------

 L = 1.  Multiply by 2.5417464519 to convert [e a0] to [Debye]
 Dipole X            :         38.3806893          -39.1290962           -0.7484070
 Dipole Y            :         59.8013531          -61.1875669           -1.3862138
 Dipole Z            :        -31.4128635           32.0902349            0.6773714
 Magnitude           :                                                    1.7147984

 ------------------------------------------------------------------------------------

*** tstop() called on moses-razer at Sun Jan 21 22:05:49 2024
Module time:
	user time   =      56.60 seconds =       0.94 minutes
	system time =       3.86 seconds =       0.06 minutes
	total time  =         15 seconds =       0.25 minutes
Total time:
	user time   =      56.60 seconds =       0.94 minutes
	system time =       3.86 seconds =       0.06 minutes
	total time  =         15 seconds =       0.25 minutes

  //>>>>>>>>>>>>>>>>>>>>>>>>>>>>>>>>>>>//
  //            Monomer A HF           //
  //<<<<<<<<<<<<<<<<<<<<<<<<<<<<<<<<<<<//

   => Libint2 <=

    Primary   basis highest AM E, G, H:  5, 4, 3
    Auxiliary basis highest AM E, G, H:  6, 5, 4
    Onebody   basis highest AM E, G, H:  6, 5, 4
    Solid Harmonics ordering:            gaussian

*** tstart() called on moses-razer
*** at Sun Jan 21 22:05:49 2024

   => Loading Basis Set <=

    Name: AUG-CC-PVTZ
    Role: ORBITAL
    Keyword: BASIS
    atoms 1                     entry K          line  1152 file /home/kchung25/anaconda3/envs/p415env/share/psi4/basis/aug-cc-pvtz.gbs 
    atoms 2, 5, 8, 11           entry O          line   331 file /home/kchung25/anaconda3/envs/p415env/share/psi4/basis/aug-cc-pvtz.gbs 
    atoms 3-4, 6-7, 9-10, 12-13 entry H          line    40 file /home/kchung25/anaconda3/envs/p415env/share/psi4/basis/aug-cc-pvtz.gbs 


         ---------------------------------------------------------
                                   SCF
               by Justin Turney, Rob Parrish, Andy Simmonett
                          and Daniel G. A. Smith
                              RHF Reference
                        6 Threads,  57220 MiB Core
         ---------------------------------------------------------

  ==> Geometry <==

    Molecular point group: c1
    Full point group: C1

    Geometry (in Angstrom), charge = 1, multiplicity = 1:

       Center              X                  Y                   Z               Mass       
    ------------   -----------------  -----------------  -----------------  -----------------
         K            0.000000000000     0.000000000000     0.000000000000    38.963706486400
      Gh(O)           1.886407000000     0.240145000000     1.661583000000    15.994914619570
      Gh(H)           1.920610000000    -0.405878000000     2.387775000000     1.007825032230
      Gh(H)           2.353759000000     1.017833000000     1.991534000000     1.007825032230
      Gh(O)          -0.633228000000    -1.707611000000     2.107517000000    15.994914619570
      Gh(H)          -1.150731000000    -2.494049000000     1.810318000000     1.007825032230
      Gh(H)           0.219587000000    -1.976046000000     2.382454000000     1.007825032230
      Gh(O)          -2.383593000000     0.511145000000    -0.855188000000    15.994914619570
      Gh(H)          -2.763257000000     1.011932000000    -0.148038000000     1.007825032230
      Gh(H)          -3.173879000000     0.141298000000    -1.269293000000     1.007825032230
      Gh(O)          -0.850357000000    -2.107687000000    -1.303976000000    15.994914619570
      Gh(H)          -1.442063000000    -2.761127000000    -0.786684000000     1.007825032230
      Gh(H)          -0.824084000000    -2.400965000000    -2.266133000000     1.007825032230

  Running in c1 symmetry.

  Rotational constants: A =      0.07033  B =      0.04681  C =      0.03726 [cm^-1]
  Rotational constants: A =   2108.45902  B =   1403.30765  C =   1116.91447 [MHz]
  Nuclear repulsion =    0.000000000000000

  Charge       = 1
  Multiplicity = 1
  Electrons    = 18
  Nalpha       = 9
  Nbeta        = 9

  ==> Algorithm <==

  SCF Algorithm Type is DF.
  DIIS enabled.
  MOM disabled.
  Fractional occupation disabled.
  Guess Type is SAD.
  Energy threshold   = 1.00e-08
  Density threshold  = 1.00e-08
  Integral threshold = 1.00e-12

  ==> Primary Basis <==

  Basis Set: AUG-CC-PVTZ
    Blend: AUG-CC-PVTZ
    Number of shells: 147
    Number of basis functions: 427
    Number of Cartesian functions: 489
    Spherical Harmonics?: true
    Max angular momentum: 3

   => Loading Basis Set <=

    Name: (AUG-CC-PVTZ AUX)
    Role: JKFIT
    Keyword: DF_BASIS_SCF
    atoms 1                     entry K          line  1152 file /home/kchung25/anaconda3/envs/p415env/share/psi4/basis/def2-universal-jkfit.gbs 
    atoms 2, 5, 8, 11           entry O          line   286 file /home/kchung25/anaconda3/envs/p415env/share/psi4/basis/aug-cc-pvtz-jkfit.gbs 
    atoms 3-4, 6-7, 9-10, 12-13 entry H          line    70 file /home/kchung25/anaconda3/envs/p415env/share/psi4/basis/aug-cc-pvtz-jkfit.gbs 

  ==> Integral Setup <==

  ==> DiskDFJK: Density-Fitted J/K Matrices <==

    J tasked:                  Yes
    K tasked:                  Yes
    wK tasked:                  No
    OpenMP threads:              6
    Integrals threads:           6
    Memory [MiB]:            42915
    Algorithm:                Core
    Integral Cache:           LOAD
    Schwarz Cutoff:          1E-12
    Fitting Condition:       1E-10

   => Auxiliary Basis Set <=

  Basis Set: (AUG-CC-PVTZ AUX)
    Blend: AUG-CC-PVTZ-JKFIT + DEF2-UNIVERSAL-JKFIT
    Number of shells: 276
    Number of basis functions: 944
    Number of Cartesian functions: 1167
    Spherical Harmonics?: true
    Max angular momentum: 4

  Minimum eigenvalue in the overlap matrix is 4.9272591142E-05.
  Reciprocal condition number of the overlap matrix is 3.8336722107E-06.
    Using symmetric orthogonalization.

  ==> Pre-Iterations <==

  SCF Guess: Superposition of Atomic Densities via on-the-fly atomic UHF (no occupation information).

   -------------------------
    Irrep   Nso     Nmo    
   -------------------------
     A        427     427 
   -------------------------
    Total     427     427
   -------------------------

  ==> Iterations <==

                           Total Energy        Delta E     RMS |[F,P]|

   @DF-RHF iter SAD:  -599.05184586103928   -5.99052e+02   0.00000e+00 
   @DF-RHF iter   1:  -599.01746826148599    3.43776e-02   2.29222e-05 DIIS
   @DF-RHF iter   2:  -599.01751385294813   -4.55915e-05   2.65474e-06 DIIS
   @DF-RHF iter   3:  -599.01751491361006   -1.06066e-06   3.97419e-07 DIIS
   @DF-RHF iter   4:  -599.01751493135009   -1.77400e-08   2.49385e-08 DIIS
   @DF-RHF iter   5:  -599.01751493143411   -8.40146e-11   4.27643e-09 DIIS
  Energy and wave function converged.


  ==> Post-Iterations <==

    Orbital Energies [Eh]
    ---------------------

    Doubly Occupied:                                                      

       1A   -133.752771     2A    -14.708412     3A    -11.738475  
       4A    -11.738474     5A    -11.738473     6A     -1.963978  
       7A     -1.170695     8A     -1.170660     9A     -1.170631  

    Virtual:                                                              

      10A     -0.146961    11A     -0.095558    12A     -0.095553  
      13A     -0.095549    14A     -0.060665    15A     -0.057978  
      16A     -0.057959    17A     -0.057911    18A     -0.057872  
      19A     -0.057861    20A     -0.045542    21A     -0.045538  
      22A     -0.045536    23A     -0.031347    24A     -0.031319  
      25A     -0.031286    26A     -0.031265    27A     -0.031247  
      28A     -0.019058    29A     -0.018694    30A     -0.017932  
      31A     -0.016706    32A     -0.013818    33A     -0.013008  
      34A     -0.010189    35A     -0.009397    36A     -0.002655  
      37A     -0.001369    38A      0.004237    39A      0.009247  
      40A      0.009831    41A      0.010684    42A      0.012561  
      43A      0.013906    44A      0.028710    45A      0.036360  
      46A      0.040712    47A      0.049405    48A      0.050077  
      49A      0.054528    50A      0.056434    51A      0.061745  
      52A      0.074746    53A      0.086132    54A      0.087492  
      55A      0.088011    56A      0.093273    57A      0.094715  
      58A      0.097002    59A      0.099948    60A      0.107084  
      61A      0.109035    62A      0.112520    63A      0.119558  
      64A      0.125950    65A      0.137985    66A      0.142228  
      67A      0.149975    68A      0.169591    69A      0.172131  
      70A      0.182640    71A      0.192880    72A      0.196163  
      73A      0.207133    74A      0.216298    75A      0.220097  
      76A      0.223847    77A      0.233459    78A      0.237060  
      79A      0.241799    80A      0.243537    81A      0.250508  
      82A      0.254482    83A      0.258438    84A      0.263545  
      85A      0.268347    86A      0.273691    87A      0.280675  
      88A      0.289583    89A      0.295608    90A      0.297970  
      91A      0.301543    92A      0.309346    93A      0.312352  
      94A      0.315599    95A      0.317992    96A      0.325356  
      97A      0.330760    98A      0.333243    99A      0.344741  
     100A      0.347270   101A      0.350087   102A      0.354775  
     103A      0.361474   104A      0.372833   105A      0.376886  
     106A      0.385234   107A      0.387980   108A      0.402232  
     109A      0.404477   110A      0.413747   111A      0.420048  
     112A      0.440126   113A      0.446721   114A      0.489192  
     115A      0.545096   116A      0.563478   117A      0.581015  
     118A      0.599684   119A      0.604738   120A      0.619050  
     121A      0.629805   122A      0.639316   123A      0.652584  
     124A      0.656328   125A      0.661251   126A      0.675865  
     127A      0.678470   128A      0.684309   129A      0.698349  
     130A      0.698873   131A      0.710703   132A      0.715214  
     133A      0.730494   134A      0.740759   135A      0.752381  
     136A      0.757031   137A      0.763727   138A      0.766154  
     139A      0.773349   140A      0.779701   141A      0.783387  
     142A      0.797047   143A      0.803818   144A      0.807457  
     145A      0.822265   146A      0.831112   147A      0.842168  
     148A      0.847325   149A      0.854531   150A      0.860775  
     151A      0.870695   152A      0.885534   153A      0.895303  
     154A      0.897671   155A      0.913849   156A      0.920133  
     157A      0.931050   158A      0.933110   159A      0.949177  
     160A      0.958030   161A      0.968885   162A      0.976534  
     163A      0.981178   164A      0.991046   165A      1.001519  
     166A      1.005487   167A      1.015211   168A      1.026885  
     169A      1.032971   170A      1.037392   171A      1.045697  
     172A      1.068902   173A      1.071920   174A      1.087749  
     175A      1.102775   176A      1.104298   177A      1.106390  
     178A      1.115828   179A      1.124048   180A      1.137737  
     181A      1.163992   182A      1.174156   183A      1.176044  
     184A      1.202387   185A      1.216610   186A      1.243058  
     187A      1.252182   188A      1.300923   189A      1.328568  
     190A      1.338000   191A      1.362446   192A      1.366548  
     193A      1.378657   194A      1.390605   195A      1.407743  
     196A      1.425393   197A      1.484655   198A      1.517711  
     199A      1.548863   200A      1.578772   201A      1.592149  
     202A      1.608100   203A      1.615246   204A      1.637238  
     205A      1.645423   206A      1.665145   207A      1.681580  
     208A      1.686008   209A      1.690928   210A      1.702843  
     211A      1.712167   212A      1.721521   213A      1.743469  
     214A      1.756997   215A      1.767610   216A      1.796409  
     217A      1.797756   218A      1.828324   219A      1.883370  
     220A      1.895283   221A      1.961323   222A      1.971773  
     223A      1.992520   224A      2.190444   225A      2.202530  
     226A      2.212538   227A      2.242269   228A      2.252809  
     229A      2.262632   230A      2.272879   231A      2.324197  
     232A      2.331786   233A      2.338167   234A      2.350688  
     235A      2.363013   236A      2.371665   237A      2.377540  
     238A      2.390119   239A      2.396443   240A      2.404069  
     241A      2.413528   242A      2.428296   243A      2.452040  
     244A      2.473443   245A      2.495305   246A      2.499957  
     247A      2.526757   248A      2.536166   249A      2.540311  
     250A      2.555225   251A      2.606046   252A      2.625463  
     253A      2.656643   254A      2.679834   255A      2.695050  
     256A      2.706215   257A      2.715365   258A      2.736162  
     259A      2.831734   260A      2.971887   261A      3.003936  
     262A      3.008971   263A      3.018585   264A      3.028582  
     265A      3.057903   266A      3.060181   267A      3.068599  
     268A      3.086176   269A      3.089923   270A      3.105831  
     271A      3.137257   272A      3.154230   273A      3.160632  
     274A      3.170832   275A      3.194022   276A      3.214649  
     277A      3.228267   278A      3.245416   279A      3.247758  
     280A      3.398986   281A      3.403375   282A      3.421631  
     283A      3.510106   284A      3.536106   285A      3.538698  
     286A      3.561355   287A      3.603380   288A      4.167310  
     289A      4.230263   290A      4.252842   291A      4.288165  
     292A      4.312039   293A      4.326768   294A      4.339795  
     295A      4.346783   296A      4.356301   297A      4.370562  
     298A      4.401059   299A      4.406751   300A      4.435283  
     301A      4.456490   302A      4.477351   303A      4.487820  
     304A      4.490733   305A      4.529899   306A      4.536125  
     307A      4.553904   308A      4.562993   309A      4.571594  
     310A      4.577923   311A      4.629542   312A      4.725128  
     313A      4.750236   314A      4.773621   315A      4.790415  
     316A      4.796782   317A      4.811234   318A      4.814125  
     319A      4.851287   320A      4.858450   321A      4.898162  
     322A      4.960662   323A      4.978302   324A      5.008332  
     325A      5.018089   326A      5.097231   327A      5.108041  
     328A      5.183183   329A      5.239076   330A      5.344102  
     331A      5.352671   332A      5.386601   333A      5.409770  
     334A      5.426084   335A      5.438864   336A      5.469647  
     337A      5.478289   338A      5.511272   339A      5.561695  
     340A      5.577751   341A      5.649449   342A      5.681174  
     343A      5.719358   344A      5.920299   345A      5.935883  
     346A      5.991301   347A      6.026531   348A      6.045856  
     349A      6.186876   350A      6.206440   351A      6.219550  
     352A      6.412753   353A      6.465156   354A      6.501650  
     355A      6.600771   356A      6.673236   357A      6.871484  
     358A      6.928870   359A      6.957873   360A      7.462698  
     361A      7.489399   362A      7.499847   363A      7.528944  
     364A      7.568652   365A      7.611162   366A      7.625944  
     367A      7.672268   368A      7.846138   369A      7.873608  
     370A      7.877587   371A      7.927399   372A      7.937513  
     373A      7.948880   374A      7.961538   375A      7.985397  
     376A      8.070378   377A      8.095960   378A      8.112167  
     379A      8.131020   380A      8.319890   381A      8.392329  
     382A      8.555133   383A      8.564428   384A      8.606208  
     385A      8.617258   386A      8.694369   387A      8.733296  
     388A      9.529837   389A      9.552150   390A      9.594392  
     391A      9.619782   392A      9.713938   393A      9.719919  
     394A      9.755747   395A      9.778401   396A      9.802075  
     397A      9.822807   398A      9.838129   399A      9.880230  
     400A      9.981543   401A     10.012244   402A     10.048740  
     403A     10.078857   404A     10.679749   405A     10.942149  
     406A     10.976143   407A     11.094106   408A     11.372247  
     409A     11.439877   410A     11.462262   411A     11.537002  
     412A     11.548069   413A     11.867353   414A     12.053347  
     415A     12.088116   416A     13.085519   417A     13.315697  
     418A     13.384947   419A     13.411205   420A     13.637679  
     421A     13.680949   422A     13.719748   423A     13.751239  
     424A     62.306879   425A     64.371142   426A     65.053316  
     427A     65.216563  

    Final Occupation by Irrep:
              A 
    DOCC [     9 ]
    NA   [     9 ]
    NB   [     9 ]

  @DF-RHF Final Energy:  -599.01751493143411

   => Energetics <=

    Nuclear Repulsion Energy =              0.0000000000000000
    One-Electron Energy =                -819.7298916505112629
    Two-Electron Energy =                 220.7123767190771559
    Total Energy =                       -599.0175149314341070

Computation Completed


Properties will be evaluated at   0.000000,   0.000000,   0.000000 [a0]

Properties computed using the SCF density matrix


 Multipole Moments:

 ------------------------------------------------------------------------------------
     Multipole            Electronic (a.u.)      Nuclear  (a.u.)        Total (a.u.)
 ------------------------------------------------------------------------------------

 L = 1.  Multiply by 2.5417464519 to convert [e a0] to [Debye]
 Dipole X            :         -0.0001691            0.0000000           -0.0001691
 Dipole Y            :         -0.0002246            0.0000000           -0.0002246
 Dipole Z            :          0.0001581            0.0000000            0.0001581
 Magnitude           :                                                    0.0003225

 ------------------------------------------------------------------------------------

*** tstop() called on moses-razer at Sun Jan 21 22:05:58 2024
Module time:
	user time   =      26.33 seconds =       0.44 minutes
	system time =       2.37 seconds =       0.04 minutes
	total time  =          9 seconds =       0.15 minutes
Total time:
	user time   =      82.96 seconds =       1.38 minutes
	system time =       6.23 seconds =       0.10 minutes
	total time  =         24 seconds =       0.40 minutes

  //>>>>>>>>>>>>>>>>>>>>>>>>>>>>>>>>>>>//
  //            Monomer B HF           //
  //<<<<<<<<<<<<<<<<<<<<<<<<<<<<<<<<<<<//

   => Libint2 <=

    Primary   basis highest AM E, G, H:  5, 4, 3
    Auxiliary basis highest AM E, G, H:  6, 5, 4
    Onebody   basis highest AM E, G, H:  6, 5, 4
    Solid Harmonics ordering:            gaussian

*** tstart() called on moses-razer
*** at Sun Jan 21 22:05:58 2024

   => Loading Basis Set <=

    Name: AUG-CC-PVTZ
    Role: ORBITAL
    Keyword: BASIS
    atoms 1                     entry K          line  1152 file /home/kchung25/anaconda3/envs/p415env/share/psi4/basis/aug-cc-pvtz.gbs 
    atoms 2, 5, 8, 11           entry O          line   331 file /home/kchung25/anaconda3/envs/p415env/share/psi4/basis/aug-cc-pvtz.gbs 
    atoms 3-4, 6-7, 9-10, 12-13 entry H          line    40 file /home/kchung25/anaconda3/envs/p415env/share/psi4/basis/aug-cc-pvtz.gbs 


         ---------------------------------------------------------
                                   SCF
               by Justin Turney, Rob Parrish, Andy Simmonett
                          and Daniel G. A. Smith
                              RHF Reference
                        6 Threads,  57220 MiB Core
         ---------------------------------------------------------

  ==> Geometry <==

    Molecular point group: c1
    Full point group: C1

    Geometry (in Angstrom), charge = 0, multiplicity = 1:

       Center              X                  Y                   Z               Mass       
    ------------   -----------------  -----------------  -----------------  -----------------
      Gh(K)           0.000000000000     0.000000000000     0.000000000000    38.963706486400
         O            1.886407000000     0.240145000000     1.661583000000    15.994914619570
         H            1.920610000000    -0.405878000000     2.387775000000     1.007825032230
         H            2.353759000000     1.017833000000     1.991534000000     1.007825032230
         O           -0.633228000000    -1.707611000000     2.107517000000    15.994914619570
         H           -1.150731000000    -2.494049000000     1.810318000000     1.007825032230
         H            0.219587000000    -1.976046000000     2.382454000000     1.007825032230
         O           -2.383593000000     0.511145000000    -0.855188000000    15.994914619570
         H           -2.763257000000     1.011932000000    -0.148038000000     1.007825032230
         H           -3.173879000000     0.141298000000    -1.269293000000     1.007825032230
         O           -0.850357000000    -2.107687000000    -1.303976000000    15.994914619570
         H           -1.442063000000    -2.761127000000    -0.786684000000     1.007825032230
         H           -0.824084000000    -2.400965000000    -2.266133000000     1.007825032230

  Running in c1 symmetry.

  Rotational constants: A =      0.07033  B =      0.04681  C =      0.03726 [cm^-1]
  Rotational constants: A =   2108.45902  B =   1403.30765  C =   1116.91447 [MHz]
  Nuclear repulsion =  117.547875822313429

  Charge       = 0
  Multiplicity = 1
  Electrons    = 40
  Nalpha       = 20
  Nbeta        = 20

  ==> Algorithm <==

  SCF Algorithm Type is DF.
  DIIS enabled.
  MOM disabled.
  Fractional occupation disabled.
  Guess Type is SAD.
  Energy threshold   = 1.00e-08
  Density threshold  = 1.00e-08
  Integral threshold = 1.00e-12

  ==> Primary Basis <==

  Basis Set: AUG-CC-PVTZ
    Blend: AUG-CC-PVTZ
    Number of shells: 147
    Number of basis functions: 427
    Number of Cartesian functions: 489
    Spherical Harmonics?: true
    Max angular momentum: 3

   => Loading Basis Set <=

    Name: (AUG-CC-PVTZ AUX)
    Role: JKFIT
    Keyword: DF_BASIS_SCF
    atoms 1                     entry K          line  1152 file /home/kchung25/anaconda3/envs/p415env/share/psi4/basis/def2-universal-jkfit.gbs 
    atoms 2, 5, 8, 11           entry O          line   286 file /home/kchung25/anaconda3/envs/p415env/share/psi4/basis/aug-cc-pvtz-jkfit.gbs 
    atoms 3-4, 6-7, 9-10, 12-13 entry H          line    70 file /home/kchung25/anaconda3/envs/p415env/share/psi4/basis/aug-cc-pvtz-jkfit.gbs 

  ==> Integral Setup <==

  ==> DiskDFJK: Density-Fitted J/K Matrices <==

    J tasked:                  Yes
    K tasked:                  Yes
    wK tasked:                  No
    OpenMP threads:              6
    Integrals threads:           6
    Memory [MiB]:            42915
    Algorithm:                Core
    Integral Cache:           LOAD
    Schwarz Cutoff:          1E-12
    Fitting Condition:       1E-10

   => Auxiliary Basis Set <=

  Basis Set: (AUG-CC-PVTZ AUX)
    Blend: AUG-CC-PVTZ-JKFIT + DEF2-UNIVERSAL-JKFIT
    Number of shells: 276
    Number of basis functions: 944
    Number of Cartesian functions: 1167
    Spherical Harmonics?: true
    Max angular momentum: 4

  Minimum eigenvalue in the overlap matrix is 4.9272591142E-05.
  Reciprocal condition number of the overlap matrix is 3.8336722107E-06.
    Using symmetric orthogonalization.

  ==> Pre-Iterations <==

  SCF Guess: Superposition of Atomic Densities via on-the-fly atomic UHF (no occupation information).

   -------------------------
    Irrep   Nso     Nmo    
   -------------------------
     A        427     427 
   -------------------------
    Total     427     427
   -------------------------

  ==> Iterations <==

                           Total Energy        Delta E     RMS |[F,P]|

   @DF-RHF iter SAD:  -301.87956246528984   -3.01880e+02   0.00000e+00 
   @DF-RHF iter   1:  -303.85831145557114   -1.97875e+00   2.21663e-03 ADIIS/DIIS
   @DF-RHF iter   2:  -304.07135325813010   -2.13042e-01   1.55993e-03 ADIIS/DIIS
   @DF-RHF iter   3:  -304.21134276556865   -1.39990e-01   1.09137e-04 ADIIS/DIIS
   @DF-RHF iter   4:  -304.21316674635142   -1.82398e-03   3.31328e-05 DIIS
   @DF-RHF iter   5:  -304.21330896120901   -1.42215e-04   1.28439e-05 DIIS
   @DF-RHF iter   6:  -304.21332879242846   -1.98312e-05   3.98622e-06 DIIS
   @DF-RHF iter   7:  -304.21333163812045   -2.84569e-06   8.29032e-07 DIIS
   @DF-RHF iter   8:  -304.21333184018738   -2.02067e-07   1.66334e-07 DIIS
   @DF-RHF iter   9:  -304.21333184662512   -6.43774e-09   6.13410e-08 DIIS
   @DF-RHF iter  10:  -304.21333184702297   -3.97847e-10   1.75798e-08 DIIS
   @DF-RHF iter  11:  -304.21333184707697   -5.40012e-11   4.79748e-09 DIIS
  Energy and wave function converged.


  ==> Post-Iterations <==

    Orbital Energies [Eh]
    ---------------------

    Doubly Occupied:                                                      

       1A    -20.556606     2A    -20.555041     3A    -20.552971  
       4A    -20.541654     5A     -1.336917     6A     -1.332632  
       7A     -1.330346     8A     -1.305321     9A     -0.717577  
      10A     -0.696811    11A     -0.685655    12A     -0.675755  
      13A     -0.566393    14A     -0.565047    15A     -0.559943  
      16A     -0.544428    17A     -0.496550    18A     -0.492978  
      19A     -0.491375    20A     -0.477309  

    Virtual:                                                              

      21A      0.006370    22A      0.008361    23A      0.010387  
      24A      0.012506    25A      0.017856    26A      0.017915  
      27A      0.018891    28A      0.019660    29A      0.020077  
      30A      0.033107    31A      0.035407    32A      0.040792  
      33A      0.049017    34A      0.059130    35A      0.059866  
      36A      0.064685    37A      0.066415    38A      0.068363  
      39A      0.071598    40A      0.073315    41A      0.077495  
      42A      0.078545    43A      0.082968    44A      0.084469  
      45A      0.094143    46A      0.098752    47A      0.127526  
      48A      0.129274    49A      0.131733    50A      0.143140  
      51A      0.152470    52A      0.162631    53A      0.169988  
      54A      0.171024    55A      0.174324    56A      0.181078  
      57A      0.186452    58A      0.193075    59A      0.195790  
      60A      0.198827    61A      0.203899    62A      0.205215  
      63A      0.215012    64A      0.219263    65A      0.229867  
      66A      0.234893    67A      0.245014    68A      0.247222  
      69A      0.251622    70A      0.263060    71A      0.270360  
      72A      0.275615    73A      0.284698    74A      0.293724  
      75A      0.297156    76A      0.304027    77A      0.306680  
      78A      0.318718    79A      0.335093    80A      0.339383  
      81A      0.350799    82A      0.356299    83A      0.363871  
      84A      0.366012    85A      0.375659    86A      0.388072  
      87A      0.397118    88A      0.406488    89A      0.414731  
      90A      0.418340    91A      0.423534    92A      0.427448  
      93A      0.432857    94A      0.435982    95A      0.441269  
      96A      0.446085    97A      0.462288    98A      0.464564  
      99A      0.467939   100A      0.472948   101A      0.482535  
     102A      0.485364   103A      0.491698   104A      0.500153  
     105A      0.501207   106A      0.508861   107A      0.511540  
     108A      0.518683   109A      0.524123   110A      0.532492  
     111A      0.542096   112A      0.547718   113A      0.557220  
     114A      0.572952   115A      0.583953   116A      0.593531  
     117A      0.600578   118A      0.613162   119A      0.642112  
     120A      0.661619   121A      0.680895   122A      0.691925  
     123A      0.709630   124A      0.716580   125A      0.731486  
     126A      0.745632   127A      0.748025   128A      0.759564  
     129A      0.774227   130A      0.780443   131A      0.802906  
     132A      0.807076   133A      0.821333   134A      0.833797  
     135A      0.841725   136A      0.853639   137A      0.857148  
     138A      0.863143   139A      0.870817   140A      0.878747  
     141A      0.898271   142A      0.909252   143A      0.917370  
     144A      0.931249   145A      0.947843   146A      0.954434  
     147A      0.964765   148A      0.972071   149A      0.981001  
     150A      0.986225   151A      0.998541   152A      1.000485  
     153A      1.011507   154A      1.013117   155A      1.024833  
     156A      1.027556   157A      1.042184   158A      1.046181  
     159A      1.052660   160A      1.066557   161A      1.078153  
     162A      1.083838   163A      1.086660   164A      1.091303  
     165A      1.098114   166A      1.106548   167A      1.108364  
     168A      1.114912   169A      1.124634   170A      1.140420  
     171A      1.151963   172A      1.153547   173A      1.162866  
     174A      1.169816   175A      1.184756   176A      1.189108  
     177A      1.195251   178A      1.202228   179A      1.220824  
     180A      1.232226   181A      1.242481   182A      1.251128  
     183A      1.257632   184A      1.272449   185A      1.276960  
     186A      1.291813   187A      1.310044   188A      1.321689  
     189A      1.326894   190A      1.341247   191A      1.349741  
     192A      1.357111   193A      1.381307   194A      1.401403  
     195A      1.405036   196A      1.413389   197A      1.425450  
     198A      1.456154   199A      1.495749   200A      1.522531  
     201A      1.598861   202A      1.599093   203A      1.606347  
     204A      1.609319   205A      1.640008   206A      1.652508  
     207A      1.675083   208A      1.681103   209A      1.695861  
     210A      1.716639   211A      1.721811   212A      1.740603  
     213A      1.776201   214A      1.828994   215A      1.876121  
     216A      1.905208   217A      1.920392   218A      1.954788  
     219A      1.967125   220A      1.980103   221A      1.998748  
     222A      2.001758   223A      2.030205   224A      2.037618  
     225A      2.060976   226A      2.132200   227A      2.150180  
     228A      2.171887   229A      2.189567   230A      2.206290  
     231A      2.255935   232A      2.313874   233A      2.322176  
     234A      2.329055   235A      2.344867   236A      2.365705  
     237A      2.369646   238A      2.375357   239A      2.388311  
     240A      2.400036   241A      2.433525   242A      2.445081  
     243A      2.458944   244A      2.469374   245A      2.484366  
     246A      2.496281   247A      2.499370   248A      2.507734  
     249A      2.518408   250A      2.537337   251A      2.550492  
     252A      2.564049   253A      2.571619   254A      2.583191  
     255A      2.602000   256A      2.614032   257A      2.626478  
     258A      2.643654   259A      2.690938   260A      2.691855  
     261A      2.706533   262A      2.733686   263A      2.755536  
     264A      2.775729   265A      2.791597   266A      2.798149  
     267A      2.815275   268A      2.835977   269A      2.844021  
     270A      2.856170   271A      2.857428   272A      2.864543  
     273A      2.872769   274A      2.892681   275A      2.924524  
     276A      2.931122   277A      2.956210   278A      2.976785  
     279A      2.996338   280A      3.004598   281A      3.008793  
     282A      3.017392   283A      3.037055   284A      3.071505  
     285A      3.436099   286A      3.584444   287A      3.677644  
     288A      3.741992   289A      3.781402   290A      3.804823  
     291A      3.825622   292A      3.842598   293A      3.857971  
     294A      3.911287   295A      4.031414   296A      4.088596  
     297A      4.091421   298A      4.143947   299A      4.190882  
     300A      4.205830   301A      4.232618   302A      4.234970  
     303A      4.254730   304A      4.262612   305A      4.277994  
     306A      4.284306   307A      4.299608   308A      4.312871  
     309A      4.318582   310A      4.327062   311A      4.346076  
     312A      4.361232   313A      4.401899   314A      4.424146  
     315A      4.436523   316A      4.452557   317A      4.465475  
     318A      4.470270   319A      4.486452   320A      4.507800  
     321A      4.516148   322A      4.527027   323A      4.542220  
     324A      4.554272   325A      4.561707   326A      4.577971  
     327A      4.582786   328A      4.622862   329A      4.641630  
     330A      4.666938   331A      4.713489   332A      4.728159  
     333A      4.793359   334A      4.799460   335A      4.841960  
     336A      4.878859   337A      4.934965   338A      4.944952  
     339A      5.014552   340A      5.059279   341A      5.116362  
     342A      5.148841   343A      5.172037   344A      5.198207  
     345A      5.213007   346A      5.220028   347A      5.247667  
     348A      5.280030   349A      5.300632   350A      5.305060  
     351A      5.356319   352A      5.386394   353A      5.401036  
     354A      5.406827   355A      5.413392   356A      5.519809  
     357A      5.548026   358A      5.596538   359A      5.725578  
     360A      5.770510   361A      5.786816   362A      5.858559  
     363A      6.216469   364A      6.267605   365A      6.273773  
     366A      6.346915   367A      6.602753   368A      6.621467  
     369A      6.637045   370A      6.683124   371A      6.756063  
     372A      6.776437   373A      6.788440   374A      6.806047  
     375A      6.875469   376A      6.914850   377A      6.938980  
     378A      7.001985   379A      7.137831   380A      7.182468  
     381A      7.199381   382A      7.208691   383A      7.214192  
     384A      7.293964   385A      7.317431   386A      7.319885  
     387A      7.332952   388A      7.340270   389A      7.351579  
     390A      7.354278   391A      7.367975   392A      7.385493  
     393A      7.400224   394A      7.403645   395A      7.415346  
     396A      7.423026   397A      7.436130   398A      7.448799  
     399A      7.460835   400A      7.471126   401A      7.486479  
     402A      7.495502   403A      7.550254   404A      7.613244  
     405A      7.650558   406A      7.674692   407A      7.818826  
     408A      7.904280   409A      7.911371   410A      7.922324  
     411A      7.938256   412A      7.965267   413A      8.033284  
     414A      8.049866   415A      8.529922   416A      8.793810  
     417A      8.801317   418A      8.926738   419A     10.545100  
     420A     14.572357   421A     15.742237   422A     16.119207  
     423A     16.179309   424A     30.720574   425A     30.901707  
     426A     31.364278   427A    198.266620  

    Final Occupation by Irrep:
              A 
    DOCC [    20 ]
    NA   [    20 ]
    NB   [    20 ]

  @DF-RHF Final Energy:  -304.21333184707697

   => Energetics <=

    Nuclear Repulsion Energy =            117.5478758223134292
    One-Electron Energy =                -654.5597915456436340
    Two-Electron Energy =                 232.7985838762532182
    Total Energy =                       -304.2133318470769154

Computation Completed


Properties will be evaluated at   0.000000,   0.000000,   0.000000 [a0]

Properties computed using the SCF density matrix


 Multipole Moments:

 ------------------------------------------------------------------------------------
     Multipole            Electronic (a.u.)      Nuclear  (a.u.)        Total (a.u.)
 ------------------------------------------------------------------------------------

 L = 1.  Multiply by 2.5417464519 to convert [e a0] to [Debye]
 Dipole X            :         38.6112733          -39.1290962           -0.5178229
 Dipole Y            :         60.1590497          -61.1875669           -1.0285172
 Dipole Z            :        -31.5571856           32.0902349            0.5330493
 Magnitude           :                                                    1.2689089

 ------------------------------------------------------------------------------------

*** tstop() called on moses-razer at Sun Jan 21 22:06:09 2024
Module time:
	user time   =      41.64 seconds =       0.69 minutes
	system time =       1.45 seconds =       0.02 minutes
	total time  =         11 seconds =       0.18 minutes
Total time:
	user time   =     124.63 seconds =       2.08 minutes
	system time =       7.68 seconds =       0.13 minutes
	total time  =         35 seconds =       0.58 minutes
  Constructing Basis Sets for SAPT...

   => Loading Basis Set <=

    Name: (AUG-CC-PVTZ AUX)
    Role: RIFIT
    Keyword: DF_BASIS_SAPT
    atoms 1                     entry K          line  1282 file /home/kchung25/anaconda3/envs/p415env/share/psi4/basis/def2-qzvpp-ri.gbs 
    atoms 2, 5, 8, 11           entry O          line   264 file /home/kchung25/anaconda3/envs/p415env/share/psi4/basis/aug-cc-pvtz-ri.gbs 
    atoms 3-4, 6-7, 9-10, 12-13 entry H          line    30 file /home/kchung25/anaconda3/envs/p415env/share/psi4/basis/aug-cc-pvtz-ri.gbs 

   => Loading Basis Set <=

    Name: (AUG-CC-PVTZ AUX)
    Role: JKFIT
    Keyword: DF_BASIS_ELST
    atoms 1                     entry K          line  1152 file /home/kchung25/anaconda3/envs/p415env/share/psi4/basis/def2-universal-jkfit.gbs 
    atoms 2, 5, 8, 11           entry O          line   286 file /home/kchung25/anaconda3/envs/p415env/share/psi4/basis/aug-cc-pvtz-jkfit.gbs 
    atoms 3-4, 6-7, 9-10, 12-13 entry H          line    70 file /home/kchung25/anaconda3/envs/p415env/share/psi4/basis/aug-cc-pvtz-jkfit.gbs 


  //>>>>>>>>>>>>>>>>>>>>>>>>>>>>>>>>>>>//
  //               SAPT2+              //
  //<<<<<<<<<<<<<<<<<<<<<<<<<<<<<<<<<<<//


*** tstart() called on moses-razer
*** at Sun Jan 21 22:06:09 2024

        SAPT2+  
    Ed Hohenstein
     6 June 2009

      Orbital Information
  --------------------------
    NSO        =       427
    NMO        =       427
    NRI        =       991
    NOCC A     =         9
    NOCC B     =        20
    FOCC A     =         0
    FOCC B     =         0
    NVIR A     =       418
    NVIR B     =       407

    Estimated memory usage: 3062.6 MB

    Natural Orbital Cutoff:   1.000E-06
    Disp(T3) Truncation:            Yes
    CCD (vv|vv) Truncation:         Yes
    MBPT T2 Truncation:             Yes

    Monomer A: 384 virtual orbitals dropped
    Monomer B: 87 virtual orbitals dropped

    Elst10,r            =    -0.105383713719 [Eh]
    Exch10 (S^2)        =     0.045310355054 [Eh]
    Exch10              =     0.045530302522 [Eh]
    Ind20,r (A<-B)      =    -0.001760385135 [Eh]
    Ind20,r (B<-A)      =    -0.051729058326 [Eh]
    Ind20,r             =    -0.053489443461 [Eh]
    Exch-Ind20,r (A<-B) =     0.001418868136 [Eh]
    Exch-Ind20,r (B<-A) =     0.031013163717 [Eh]
    Exch-Ind20,r        =     0.032432031853 [Eh]
    Disp20              =    -0.012147268733 [Eh]
    Disp20 (NO)         =    -0.011167202679 [Eh]
    Exch-Disp20         =     0.001780487171 [Eh]
    Elst12,r            =     0.004723234989 [Eh]
    Exch11              =    -0.000205910824 [Eh]
    Exch12              =     0.004341047800 [Eh]
    Ind22               =    -0.008717079120 [Eh]
    Disp21              =     0.001711306615 [Eh]
    Disp22 (SDQ)        =    -0.000121962429 [Eh]

    (i =   1 of  20)          0 seconds
    (i =   2 of  20)          1 seconds
    (i =   3 of  20)          2 seconds
    (i =   4 of  20)          2 seconds
    (i =   5 of  20)          3 seconds
    (i =   6 of  20)          3 seconds
    (i =   7 of  20)          4 seconds
    (i =   8 of  20)          5 seconds
    (i =   9 of  20)          5 seconds
    (i =  10 of  20)          6 seconds
    (i =  11 of  20)          6 seconds
    (i =  12 of  20)          7 seconds
    (i =  13 of  20)          8 seconds
    (i =  14 of  20)          8 seconds
    (i =  15 of  20)          9 seconds
    (i =  16 of  20)          9 seconds
    (i =  17 of  20)         10 seconds
    (i =  18 of  20)         11 seconds
    (i =  19 of  20)         11 seconds
    (i =  20 of  20)         12 seconds

    Disp220 (T)         =    -0.000333143257 [Eh]

    (i =   1 of   9)         36 seconds
    (i =   2 of   9)         72 seconds
    (i =   3 of   9)        108 seconds
    (i =   4 of   9)        143 seconds
    (i =   5 of   9)        179 seconds
    (i =   6 of   9)        215 seconds
    (i =   7 of   9)        251 seconds
    (i =   8 of   9)        287 seconds
    (i =   9 of   9)        322 seconds

    Disp202 (T)         =    -0.000889680909 [Eh]

    Disp22 (T)          =    -0.001222824166 [Eh]

    Est. Disp220 (T)    =    -0.000362380874 [Eh]
    Est. Disp202 (T)    =    -0.000967761883 [Eh]

    Est. Disp22 (T)     =    -0.001330142757 [Eh]

    SAPT Results 
  --------------------------------------------------------------------------------------------------------
    Electrostatics               -100.66047873 [mEh]     -63.16540404 [kcal/mol]    -264.28405049 [kJ/mol]
      Elst10,r                   -105.38371372 [mEh]     -66.12927874 [kcal/mol]    -276.68490225 [kJ/mol]
      Elst12,r                      4.72323499 [mEh]       2.96387470 [kcal/mol]      12.40085175 [kJ/mol]

    Exchange                       49.66543950 [mEh]      31.16553380 [kcal/mol]     130.39659344 [kJ/mol]
      Exch10                       45.53030252 [mEh]      28.57069618 [kcal/mol]     119.53979280 [kJ/mol]
      Exch10(S^2)                  45.31035505 [mEh]      28.43267706 [kcal/mol]     118.96232081 [kJ/mol]
      Exch11(S^2)                  -0.20591082 [mEh]      -0.12921099 [kcal/mol]      -0.54061879 [kJ/mol]
      Exch12(S^2)                   4.34104780 [mEh]       2.72404862 [kcal/mol]      11.39741943 [kJ/mol]

    Induction                     -25.87447972 [mEh]     -16.23648115 [kcal/mol]     -67.93343713 [kJ/mol]
      Ind20,r                     -53.48944346 [mEh]     -33.56513252 [kcal/mol]    -140.43651446 [kJ/mol]
      Ind22                        -8.71707912 [mEh]      -5.47004973 [kcal/mol]     -22.88668808 [kJ/mol]
      Exch-Ind20,r                 32.43203185 [mEh]      20.35140724 [kcal/mol]      85.15028790 [kJ/mol]
      Exch-Ind22                    5.28539034 [mEh]       3.31663251 [kcal/mol]      13.87679042 [kJ/mol]
      delta HF,r (2)               -1.38537933 [mEh]      -0.86933865 [kcal/mol]      -3.63731292 [kJ/mol]

    Dispersion                    -10.10758013 [mEh]      -6.34260229 [kcal/mol]     -26.53744798 [kJ/mol]
      Disp20                      -12.14726873 [mEh]      -7.62252621 [kcal/mol]     -31.89264966 [kJ/mol]
      Disp21                        1.71130662 [mEh]       1.07386111 [kcal/mol]       4.49303490 [kJ/mol]
      Disp22 (SDQ)                 -0.12196243 [mEh]      -0.07653258 [kcal/mol]      -0.32021231 [kJ/mol]
      Disp22 (T)                   -1.22282417 [mEh]      -0.76733375 [kcal/mol]      -3.21052441 [kJ/mol]
      Est. Disp22 (T)              -1.33014276 [mEh]      -0.83467718 [kcal/mol]      -3.49228933 [kJ/mol]
      Exch-Disp20                   1.78048717 [mEh]       1.11727257 [kcal/mol]       4.67466842 [kJ/mol]

  Total HF                        -82.29620213 [mEh]     -51.64164649 [kcal/mol]    -216.06864893 [kJ/mol]
  Total SAPT0                     -92.66298369 [mEh]     -58.14690014 [kcal/mol]    -243.28663017 [kJ/mol]
  Total SAPT2                     -87.23630051 [mEh]     -54.74160503 [kcal/mol]    -229.03887543 [kJ/mol]
  Total SAPT2+                    -86.97709908 [mEh]     -54.57895367 [kcal/mol]    -228.35834217 [kJ/mol]

  Special recipe for scaled SAPT0 (see Manual):
    Electrostatics sSAPT0        -105.38371372 [mEh]     -66.12927874 [kcal/mol]    -276.68490225 [kJ/mol]
    Exchange sSAPT0                45.53030252 [mEh]      28.57069618 [kcal/mol]     119.53979280 [kJ/mol]
    Induction sSAPT0              -21.96819569 [mEh]     -13.78525092 [kcal/mol]     -57.67748985 [kJ/mol]
    Dispersion sSAPT0             -10.34072674 [mEh]      -6.48890400 [kcal/mol]     -27.14957432 [kJ/mol]
  Total sSAPT0                    -92.16233363 [mEh]     -57.83273748 [kcal/mol]    -241.97217361 [kJ/mol]
  --------------------------------------------------------------------------------------------------------

*** tstop() called on moses-razer at Sun Jan 21 22:17:06 2024
Module time:
	user time   =    3320.01 seconds =      55.33 minutes
	system time =      45.39 seconds =       0.76 minutes
	total time  =        657 seconds =      10.95 minutes
Total time:
	user time   =    3445.35 seconds =      57.42 minutes
	system time =      53.08 seconds =       0.88 minutes
	total time  =        692 seconds =      11.53 minutes

    Psi4 stopped on: Sunday, 21 January 2024 10:17PM
    Psi4 wall time for execution: 0:11:31.83

*** Psi4 exiting successfully. Buy a developer a beer!
