
    -----------------------------------------------------------------------
          Psi4: An Open-Source Ab Initio Electronic Structure Package
                               Psi4 1.9 release

                         Git: Rev {} zzzzzzz 


    D. G. A. Smith, L. A. Burns, A. C. Simmonett, R. M. Parrish,
    M. C. Schieber, R. Galvelis, P. Kraus, H. Kruse, R. Di Remigio,
    A. Alenaizan, A. M. James, S. Lehtola, J. P. Misiewicz, M. Scheurer,
    R. A. Shaw, J. B. Schriber, Y. Xie, Z. L. Glick, D. A. Sirianni,
    J. S. O'Brien, J. M. Waldrop, A. Kumar, E. G. Hohenstein,
    B. P. Pritchard, B. R. Brooks, H. F. Schaefer III, A. Yu. Sokolov,
    K. Patkowski, A. E. DePrince III, U. Bozkaya, R. A. King,
    F. A. Evangelista, J. M. Turney, T. D. Crawford, C. D. Sherrill,
    J. Chem. Phys. 152(18) 184108 (2020). https://doi.org/10.1063/5.0006002

                            Additional Code Authors
    E. T. Seidl, C. L. Janssen, E. F. Valeev, M. L. Leininger,
    J. F. Gonthier, R. M. Richard, H. R. McAlexander, M. Saitow, X. Wang,
    P. Verma, M. H. Lechner, A. Jiang, S. Behnle, A. G. Heide,
    M. F. Herbst, and D. L. Poole

             Previous Authors, Complete List of Code Contributors,
                       and Citations for Specific Modules
    https://github.com/psi4/psi4/blob/master/codemeta.json
    https://github.com/psi4/psi4/graphs/contributors
    http://psicode.org/psi4manual/master/introduction.html#citing-psifour

    -----------------------------------------------------------------------


    Psi4 started on: Monday, 22 January 2024 12:07AM

    Process ID: 1106828
    Host:       moses-razer
    PSIDATADIR: /home/kchung25/anaconda3/envs/psi4_19/share/psi4
    Memory:     500.0 MiB
    Threads:    6
    
  ==> Input File <==

--------------------------------------------------------------------------
MEMORY 60 GB

molecule dimer {
1 1
K      0.000000     0.000000     0.000000
--
0 1
O     -1.202188     2.642841     0.692677
H     -0.359877     2.846537     0.288544
H     -1.204085     2.921992     1.633837
O     -1.785275    -1.619405     1.542860
H     -1.608427    -2.541342     1.315844
H     -2.705446    -1.468932     1.288631
O      0.144826     0.555459     2.652150
H     -0.007468     1.382754     3.068522
H      0.885053     0.138197     3.140295
O      0.561667     0.361770    -2.784131
H      0.458919    -0.179426    -3.508356
H      0.977542     1.097592    -3.183885
O      1.915812    -1.620111     0.708210
H      2.736568    -1.603689     1.185820
H      2.168479    -1.743309    -0.203061
O      1.244176     2.226543    -0.413552
H      1.113277     2.980785    -0.948090
H      2.029386     2.478591     0.106543

units ang
no_reorient
no_com
symmetry c1
}

set {
basis        aug-cc-pVTZ
scf_type     df
}

energy("sapt2+")
--------------------------------------------------------------------------

  Memory set to  55.879 GiB by Python driver.

Scratch directory: /scratch/
   => Loading Basis Set <=

    Name: AUG-CC-PVTZ
    Role: ORBITAL
    Keyword: BASIS
    atoms 1                                   entry K          line  1152 file /home/kchung25/anaconda3/envs/p415env/share/psi4/basis/aug-cc-pvtz.gbs 
    atoms 2, 5, 8, 11, 14, 17                 entry O          line   331 file /home/kchung25/anaconda3/envs/p415env/share/psi4/basis/aug-cc-pvtz.gbs 
    atoms 3-4, 6-7, 9-10, 12-13, 15-16, 18-19 entry H          line    40 file /home/kchung25/anaconda3/envs/p415env/share/psi4/basis/aug-cc-pvtz.gbs 

   => Loading Basis Set <=

    Name: AUG-CC-PVTZ
    Role: ORBITAL
    Keyword: BASIS
    atoms 1                                   entry K          line  1152 file /home/kchung25/anaconda3/envs/p415env/share/psi4/basis/aug-cc-pvtz.gbs 
    atoms 2, 5, 8, 11, 14, 17                 entry O          line   331 file /home/kchung25/anaconda3/envs/p415env/share/psi4/basis/aug-cc-pvtz.gbs 
    atoms 3-4, 6-7, 9-10, 12-13, 15-16, 18-19 entry H          line    40 file /home/kchung25/anaconda3/envs/p415env/share/psi4/basis/aug-cc-pvtz.gbs 


  //>>>>>>>>>>>>>>>>>>>>>>>>>>>>>>>>>>>//
  //              Dimer HF             //
  //<<<<<<<<<<<<<<<<<<<<<<<<<<<<<<<<<<<//

   => Libint2 <=

    Primary   basis highest AM E, G, H:  5, 4, 3
    Auxiliary basis highest AM E, G, H:  6, 5, 4
    Onebody   basis highest AM E, G, H:  6, 5, 4
    Solid Harmonics ordering:            gaussian

*** tstart() called on moses-razer
*** at Mon Jan 22 00:07:33 2024

   => Loading Basis Set <=

    Name: AUG-CC-PVTZ
    Role: ORBITAL
    Keyword: BASIS
    atoms 1                                   entry K          line  1152 file /home/kchung25/anaconda3/envs/p415env/share/psi4/basis/aug-cc-pvtz.gbs 
    atoms 2, 5, 8, 11, 14, 17                 entry O          line   331 file /home/kchung25/anaconda3/envs/p415env/share/psi4/basis/aug-cc-pvtz.gbs 
    atoms 3-4, 6-7, 9-10, 12-13, 15-16, 18-19 entry H          line    40 file /home/kchung25/anaconda3/envs/p415env/share/psi4/basis/aug-cc-pvtz.gbs 


         ---------------------------------------------------------
                                   SCF
               by Justin Turney, Rob Parrish, Andy Simmonett
                          and Daniel G. A. Smith
                              RHF Reference
                        6 Threads,  57220 MiB Core
         ---------------------------------------------------------

  ==> Geometry <==

    Molecular point group: c1
    Full point group: C1

    Geometry (in Angstrom), charge = 1, multiplicity = 1:

       Center              X                  Y                   Z               Mass       
    ------------   -----------------  -----------------  -----------------  -----------------
         K            0.000000000000     0.000000000000     0.000000000000    38.963706486400
         O           -1.202188000000     2.642841000000     0.692677000000    15.994914619570
         H           -0.359877000000     2.846537000000     0.288544000000     1.007825032230
         H           -1.204085000000     2.921992000000     1.633837000000     1.007825032230
         O           -1.785275000000    -1.619405000000     1.542860000000    15.994914619570
         H           -1.608427000000    -2.541342000000     1.315844000000     1.007825032230
         H           -2.705446000000    -1.468932000000     1.288631000000     1.007825032230
         O            0.144826000000     0.555459000000     2.652150000000    15.994914619570
         H           -0.007468000000     1.382754000000     3.068522000000     1.007825032230
         H            0.885053000000     0.138197000000     3.140295000000     1.007825032230
         O            0.561667000000     0.361770000000    -2.784131000000    15.994914619570
         H            0.458919000000    -0.179426000000    -3.508356000000     1.007825032230
         H            0.977542000000     1.097592000000    -3.183885000000     1.007825032230
         O            1.915812000000    -1.620111000000     0.708210000000    15.994914619570
         H            2.736568000000    -1.603689000000     1.185820000000     1.007825032230
         H            2.168479000000    -1.743309000000    -0.203061000000     1.007825032230
         O            1.244176000000     2.226543000000    -0.413552000000    15.994914619570
         H            1.113277000000     2.980785000000    -0.948090000000     1.007825032230
         H            2.029386000000     2.478591000000     0.106543000000     1.007825032230

  Running in c1 symmetry.

  Rotational constants: A =      0.03536  B =      0.03025  C =      0.02393 [cm^-1]
  Rotational constants: A =   1060.02603  B =    906.88925  C =    717.48079 [MHz]
  Nuclear repulsion =  464.376296500182605

  Charge       = 1
  Multiplicity = 1
  Electrons    = 78
  Nalpha       = 39
  Nbeta        = 39

  ==> Algorithm <==

  SCF Algorithm Type is DF.
  DIIS enabled.
  MOM disabled.
  Fractional occupation disabled.
  Guess Type is SAD.
  Energy threshold   = 1.00e-08
  Density threshold  = 1.00e-08
  Integral threshold = 1.00e-12

  ==> Primary Basis <==

  Basis Set: AUG-CC-PVTZ
    Blend: AUG-CC-PVTZ
    Number of shells: 211
    Number of basis functions: 611
    Number of Cartesian functions: 699
    Spherical Harmonics?: true
    Max angular momentum: 3

   => Loading Basis Set <=

    Name: (AUG-CC-PVTZ AUX)
    Role: JKFIT
    Keyword: DF_BASIS_SCF
    atoms 1                                   entry K          line  1152 file /home/kchung25/anaconda3/envs/p415env/share/psi4/basis/def2-universal-jkfit.gbs 
    atoms 2, 5, 8, 11, 14, 17                 entry O          line   286 file /home/kchung25/anaconda3/envs/p415env/share/psi4/basis/aug-cc-pvtz-jkfit.gbs 
    atoms 3-4, 6-7, 9-10, 12-13, 15-16, 18-19 entry H          line    70 file /home/kchung25/anaconda3/envs/p415env/share/psi4/basis/aug-cc-pvtz-jkfit.gbs 

  ==> Integral Setup <==

  ==> DiskDFJK: Density-Fitted J/K Matrices <==

    J tasked:                  Yes
    K tasked:                  Yes
    wK tasked:                  No
    OpenMP threads:              6
    Integrals threads:           6
    Memory [MiB]:            42915
    Algorithm:                Core
    Integral Cache:           SAVE
    Schwarz Cutoff:          1E-12
    Fitting Condition:       1E-10

   => Auxiliary Basis Set <=

  Basis Set: (AUG-CC-PVTZ AUX)
    Blend: AUG-CC-PVTZ-JKFIT + DEF2-UNIVERSAL-JKFIT
    Number of shells: 392
    Number of basis functions: 1336
    Number of Cartesian functions: 1649
    Spherical Harmonics?: true
    Max angular momentum: 4

  Minimum eigenvalue in the overlap matrix is 4.2917436547E-05.
  Reciprocal condition number of the overlap matrix is 2.8064109880E-06.
    Using symmetric orthogonalization.

  ==> Pre-Iterations <==

  SCF Guess: Superposition of Atomic Densities via on-the-fly atomic UHF (no occupation information).

   -------------------------
    Irrep   Nso     Nmo    
   -------------------------
     A        611     611 
   -------------------------
    Total     611     611
   -------------------------

  ==> Iterations <==

                           Total Energy        Delta E     RMS |[F,P]|

   @DF-RHF iter SAD: -1052.35263443693225   -1.05235e+03   0.00000e+00 
   @DF-RHF iter   1: -1054.92160794064353   -2.56897e+00   1.93025e-03 DIIS/ADIIS
   @DF-RHF iter   2: -1055.26221384698169   -3.40606e-01   1.27984e-03 DIIS/ADIIS
   @DF-RHF iter   3: -1055.45155549731612   -1.89342e-01   9.14251e-05 DIIS
   @DF-RHF iter   4: -1055.45401335709744   -2.45786e-03   2.44572e-05 DIIS
   @DF-RHF iter   5: -1055.45417648653915   -1.63129e-04   8.17219e-06 DIIS
   @DF-RHF iter   6: -1055.45419414174467   -1.76552e-05   3.10025e-06 DIIS
   @DF-RHF iter   7: -1055.45419670633919   -2.56459e-06   5.97013e-07 DIIS
   @DF-RHF iter   8: -1055.45419688706124   -1.80722e-07   1.22336e-07 DIIS
   @DF-RHF iter   9: -1055.45419689344999   -6.38875e-09   3.47113e-08 DIIS
   @DF-RHF iter  10: -1055.45419689382447   -3.74484e-10   1.16542e-08 DIIS
   @DF-RHF iter  11: -1055.45419689385335   -2.88765e-11   3.84038e-09 DIIS
  Energy and wave function converged.


  ==> Post-Iterations <==

    Orbital Energies [Eh]
    ---------------------

    Doubly Occupied:                                                      

       1A   -133.580559     2A    -20.736005     3A    -20.713248  
       4A    -20.702447     5A    -20.692212     6A    -20.683910  
       7A    -20.673343     8A    -14.538870     9A    -11.568722  
      10A    -11.568696    11A    -11.568530    12A     -1.803491  
      13A     -1.536252    14A     -1.517413    15A     -1.508269  
      16A     -1.481054    17A     -1.466449    18A     -1.456417  
      19A     -1.016969    20A     -1.015616    21A     -1.012162  
      22A     -0.892480    23A     -0.871656    24A     -0.869348  
      25A     -0.849690    26A     -0.839585    27A     -0.830593  
      28A     -0.770194    29A     -0.748867    30A     -0.740477  
      31A     -0.718806    32A     -0.705039    33A     -0.697289  
      34A     -0.667657    35A     -0.663680    36A     -0.657484  
      37A     -0.639395    38A     -0.629065    39A     -0.618446  

    Virtual:                                                              

      40A     -0.089076    41A     -0.071789    42A     -0.068493  
      43A     -0.063198    44A     -0.050801    45A     -0.047938  
      46A     -0.046499    47A     -0.044340    48A     -0.042915  
      49A     -0.040364    50A     -0.036395    51A     -0.034234  
      52A     -0.031621    53A     -0.022901    54A     -0.021641  
      55A     -0.020727    56A     -0.019219    57A     -0.017721  
      58A     -0.014518    59A     -0.013087    60A     -0.011078  
      61A     -0.008549    62A     -0.005842    63A     -0.004307  
      64A     -0.001256    65A      0.001956    66A      0.007352  
      67A      0.012271    68A      0.015182    69A      0.020809  
      70A      0.022645    71A      0.028390    72A      0.043073  
      73A      0.044995    74A      0.047495    75A      0.051384  
      76A      0.066350    77A      0.067757    78A      0.071508  
      79A      0.072973    80A      0.076254    81A      0.084842  
      82A      0.086525    83A      0.088663    84A      0.090124  
      85A      0.095521    86A      0.099571    87A      0.102465  
      88A      0.108264    89A      0.114642    90A      0.118222  
      91A      0.123012    92A      0.125236    93A      0.132794  
      94A      0.135883    95A      0.139412    96A      0.143898  
      97A      0.146187    98A      0.150458    99A      0.153515  
     100A      0.154076   101A      0.163390   102A      0.168799  
     103A      0.175988   104A      0.178998   105A      0.183884  
     106A      0.190121   107A      0.200038   108A      0.202690  
     109A      0.205772   110A      0.209441   111A      0.214958  
     112A      0.221985   113A      0.227616   114A      0.236503  
     115A      0.239399   116A      0.248001   117A      0.253090  
     118A      0.258246   119A      0.264135   120A      0.273389  
     121A      0.283618   122A      0.289268   123A      0.295232  
     124A      0.297060   125A      0.301511   126A      0.304875  
     127A      0.307136   128A      0.310090   129A      0.311766  
     130A      0.314771   131A      0.323726   132A      0.327055  
     133A      0.332407   134A      0.338410   135A      0.342074  
     136A      0.345297   137A      0.346121   138A      0.346758  
     139A      0.354885   140A      0.358249   141A      0.361047  
     142A      0.363363   143A      0.369942   144A      0.374350  
     145A      0.380319   146A      0.382145   147A      0.389593  
     148A      0.393283   149A      0.398445   150A      0.399423  
     151A      0.401668   152A      0.406229   153A      0.408397  
     154A      0.414594   155A      0.425926   156A      0.430966  
     157A      0.440022   158A      0.442740   159A      0.447849  
     160A      0.451045   161A      0.456543   162A      0.462453  
     163A      0.469158   164A      0.476892   165A      0.492372  
     166A      0.493922   167A      0.504628   168A      0.516360  
     169A      0.534528   170A      0.543357   171A      0.547269  
     172A      0.557284   173A      0.568660   174A      0.574009  
     175A      0.580775   176A      0.602484   177A      0.610718  
     178A      0.616437   179A      0.619683   180A      0.627091  
     181A      0.636394   182A      0.646845   183A      0.655179  
     184A      0.666555   185A      0.673716   186A      0.682138  
     187A      0.691617   188A      0.692974   189A      0.704040  
     190A      0.713665   191A      0.720692   192A      0.724869  
     193A      0.728208   194A      0.738704   195A      0.742327  
     196A      0.750156   197A      0.766248   198A      0.771102  
     199A      0.778919   200A      0.781947   201A      0.789298  
     202A      0.792783   203A      0.800209   204A      0.809795  
     205A      0.815029   206A      0.824370   207A      0.828567  
     208A      0.838462   209A      0.840852   210A      0.848709  
     211A      0.854528   212A      0.861457   213A      0.864528  
     214A      0.873775   215A      0.878493   216A      0.887168  
     217A      0.891836   218A      0.899770   219A      0.901219  
     220A      0.907363   221A      0.924934   222A      0.927435  
     223A      0.930092   224A      0.940715   225A      0.943607  
     226A      0.946529   227A      0.949908   228A      0.957131  
     229A      0.960714   230A      0.969361   231A      0.973378  
     232A      0.978368   233A      0.980067   234A      0.989219  
     235A      0.996250   236A      0.998918   237A      1.001515  
     238A      1.010036   239A      1.015635   240A      1.021147  
     241A      1.025002   242A      1.034941   243A      1.038468  
     244A      1.042174   245A      1.047834   246A      1.052881  
     247A      1.054636   248A      1.064256   249A      1.067597  
     250A      1.074222   251A      1.080090   252A      1.084991  
     253A      1.095309   254A      1.105468   255A      1.107407  
     256A      1.108297   257A      1.122337   258A      1.133938  
     259A      1.139580   260A      1.147138   261A      1.153697  
     262A      1.156833   263A      1.160702   264A      1.173545  
     265A      1.182987   266A      1.184004   267A      1.201548  
     268A      1.209155   269A      1.214530   270A      1.229483  
     271A      1.234655   272A      1.237335   273A      1.250483  
     274A      1.254909   275A      1.258954   276A      1.270558  
     277A      1.272558   278A      1.279336   279A      1.302814  
     280A      1.308344   281A      1.313177   282A      1.322500  
     283A      1.337498   284A      1.352759   285A      1.359822  
     286A      1.364172   287A      1.402617   288A      1.417417  
     289A      1.440328   290A      1.447796   291A      1.475622  
     292A      1.483389   293A      1.488831   294A      1.499113  
     295A      1.516710   296A      1.532146   297A      1.539675  
     298A      1.553515   299A      1.565080   300A      1.570460  
     301A      1.586681   302A      1.592721   303A      1.616440  
     304A      1.629857   305A      1.636814   306A      1.638038  
     307A      1.662031   308A      1.682232   309A      1.715061  
     310A      1.728113   311A      1.741195   312A      1.756227  
     313A      1.772594   314A      1.795939   315A      1.811957  
     316A      1.823432   317A      1.830183   318A      1.850320  
     319A      1.856412   320A      1.891134   321A      1.905505  
     322A      1.908600   323A      1.919775   324A      1.925565  
     325A      1.931086   326A      1.938133   327A      1.963745  
     328A      1.987364   329A      2.023118   330A      2.033789  
     331A      2.038764   332A      2.068626   333A      2.092716  
     334A      2.132698   335A      2.192778   336A      2.197882  
     337A      2.201079   338A      2.208138   339A      2.225304  
     340A      2.236932   341A      2.242022   342A      2.256781  
     343A      2.264775   344A      2.273265   345A      2.281632  
     346A      2.294276   347A      2.300183   348A      2.313436  
     349A      2.321919   350A      2.331441   351A      2.342518  
     352A      2.354538   353A      2.359563   354A      2.369478  
     355A      2.373988   356A      2.392150   357A      2.409988  
     358A      2.415359   359A      2.423156   360A      2.431321  
     361A      2.445228   362A      2.454683   363A      2.461207  
     364A      2.468504   365A      2.480363   366A      2.498931  
     367A      2.501217   368A      2.523252   369A      2.529969  
     370A      2.547814   371A      2.559133   372A      2.563004  
     373A      2.589205   374A      2.604688   375A      2.611620  
     376A      2.626348   377A      2.643484   378A      2.645998  
     379A      2.661994   380A      2.673214   381A      2.679865  
     382A      2.688299   383A      2.696700   384A      2.698717  
     385A      2.709877   386A      2.723452   387A      2.729889  
     388A      2.743679   389A      2.744350   390A      2.772528  
     391A      2.777651   392A      2.778734   393A      2.788389  
     394A      2.799753   395A      2.804635   396A      2.809246  
     397A      2.821929   398A      2.836376   399A      2.845523  
     400A      2.853628   401A      2.869543   402A      2.883193  
     403A      2.894364   404A      2.901120   405A      2.914153  
     406A      2.968366   407A      3.101003   408A      3.622316  
     409A      3.641762   410A      3.648463   411A      3.667425  
     412A      3.705195   413A      3.716403   414A      3.720829  
     415A      3.737167   416A      3.762440   417A      3.781158  
     418A      3.821661   419A      3.927511   420A      3.954375  
     421A      3.970407   422A      3.984523   423A      4.002810  
     424A      4.014096   425A      4.039006   426A      4.058183  
     427A      4.070443   428A      4.082685   429A      4.103827  
     430A      4.107307   431A      4.123210   432A      4.136769  
     433A      4.145625   434A      4.149682   435A      4.155705  
     436A      4.162821   437A      4.166938   438A      4.176063  
     439A      4.188219   440A      4.200915   441A      4.208755  
     442A      4.225113   443A      4.237247   444A      4.245646  
     445A      4.280872   446A      4.287706   447A      4.299636  
     448A      4.317854   449A      4.322283   450A      4.328294  
     451A      4.341001   452A      4.357929   453A      4.364415  
     454A      4.372997   455A      4.379216   456A      4.385944  
     457A      4.393675   458A      4.404735   459A      4.410799  
     460A      4.413521   461A      4.415724   462A      4.426215  
     463A      4.443125   464A      4.446899   465A      4.454254  
     466A      4.477161   467A      4.485801   468A      4.498675  
     469A      4.505485   470A      4.527332   471A      4.570520  
     472A      4.620011   473A      4.658434   474A      4.684955  
     475A      4.688628   476A      4.705125   477A      4.717501  
     478A      4.723680   479A      4.738513   480A      4.758747  
     481A      4.770051   482A      4.791702   483A      4.815313  
     484A      4.882989   485A      4.895038   486A      4.951663  
     487A      5.022276   488A      5.034258   489A      5.038407  
     490A      5.044734   491A      5.047606   492A      5.057735  
     493A      5.090241   494A      5.097909   495A      5.113318  
     496A      5.123784   497A      5.150631   498A      5.173051  
     499A      5.178272   500A      5.187361   501A      5.233424  
     502A      5.234913   503A      5.236923   504A      5.256839  
     505A      5.268071   506A      5.295872   507A      5.345775  
     508A      5.397418   509A      5.401039   510A      5.413459  
     511A      5.420845   512A      5.441805   513A      5.461907  
     514A      5.530295   515A      5.627089   516A      5.649723  
     517A      5.664366   518A      5.672688   519A      5.742207  
     520A      5.764605   521A      5.790387   522A      6.111038  
     523A      6.131936   524A      6.168610   525A      6.199069  
     526A      6.225742   527A      6.286418   528A      6.449528  
     529A      6.467000   530A      6.496067   531A      6.511617  
     532A      6.532597   533A      6.540772   534A      6.599014  
     535A      6.620414   536A      6.629056   537A      6.656342  
     538A      6.675163   539A      6.711589   540A      6.795776  
     541A      6.806781   542A      6.813836   543A      6.815305  
     544A      6.862296   545A      6.956709   546A      7.042252  
     547A      7.057037   548A      7.058306   549A      7.066649  
     550A      7.080921   551A      7.107323   552A      7.168960  
     553A      7.175871   554A      7.190749   555A      7.193679  
     556A      7.200822   557A      7.203796   558A      7.210082  
     559A      7.217722   560A      7.219726   561A      7.223386  
     562A      7.228166   563A      7.234643   564A      7.252023  
     565A      7.256020   566A      7.260719   567A      7.267307  
     568A      7.272700   569A      7.277818   570A      7.288448  
     571A      7.292462   572A      7.300280   573A      7.303707  
     574A      7.324746   575A      7.334610   576A      7.353076  
     577A      7.367226   578A      7.387188   579A      7.407885  
     580A      7.414367   581A      7.477542   582A      7.482620  
     583A      7.487124   584A      7.548349   585A      7.594481  
     586A      7.639505   587A      7.742788   588A      7.787005  
     589A      7.792524   590A      7.797866   591A      7.809336  
     592A      7.817434   593A      7.820047   594A      7.834846  
     595A      7.888548   596A      7.892893   597A      7.975591  
     598A      8.023599   599A      8.059593   600A      8.690170  
     601A      8.704572   602A      8.716891   603A      8.741000  
     604A      8.830467   605A      8.923659   606A     15.684449  
     607A     16.042432   608A     16.194341   609A     16.492939  
     610A     16.843188   611A     17.132491  

    Final Occupation by Irrep:
              A 
    DOCC [    39 ]
    NA   [    39 ]
    NB   [    39 ]

  @DF-RHF Final Energy: -1055.45419689385335

   => Energetics <=

    Nuclear Repulsion Energy =            464.3762965001826046
    One-Electron Energy =               -2371.1602075866117048
    Two-Electron Energy =                 851.3297141925756932
    Total Energy =                      -1055.4541968938533500

Computation Completed


Properties will be evaluated at   0.000000,   0.000000,   0.000000 [a0]

Properties computed using the SCF density matrix


 Multipole Moments:

 ------------------------------------------------------------------------------------
     Multipole            Electronic (a.u.)      Nuclear  (a.u.)        Total (a.u.)
 ------------------------------------------------------------------------------------

 L = 1.  Multiply by 2.5417464519 to convert [e a0] to [Debye]
 Dipole X            :        -19.6845433           21.7622089            2.0776656
 Dipole Y            :        -49.5689753           50.4302254            0.8612501
 Dipole Z            :        -44.4517376           44.1635723           -0.2881653
 Magnitude           :                                                    2.2674843

 ------------------------------------------------------------------------------------

*** tstop() called on moses-razer at Mon Jan 22 00:08:10 2024
Module time:
	user time   =     180.34 seconds =       3.01 minutes
	system time =       6.24 seconds =       0.10 minutes
	total time  =         37 seconds =       0.62 minutes
Total time:
	user time   =     180.34 seconds =       3.01 minutes
	system time =       6.24 seconds =       0.10 minutes
	total time  =         37 seconds =       0.62 minutes

  //>>>>>>>>>>>>>>>>>>>>>>>>>>>>>>>>>>>//
  //            Monomer A HF           //
  //<<<<<<<<<<<<<<<<<<<<<<<<<<<<<<<<<<<//

   => Libint2 <=

    Primary   basis highest AM E, G, H:  5, 4, 3
    Auxiliary basis highest AM E, G, H:  6, 5, 4
    Onebody   basis highest AM E, G, H:  6, 5, 4
    Solid Harmonics ordering:            gaussian

*** tstart() called on moses-razer
*** at Mon Jan 22 00:08:10 2024

   => Loading Basis Set <=

    Name: AUG-CC-PVTZ
    Role: ORBITAL
    Keyword: BASIS
    atoms 1                                   entry K          line  1152 file /home/kchung25/anaconda3/envs/p415env/share/psi4/basis/aug-cc-pvtz.gbs 
    atoms 2, 5, 8, 11, 14, 17                 entry O          line   331 file /home/kchung25/anaconda3/envs/p415env/share/psi4/basis/aug-cc-pvtz.gbs 
    atoms 3-4, 6-7, 9-10, 12-13, 15-16, 18-19 entry H          line    40 file /home/kchung25/anaconda3/envs/p415env/share/psi4/basis/aug-cc-pvtz.gbs 


         ---------------------------------------------------------
                                   SCF
               by Justin Turney, Rob Parrish, Andy Simmonett
                          and Daniel G. A. Smith
                              RHF Reference
                        6 Threads,  57220 MiB Core
         ---------------------------------------------------------

  ==> Geometry <==

    Molecular point group: c1
    Full point group: C1

    Geometry (in Angstrom), charge = 1, multiplicity = 1:

       Center              X                  Y                   Z               Mass       
    ------------   -----------------  -----------------  -----------------  -----------------
         K            0.000000000000     0.000000000000     0.000000000000    38.963706486400
      Gh(O)          -1.202188000000     2.642841000000     0.692677000000    15.994914619570
      Gh(H)          -0.359877000000     2.846537000000     0.288544000000     1.007825032230
      Gh(H)          -1.204085000000     2.921992000000     1.633837000000     1.007825032230
      Gh(O)          -1.785275000000    -1.619405000000     1.542860000000    15.994914619570
      Gh(H)          -1.608427000000    -2.541342000000     1.315844000000     1.007825032230
      Gh(H)          -2.705446000000    -1.468932000000     1.288631000000     1.007825032230
      Gh(O)           0.144826000000     0.555459000000     2.652150000000    15.994914619570
      Gh(H)          -0.007468000000     1.382754000000     3.068522000000     1.007825032230
      Gh(H)           0.885053000000     0.138197000000     3.140295000000     1.007825032230
      Gh(O)           0.561667000000     0.361770000000    -2.784131000000    15.994914619570
      Gh(H)           0.458919000000    -0.179426000000    -3.508356000000     1.007825032230
      Gh(H)           0.977542000000     1.097592000000    -3.183885000000     1.007825032230
      Gh(O)           1.915812000000    -1.620111000000     0.708210000000    15.994914619570
      Gh(H)           2.736568000000    -1.603689000000     1.185820000000     1.007825032230
      Gh(H)           2.168479000000    -1.743309000000    -0.203061000000     1.007825032230
      Gh(O)           1.244176000000     2.226543000000    -0.413552000000    15.994914619570
      Gh(H)           1.113277000000     2.980785000000    -0.948090000000     1.007825032230
      Gh(H)           2.029386000000     2.478591000000     0.106543000000     1.007825032230

  Running in c1 symmetry.

  Rotational constants: A =      0.03536  B =      0.03025  C =      0.02393 [cm^-1]
  Rotational constants: A =   1060.02603  B =    906.88925  C =    717.48079 [MHz]
  Nuclear repulsion =    0.000000000000000

  Charge       = 1
  Multiplicity = 1
  Electrons    = 18
  Nalpha       = 9
  Nbeta        = 9

  ==> Algorithm <==

  SCF Algorithm Type is DF.
  DIIS enabled.
  MOM disabled.
  Fractional occupation disabled.
  Guess Type is SAD.
  Energy threshold   = 1.00e-08
  Density threshold  = 1.00e-08
  Integral threshold = 1.00e-12

  ==> Primary Basis <==

  Basis Set: AUG-CC-PVTZ
    Blend: AUG-CC-PVTZ
    Number of shells: 211
    Number of basis functions: 611
    Number of Cartesian functions: 699
    Spherical Harmonics?: true
    Max angular momentum: 3

   => Loading Basis Set <=

    Name: (AUG-CC-PVTZ AUX)
    Role: JKFIT
    Keyword: DF_BASIS_SCF
    atoms 1                                   entry K          line  1152 file /home/kchung25/anaconda3/envs/p415env/share/psi4/basis/def2-universal-jkfit.gbs 
    atoms 2, 5, 8, 11, 14, 17                 entry O          line   286 file /home/kchung25/anaconda3/envs/p415env/share/psi4/basis/aug-cc-pvtz-jkfit.gbs 
    atoms 3-4, 6-7, 9-10, 12-13, 15-16, 18-19 entry H          line    70 file /home/kchung25/anaconda3/envs/p415env/share/psi4/basis/aug-cc-pvtz-jkfit.gbs 

  ==> Integral Setup <==

  ==> DiskDFJK: Density-Fitted J/K Matrices <==

    J tasked:                  Yes
    K tasked:                  Yes
    wK tasked:                  No
    OpenMP threads:              6
    Integrals threads:           6
    Memory [MiB]:            42915
    Algorithm:                Core
    Integral Cache:           LOAD
    Schwarz Cutoff:          1E-12
    Fitting Condition:       1E-10

   => Auxiliary Basis Set <=

  Basis Set: (AUG-CC-PVTZ AUX)
    Blend: AUG-CC-PVTZ-JKFIT + DEF2-UNIVERSAL-JKFIT
    Number of shells: 392
    Number of basis functions: 1336
    Number of Cartesian functions: 1649
    Spherical Harmonics?: true
    Max angular momentum: 4

  Minimum eigenvalue in the overlap matrix is 4.2917436547E-05.
  Reciprocal condition number of the overlap matrix is 2.8064109880E-06.
    Using symmetric orthogonalization.

  ==> Pre-Iterations <==

  SCF Guess: Superposition of Atomic Densities via on-the-fly atomic UHF (no occupation information).

   -------------------------
    Irrep   Nso     Nmo    
   -------------------------
     A        611     611 
   -------------------------
    Total     611     611
   -------------------------

  ==> Iterations <==

                           Total Energy        Delta E     RMS |[F,P]|

   @DF-RHF iter SAD:  -599.05176926543822   -5.99052e+02   0.00000e+00 
   @DF-RHF iter   1:  -599.01745528706613    3.43140e-02   1.91541e-05 DIIS
   @DF-RHF iter   2:  -599.01751554174280   -6.02547e-05   2.15711e-06 DIIS
   @DF-RHF iter   3:  -599.01751690004778   -1.35830e-06   3.92857e-07 DIIS
   @DF-RHF iter   4:  -599.01751693452036   -3.44726e-08   2.09202e-08 DIIS
   @DF-RHF iter   5:  -599.01751693462734   -1.06979e-10   3.54188e-09 DIIS
  Energy and wave function converged.


  ==> Post-Iterations <==

    Orbital Energies [Eh]
    ---------------------

    Doubly Occupied:                                                      

       1A   -133.752491     2A    -14.708192     3A    -11.738253  
       4A    -11.738252     5A    -11.738251     6A     -1.963880  
       7A     -1.170594     8A     -1.170582     9A     -1.170573  

    Virtual:                                                              

      10A     -0.146958    11A     -0.095555    12A     -0.095552  
      13A     -0.095551    14A     -0.060684    15A     -0.057994  
      16A     -0.057991    17A     -0.057957    18A     -0.057934  
      19A     -0.057908    20A     -0.045541    21A     -0.045540  
      22A     -0.045539    23A     -0.031408    24A     -0.031358  
      25A     -0.031305    26A     -0.031294    27A     -0.031283  
      28A     -0.019337    29A     -0.019161    30A     -0.018697  
      31A     -0.017646    32A     -0.015607    33A     -0.014760  
      34A     -0.014124    35A     -0.011736    36A     -0.011601  
      37A     -0.009880    38A      0.000758    39A      0.002690  
      40A      0.006283    41A      0.008605    42A      0.008737  
      43A      0.009922    44A      0.019636    45A      0.023750  
      46A      0.027954    47A      0.030226    48A      0.034378  
      49A      0.040056    50A      0.050283    51A      0.051781  
      52A      0.052903    53A      0.055168    54A      0.058640  
      55A      0.061968    56A      0.069371    57A      0.075501  
      58A      0.083887    59A      0.084193    60A      0.088526  
      61A      0.089562    62A      0.092634    63A      0.095815  
      64A      0.098714    65A      0.101215    66A      0.106721  
      67A      0.114628    68A      0.119954    69A      0.121820  
      70A      0.129620    71A      0.131538    72A      0.140083  
      73A      0.141146    74A      0.149591    75A      0.155203  
      76A      0.157880    77A      0.169298    78A      0.171777  
      79A      0.180578    80A      0.182134    81A      0.189975  
      82A      0.194421    83A      0.201237    84A      0.205193  
      85A      0.207344    86A      0.212137    87A      0.223552  
      88A      0.225866    89A      0.231078    90A      0.235878  
      91A      0.238785    92A      0.246688    93A      0.251232  
      94A      0.257242    95A      0.260616    96A      0.267879  
      97A      0.274262    98A      0.275178    99A      0.280312  
     100A      0.281371   101A      0.287551   102A      0.289760  
     103A      0.292274   104A      0.295640   105A      0.297084  
     106A      0.309275   107A      0.311075   108A      0.313618  
     109A      0.321184   110A      0.325524   111A      0.327406  
     112A      0.330847   113A      0.332615   114A      0.336880  
     115A      0.339721   116A      0.348312   117A      0.353762  
     118A      0.354377   119A      0.360591   120A      0.364383  
     121A      0.366833   122A      0.371288   123A      0.376155  
     124A      0.386547   125A      0.389682   126A      0.392347  
     127A      0.397696   128A      0.403812   129A      0.413901  
     130A      0.415544   131A      0.425640   132A      0.429143  
     133A      0.431935   134A      0.442603   135A      0.450057  
     136A      0.459228   137A      0.465476   138A      0.472674  
     139A      0.474866   140A      0.497432   141A      0.511010  
     142A      0.515516   143A      0.554316   144A      0.560068  
     145A      0.579158   146A      0.592349   147A      0.607365  
     148A      0.615115   149A      0.617775   150A      0.629425  
     151A      0.636447   152A      0.642279   153A      0.648268  
     154A      0.656077   155A      0.660781   156A      0.669467  
     157A      0.678953   158A      0.682725   159A      0.691463  
     160A      0.692923   161A      0.699680   162A      0.703294  
     163A      0.708904   164A      0.719074   165A      0.724216  
     166A      0.729123   167A      0.737461   168A      0.743015  
     169A      0.749519   170A      0.759985   171A      0.767003  
     172A      0.770396   173A      0.772112   174A      0.779135  
     175A      0.784229   176A      0.785993   177A      0.794459  
     178A      0.797236   179A      0.807254   180A      0.809014  
     181A      0.816636   182A      0.825128   183A      0.833579  
     184A      0.837880   185A      0.844125   186A      0.847110  
     187A      0.851074   188A      0.857718   189A      0.860615  
     190A      0.871465   191A      0.876127   192A      0.887996  
     193A      0.894271   194A      0.899034   195A      0.901314  
     196A      0.906204   197A      0.910046   198A      0.917826  
     199A      0.927284   200A      0.935332   201A      0.941049  
     202A      0.952823   203A      0.958332   204A      0.960595  
     205A      0.969821   206A      0.973169   207A      0.984151  
     208A      0.986780   209A      0.990709   210A      0.999178  
     211A      1.003787   212A      1.011757   213A      1.017613  
     214A      1.024366   215A      1.032685   216A      1.035466  
     217A      1.038623   218A      1.047094   219A      1.057262  
     220A      1.061548   221A      1.067748   222A      1.074531  
     223A      1.076206   224A      1.083669   225A      1.090564  
     226A      1.093696   227A      1.100980   228A      1.106878  
     229A      1.110209   230A      1.121880   231A      1.123001  
     232A      1.130670   233A      1.145391   234A      1.153800  
     235A      1.160247   236A      1.165707   237A      1.167555  
     238A      1.190667   239A      1.196393   240A      1.198559  
     241A      1.203514   242A      1.215187   243A      1.233392  
     244A      1.244697   245A      1.249457   246A      1.268787  
     247A      1.273889   248A      1.288098   249A      1.302517  
     250A      1.317916   251A      1.322877   252A      1.350278  
     253A      1.364057   254A      1.380583   255A      1.389228  
     256A      1.406308   257A      1.410667   258A      1.415966  
     259A      1.429495   260A      1.443434   261A      1.448252  
     262A      1.453358   263A      1.484933   264A      1.501542  
     265A      1.504433   266A      1.516943   267A      1.532653  
     268A      1.575898   269A      1.584391   270A      1.611086  
     271A      1.615534   272A      1.629851   273A      1.639451  
     274A      1.652621   275A      1.656671   276A      1.668089  
     277A      1.681550   278A      1.690277   279A      1.697636  
     280A      1.699696   281A      1.713786   282A      1.723384  
     283A      1.730175   284A      1.734764   285A      1.753652  
     286A      1.764544   287A      1.771275   288A      1.782765  
     289A      1.787555   290A      1.801800   291A      1.813231  
     292A      1.835273   293A      1.840280   294A      1.859632  
     295A      1.868252   296A      1.879808   297A      1.918402  
     298A      1.924240   299A      1.937457   300A      1.945787  
     301A      1.969721   302A      2.009820   303A      2.016293  
     304A      2.046418   305A      2.091476   306A      2.208893  
     307A      2.215380   308A      2.235295   309A      2.253289  
     310A      2.274425   311A      2.297748   312A      2.303605  
     313A      2.318005   314A      2.330031   315A      2.362373  
     316A      2.363132   317A      2.373094   318A      2.383673  
     319A      2.383953   320A      2.389211   321A      2.398563  
     322A      2.403034   323A      2.408037   324A      2.419193  
     325A      2.424509   326A      2.431600   327A      2.437337  
     328A      2.452624   329A      2.454936   330A      2.467339  
     331A      2.472215   332A      2.482182   333A      2.491193  
     334A      2.512746   335A      2.520963   336A      2.540368  
     337A      2.549169   338A      2.560887   339A      2.569315  
     340A      2.574741   341A      2.595482   342A      2.604253  
     343A      2.611406   344A      2.632803   345A      2.655139  
     346A      2.672927   347A      2.692981   348A      2.695694  
     349A      2.707932   350A      2.719457   351A      2.731213  
     352A      2.742895   353A      2.747512   354A      2.783078  
     355A      2.809116   356A      2.834046   357A      2.869524  
     358A      2.923781   359A      2.932343   360A      3.036249  
     361A      3.043419   362A      3.051701   363A      3.058527  
     364A      3.073255   365A      3.081967   366A      3.085711  
     367A      3.101158   368A      3.105808   369A      3.119582  
     370A      3.128031   371A      3.130720   372A      3.158035  
     373A      3.162767   374A      3.174157   375A      3.180375  
     376A      3.181948   377A      3.189065   378A      3.203488  
     379A      3.208733   380A      3.223525   381A      3.228083  
     382A      3.236048   383A      3.241195   384A      3.273665  
     385A      3.296974   386A      3.306596   387A      3.314815  
     388A      3.343317   389A      3.421908   390A      3.438682  
     391A      3.460811   392A      3.480997   393A      3.503672  
     394A      3.514207   395A      3.527039   396A      3.540732  
     397A      3.560809   398A      3.598899   399A      3.610246  
     400A      3.639848   401A      3.788781   402A      4.225141  
     403A      4.225671   404A      4.276045   405A      4.305521  
     406A      4.312232   407A      4.326275   408A      4.351383  
     409A      4.353417   410A      4.356234   411A      4.365474  
     412A      4.378975   413A      4.389467   414A      4.397451  
     415A      4.403659   416A      4.419091   417A      4.428430  
     418A      4.465629   419A      4.478084   420A      4.481181  
     421A      4.491645   422A      4.509294   423A      4.524148  
     424A      4.531033   425A      4.542887   426A      4.556567  
     427A      4.563253   428A      4.581830   429A      4.587999  
     430A      4.594801   431A      4.619939   432A      4.631108  
     433A      4.635470   434A      4.658189   435A      4.692062  
     436A      4.732063   437A      4.750825   438A      4.766921  
     439A      4.779381   440A      4.789683   441A      4.794305  
     442A      4.819263   443A      4.825689   444A      4.833612  
     445A      4.846596   446A      4.853646   447A      4.861843  
     448A      4.879538   449A      4.910305   450A      4.918234  
     451A      4.929859   452A      4.962305   453A      5.016747  
     454A      5.041393   455A      5.053502   456A      5.069673  
     457A      5.097073   458A      5.108860   459A      5.136544  
     460A      5.194146   461A      5.204585   462A      5.329983  
     463A      5.359606   464A      5.397228   465A      5.416264  
     466A      5.432293   467A      5.445202   468A      5.458846  
     469A      5.461565   470A      5.478909   471A      5.495176  
     472A      5.509537   473A      5.527176   474A      5.578440  
     475A      5.583889   476A      5.605657   477A      5.629324  
     478A      5.643160   479A      5.675608   480A      5.693326  
     481A      5.712980   482A      5.725853   483A      5.762978  
     484A      5.863765   485A      5.901166   486A      5.975839  
     487A      5.978935   488A      5.986728   489A      6.035600  
     490A      6.093884   491A      6.174463   492A      6.230333  
     493A      6.267354   494A      6.272015   495A      6.293745  
     496A      6.323787   497A      6.394239   498A      6.513504  
     499A      6.559469   500A      6.596819   501A      6.613648  
     502A      6.671387   503A      6.710095   504A      6.896636  
     505A      6.947660   506A      6.957050   507A      6.983727  
     508A      7.049930   509A      7.133231   510A      7.494691  
     511A      7.502826   512A      7.533193   513A      7.541190  
     514A      7.576998   515A      7.583330   516A      7.645071  
     517A      7.653839   518A      7.657897   519A      7.666076  
     520A      7.764791   521A      7.793672   522A      7.906037  
     523A      7.909797   524A      7.924603   525A      7.938731  
     526A      7.980722   527A      7.996770   528A      8.003878  
     529A      8.026228   530A      8.042488   531A      8.052593  
     532A      8.061776   533A      8.103372   534A      8.118461  
     535A      8.123374   536A      8.144663   537A      8.177705  
     538A      8.207740   539A      8.288634   540A      8.545439  
     541A      8.579454   542A      8.632044   543A      8.638190  
     544A      8.655152   545A      8.689400   546A      8.700831  
     547A      8.722389   548A      8.771868   549A      8.812506  
     550A      8.890684   551A      8.924370   552A      9.600902  
     553A      9.620533   554A      9.634974   555A      9.648848  
     556A      9.686840   557A      9.747680   558A      9.764048  
     559A      9.771868   560A      9.781274   561A      9.787858  
     562A      9.806114   563A      9.836490   564A      9.840622  
     565A      9.851169   566A      9.860961   567A      9.866612  
     568A      9.967082   569A     10.031148   570A     10.043401  
     571A     10.051941   572A     10.083000   573A     10.088581  
     574A     10.093806   575A     10.125712   576A     10.967504  
     577A     11.010685   578A     11.013102   579A     11.099245  
     580A     11.112611   581A     11.357716   582A     11.522636  
     583A     11.531348   584A     11.563587   585A     11.590378  
     586A     11.698700   587A     11.819017   588A     11.929580  
     589A     12.083619   590A     12.096599   591A     12.138995  
     592A     12.376072   593A     12.445619   594A     13.367816  
     595A     13.427643   596A     13.456877   597A     13.480107  
     598A     13.588151   599A     13.645346   600A     13.661211  
     601A     13.704057   602A     13.740915   603A     13.784441  
     604A     13.833573   605A     13.894771   606A     64.505439  
     607A     65.253172   608A     65.514858   609A     66.375324  
     610A     66.922231   611A     67.194417  

    Final Occupation by Irrep:
              A 
    DOCC [     9 ]
    NA   [     9 ]
    NB   [     9 ]

  @DF-RHF Final Energy:  -599.01751693462734

   => Energetics <=

    Nuclear Repulsion Energy =              0.0000000000000000
    One-Electron Energy =                -819.7328974652174338
    Two-Electron Energy =                 220.7153805305901813
    Total Energy =                       -599.0175169346272241

Computation Completed


Properties will be evaluated at   0.000000,   0.000000,   0.000000 [a0]

Properties computed using the SCF density matrix


 Multipole Moments:

 ------------------------------------------------------------------------------------
     Multipole            Electronic (a.u.)      Nuclear  (a.u.)        Total (a.u.)
 ------------------------------------------------------------------------------------

 L = 1.  Multiply by 2.5417464519 to convert [e a0] to [Debye]
 Dipole X            :          0.0001244            0.0000000            0.0001244
 Dipole Y            :          0.0000762            0.0000000            0.0000762
 Dipole Z            :          0.0001626            0.0000000            0.0001626
 Magnitude           :                                                    0.0002185

 ------------------------------------------------------------------------------------

*** tstop() called on moses-razer at Mon Jan 22 00:08:27 2024
Module time:
	user time   =      70.00 seconds =       1.17 minutes
	system time =       2.89 seconds =       0.05 minutes
	total time  =         17 seconds =       0.28 minutes
Total time:
	user time   =     250.37 seconds =       4.17 minutes
	system time =       9.13 seconds =       0.15 minutes
	total time  =         54 seconds =       0.90 minutes

  //>>>>>>>>>>>>>>>>>>>>>>>>>>>>>>>>>>>//
  //            Monomer B HF           //
  //<<<<<<<<<<<<<<<<<<<<<<<<<<<<<<<<<<<//

   => Libint2 <=

    Primary   basis highest AM E, G, H:  5, 4, 3
    Auxiliary basis highest AM E, G, H:  6, 5, 4
    Onebody   basis highest AM E, G, H:  6, 5, 4
    Solid Harmonics ordering:            gaussian

*** tstart() called on moses-razer
*** at Mon Jan 22 00:08:27 2024

   => Loading Basis Set <=

    Name: AUG-CC-PVTZ
    Role: ORBITAL
    Keyword: BASIS
    atoms 1                                   entry K          line  1152 file /home/kchung25/anaconda3/envs/p415env/share/psi4/basis/aug-cc-pvtz.gbs 
    atoms 2, 5, 8, 11, 14, 17                 entry O          line   331 file /home/kchung25/anaconda3/envs/p415env/share/psi4/basis/aug-cc-pvtz.gbs 
    atoms 3-4, 6-7, 9-10, 12-13, 15-16, 18-19 entry H          line    40 file /home/kchung25/anaconda3/envs/p415env/share/psi4/basis/aug-cc-pvtz.gbs 


         ---------------------------------------------------------
                                   SCF
               by Justin Turney, Rob Parrish, Andy Simmonett
                          and Daniel G. A. Smith
                              RHF Reference
                        6 Threads,  57220 MiB Core
         ---------------------------------------------------------

  ==> Geometry <==

    Molecular point group: c1
    Full point group: C1

    Geometry (in Angstrom), charge = 0, multiplicity = 1:

       Center              X                  Y                   Z               Mass       
    ------------   -----------------  -----------------  -----------------  -----------------
      Gh(K)           0.000000000000     0.000000000000     0.000000000000    38.963706486400
         O           -1.202188000000     2.642841000000     0.692677000000    15.994914619570
         H           -0.359877000000     2.846537000000     0.288544000000     1.007825032230
         H           -1.204085000000     2.921992000000     1.633837000000     1.007825032230
         O           -1.785275000000    -1.619405000000     1.542860000000    15.994914619570
         H           -1.608427000000    -2.541342000000     1.315844000000     1.007825032230
         H           -2.705446000000    -1.468932000000     1.288631000000     1.007825032230
         O            0.144826000000     0.555459000000     2.652150000000    15.994914619570
         H           -0.007468000000     1.382754000000     3.068522000000     1.007825032230
         H            0.885053000000     0.138197000000     3.140295000000     1.007825032230
         O            0.561667000000     0.361770000000    -2.784131000000    15.994914619570
         H            0.458919000000    -0.179426000000    -3.508356000000     1.007825032230
         H            0.977542000000     1.097592000000    -3.183885000000     1.007825032230
         O            1.915812000000    -1.620111000000     0.708210000000    15.994914619570
         H            2.736568000000    -1.603689000000     1.185820000000     1.007825032230
         H            2.168479000000    -1.743309000000    -0.203061000000     1.007825032230
         O            1.244176000000     2.226543000000    -0.413552000000    15.994914619570
         H            1.113277000000     2.980785000000    -0.948090000000     1.007825032230
         H            2.029386000000     2.478591000000     0.106543000000     1.007825032230

  Running in c1 symmetry.

  Rotational constants: A =      0.03536  B =      0.03025  C =      0.02393 [cm^-1]
  Rotational constants: A =   1060.02603  B =    906.88925  C =    717.48079 [MHz]
  Nuclear repulsion =  252.707897542188107

  Charge       = 0
  Multiplicity = 1
  Electrons    = 60
  Nalpha       = 30
  Nbeta        = 30

  ==> Algorithm <==

  SCF Algorithm Type is DF.
  DIIS enabled.
  MOM disabled.
  Fractional occupation disabled.
  Guess Type is SAD.
  Energy threshold   = 1.00e-08
  Density threshold  = 1.00e-08
  Integral threshold = 1.00e-12

  ==> Primary Basis <==

  Basis Set: AUG-CC-PVTZ
    Blend: AUG-CC-PVTZ
    Number of shells: 211
    Number of basis functions: 611
    Number of Cartesian functions: 699
    Spherical Harmonics?: true
    Max angular momentum: 3

   => Loading Basis Set <=

    Name: (AUG-CC-PVTZ AUX)
    Role: JKFIT
    Keyword: DF_BASIS_SCF
    atoms 1                                   entry K          line  1152 file /home/kchung25/anaconda3/envs/p415env/share/psi4/basis/def2-universal-jkfit.gbs 
    atoms 2, 5, 8, 11, 14, 17                 entry O          line   286 file /home/kchung25/anaconda3/envs/p415env/share/psi4/basis/aug-cc-pvtz-jkfit.gbs 
    atoms 3-4, 6-7, 9-10, 12-13, 15-16, 18-19 entry H          line    70 file /home/kchung25/anaconda3/envs/p415env/share/psi4/basis/aug-cc-pvtz-jkfit.gbs 

  ==> Integral Setup <==

  ==> DiskDFJK: Density-Fitted J/K Matrices <==

    J tasked:                  Yes
    K tasked:                  Yes
    wK tasked:                  No
    OpenMP threads:              6
    Integrals threads:           6
    Memory [MiB]:            42915
    Algorithm:                Core
    Integral Cache:           LOAD
    Schwarz Cutoff:          1E-12
    Fitting Condition:       1E-10

   => Auxiliary Basis Set <=

  Basis Set: (AUG-CC-PVTZ AUX)
    Blend: AUG-CC-PVTZ-JKFIT + DEF2-UNIVERSAL-JKFIT
    Number of shells: 392
    Number of basis functions: 1336
    Number of Cartesian functions: 1649
    Spherical Harmonics?: true
    Max angular momentum: 4

  Minimum eigenvalue in the overlap matrix is 4.2917436547E-05.
  Reciprocal condition number of the overlap matrix is 2.8064109880E-06.
    Using symmetric orthogonalization.

  ==> Pre-Iterations <==

  SCF Guess: Superposition of Atomic Densities via on-the-fly atomic UHF (no occupation information).

   -------------------------
    Irrep   Nso     Nmo    
   -------------------------
     A        611     611 
   -------------------------
    Total     611     611
   -------------------------

  ==> Iterations <==

                           Total Energy        Delta E     RMS |[F,P]|

   @DF-RHF iter SAD:  -453.08656955279639   -4.53087e+02   0.00000e+00 
   @DF-RHF iter   1:  -455.80308472804643   -2.71652e+00   1.90150e-03 DIIS/ADIIS
   @DF-RHF iter   2:  -456.12610289420297   -3.23018e-01   1.31146e-03 DIIS/ADIIS
   @DF-RHF iter   3:  -456.32802992704904   -2.01927e-01   9.14563e-05 DIIS
   @DF-RHF iter   4:  -456.33062199288787   -2.59207e-03   2.43238e-05 DIIS
   @DF-RHF iter   5:  -456.33079323651720   -1.71244e-04   8.60030e-06 DIIS
   @DF-RHF iter   6:  -456.33081371874897   -2.04822e-05   3.23354e-06 DIIS
   @DF-RHF iter   7:  -456.33081679977943   -3.08103e-06   6.70740e-07 DIIS
   @DF-RHF iter   8:  -456.33081705033368   -2.50554e-07   1.31526e-07 DIIS
   @DF-RHF iter   9:  -456.33081705872405   -8.39037e-09   4.22943e-08 DIIS
   @DF-RHF iter  10:  -456.33081705915424   -4.30191e-10   1.41505e-08 DIIS
   @DF-RHF iter  11:  -456.33081705921256   -5.83213e-11   3.86555e-09 DIIS
  Energy and wave function converged.


  ==> Post-Iterations <==

    Orbital Energies [Eh]
    ---------------------

    Doubly Occupied:                                                      

       1A    -20.569500     2A    -20.546757     3A    -20.542210  
       4A    -20.527573     5A    -20.524001     6A    -20.514900  
       7A     -1.365245     8A     -1.360127     9A     -1.332547  
      10A     -1.313013    11A     -1.304006    12A     -1.295509  
      13A     -0.723317    14A     -0.712188    15A     -0.697800  
      16A     -0.684179    17A     -0.676706    18A     -0.669637  
      19A     -0.592611    20A     -0.579030    21A     -0.560405  
      22A     -0.545395    23A     -0.538914    24A     -0.527032  
      25A     -0.501296    26A     -0.497297    27A     -0.486555  
      28A     -0.469858    29A     -0.463730    30A     -0.455326  

    Virtual:                                                              

      31A      0.004184    32A      0.007911    33A      0.008922  
      34A      0.013563    35A      0.017537    36A      0.018362  
      37A      0.018987    38A      0.019862    39A      0.019937  
      40A      0.031962    41A      0.034718    42A      0.036211  
      43A      0.050809    44A      0.054147    45A      0.059974  
      46A      0.062500    47A      0.064450    48A      0.065053  
      49A      0.070463    50A      0.070902    51A      0.074713  
      52A      0.077944    53A      0.079818    54A      0.083312  
      55A      0.088203    56A      0.090380    57A      0.096644  
      58A      0.098675    59A      0.104369    60A      0.105294  
      61A      0.133132    62A      0.135493    63A      0.151388  
      64A      0.152456    65A      0.162384    66A      0.163664  
      67A      0.173875    68A      0.179353    69A      0.180982  
      70A      0.182655    71A      0.186436    72A      0.193092  
      73A      0.197607    74A      0.200123    75A      0.206469  
      76A      0.209940    77A      0.211943    78A      0.220472  
      79A      0.225417    80A      0.227704    81A      0.235986  
      82A      0.238570    83A      0.240591    84A      0.246233  
      85A      0.247322    86A      0.254472    87A      0.260038  
      88A      0.264121    89A      0.267112    90A      0.277891  
      91A      0.283457    92A      0.292242    93A      0.296170  
      94A      0.306738    95A      0.310511    96A      0.318540  
      97A      0.325066    98A      0.331166    99A      0.333260  
     100A      0.337624   101A      0.343706   102A      0.354220  
     103A      0.362070   104A      0.367285   105A      0.371484  
     106A      0.378040   107A      0.385698   108A      0.394777  
     109A      0.400400   110A      0.403036   111A      0.416180  
     112A      0.419757   113A      0.421773   114A      0.425209  
     115A      0.429823   116A      0.438875   117A      0.440430  
     118A      0.444606   119A      0.448719   120A      0.455917  
     121A      0.458035   122A      0.459852   123A      0.463275  
     124A      0.466977   125A      0.471073   126A      0.474570  
     127A      0.478098   128A      0.480716   129A      0.483762  
     130A      0.491163   131A      0.497480   132A      0.497929  
     133A      0.504474   134A      0.511753   135A      0.516260  
     136A      0.518637   137A      0.523680   138A      0.529129  
     139A      0.533789   140A      0.534798   141A      0.538722  
     142A      0.549740   143A      0.558450   144A      0.564911  
     145A      0.569536   146A      0.577291   147A      0.579026  
     148A      0.589605   149A      0.596256   150A      0.602976  
     151A      0.612740   152A      0.625118   153A      0.647010  
     154A      0.660416   155A      0.673400   156A      0.683348  
     157A      0.697528   158A      0.707944   159A      0.713754  
     160A      0.723496   161A      0.731415   162A      0.741764  
     163A      0.746119   164A      0.751171   165A      0.762121  
     166A      0.770178   167A      0.773092   168A      0.788005  
     169A      0.794188   170A      0.804625   171A      0.808658  
     172A      0.815231   173A      0.821781   174A      0.834444  
     175A      0.835828   176A      0.845653   177A      0.854985  
     178A      0.860531   179A      0.866348   180A      0.869485  
     181A      0.880730   182A      0.885322   183A      0.896880  
     184A      0.902051   185A      0.909169   186A      0.912900  
     187A      0.918068   188A      0.925469   189A      0.936119  
     190A      0.947160   191A      0.951953   192A      0.957842  
     193A      0.967436   194A      0.973912   195A      0.975593  
     196A      0.984590   197A      0.989337   198A      0.996838  
     199A      1.000471   200A      1.004738   201A      1.014890  
     202A      1.019247   203A      1.026553   204A      1.032657  
     205A      1.037788   206A      1.039712   207A      1.045699  
     208A      1.054293   209A      1.055581   210A      1.066842  
     211A      1.075593   212A      1.080266   213A      1.085905  
     214A      1.088423   215A      1.090018   216A      1.096446  
     217A      1.101133   218A      1.110628   219A      1.113859  
     220A      1.118818   221A      1.123601   222A      1.126215  
     223A      1.134865   224A      1.135229   225A      1.149989  
     226A      1.158370   227A      1.161784   228A      1.169022  
     229A      1.172734   230A      1.180585   231A      1.181448  
     232A      1.186866   233A      1.192786   234A      1.204425  
     235A      1.210194   236A      1.215926   237A      1.216908  
     238A      1.219899   239A      1.231557   240A      1.236797  
     241A      1.246359   242A      1.251632   243A      1.256079  
     244A      1.265907   245A      1.279400   246A      1.286106  
     247A      1.295997   248A      1.298869   249A      1.304417  
     250A      1.309059   251A      1.321472   252A      1.326059  
     253A      1.335440   254A      1.349654   255A      1.361768  
     256A      1.363239   257A      1.375086   258A      1.379212  
     259A      1.388984   260A      1.398621   261A      1.404542  
     262A      1.408430   263A      1.422353   264A      1.428410  
     265A      1.438291   266A      1.453587   267A      1.457114  
     268A      1.465700   269A      1.474871   270A      1.494184  
     271A      1.503451   272A      1.510868   273A      1.524003  
     274A      1.528395   275A      1.567981   276A      1.577412  
     277A      1.613104   278A      1.618567   279A      1.628596  
     280A      1.637891   281A      1.652084   282A      1.658204  
     283A      1.680175   284A      1.692196   285A      1.699976  
     286A      1.711679   287A      1.717146   288A      1.724201  
     289A      1.742339   290A      1.766702   291A      1.778836  
     292A      1.789070   293A      1.807813   294A      1.810562  
     295A      1.829722   296A      1.875222   297A      1.882523  
     298A      1.889899   299A      1.900702   300A      1.921443  
     301A      1.950433   302A      1.958900   303A      1.971838  
     304A      1.977918   305A      2.004882   306A      2.013733  
     307A      2.021000   308A      2.052292   309A      2.061430  
     310A      2.067716   311A      2.073859   312A      2.076663  
     313A      2.082507   314A      2.131098   315A      2.179968  
     316A      2.186298   317A      2.196490   318A      2.222557  
     319A      2.244523   320A      2.265588   321A      2.329596  
     322A      2.340414   323A      2.348191   324A      2.360782  
     325A      2.378717   326A      2.382472   327A      2.393879  
     328A      2.400107   329A      2.410000   330A      2.415809  
     331A      2.424707   332A      2.435938   333A      2.437306  
     334A      2.446143   335A      2.457152   336A      2.469389  
     337A      2.479341   338A      2.482992   339A      2.490777  
     340A      2.517187   341A      2.521575   342A      2.529956  
     343A      2.538125   344A      2.548136   345A      2.569239  
     346A      2.572706   347A      2.581238   348A      2.589055  
     349A      2.599646   350A      2.603839   351A      2.608671  
     352A      2.612392   353A      2.627436   354A      2.648112  
     355A      2.654859   356A      2.667217   357A      2.674139  
     358A      2.682178   359A      2.690898   360A      2.712478  
     361A      2.728323   362A      2.736267   363A      2.758613  
     364A      2.776226   365A      2.789689   366A      2.794638  
     367A      2.809235   368A      2.812055   369A      2.826380  
     370A      2.830626   371A      2.841073   372A      2.851111  
     373A      2.861754   374A      2.865880   375A      2.874348  
     376A      2.878979   377A      2.887460   378A      2.903144  
     379A      2.916347   380A      2.932718   381A      2.937989  
     382A      2.951004   383A      2.951946   384A      2.974362  
     385A      2.980094   386A      2.986641   387A      2.987334  
     388A      2.995475   389A      3.014678   390A      3.025212  
     391A      3.032911   392A      3.046596   393A      3.057056  
     394A      3.063129   395A      3.086353   396A      3.117896  
     397A      3.150568   398A      3.226737   399A      3.263587  
     400A      3.280959   401A      3.475118   402A      3.725722  
     403A      3.790495   404A      3.808584   405A      3.817600  
     406A      3.826645   407A      3.874315   408A      3.883239  
     409A      3.892197   410A      3.905291   411A      3.931187  
     412A      3.972731   413A      3.993352   414A      4.098572  
     415A      4.120736   416A      4.130829   417A      4.135493  
     418A      4.168197   419A      4.184645   420A      4.203048  
     421A      4.217304   422A      4.230631   423A      4.248151  
     424A      4.267902   425A      4.278772   426A      4.291340  
     427A      4.298877   428A      4.306308   429A      4.314765  
     430A      4.322201   431A      4.328763   432A      4.336787  
     433A      4.341837   434A      4.358385   435A      4.368405  
     436A      4.375659   437A      4.390417   438A      4.405845  
     439A      4.414625   440A      4.444911   441A      4.458518  
     442A      4.463306   443A      4.482017   444A      4.487450  
     445A      4.499113   446A      4.518648   447A      4.523165  
     448A      4.525028   449A      4.536742   450A      4.542494  
     451A      4.549182   452A      4.553271   453A      4.566852  
     454A      4.571612   455A      4.576431   456A      4.583037  
     457A      4.600514   458A      4.609513   459A      4.617854  
     460A      4.622718   461A      4.640431   462A      4.644812  
     463A      4.663177   464A      4.672476   465A      4.692988  
     466A      4.730521   467A      4.786862   468A      4.824040  
     469A      4.847447   470A      4.851593   471A      4.871775  
     472A      4.880309   473A      4.891633   474A      4.898947  
     475A      4.925951   476A      4.933137   477A      4.954109  
     478A      4.978108   479A      5.041984   480A      5.053112  
     481A      5.114940   482A      5.180762   483A      5.194562  
     484A      5.199596   485A      5.213169   486A      5.219370  
     487A      5.226815   488A      5.254939   489A      5.257558  
     490A      5.268903   491A      5.282992   492A      5.314274  
     493A      5.338261   494A      5.351255   495A      5.355955  
     496A      5.390854   497A      5.394398   498A      5.405410  
     499A      5.428197   500A      5.431315   501A      5.461857  
     502A      5.509827   503A      5.557199   504A      5.563307  
     505A      5.578882   506A      5.591102   507A      5.608796  
     508A      5.626182   509A      5.684477   510A      5.794204  
     511A      5.814628   512A      5.833330   513A      5.847410  
     514A      5.909152   515A      5.938630   516A      5.964342  
     517A      6.272708   518A      6.307868   519A      6.338806  
     520A      6.377050   521A      6.391185   522A      6.471988  
     523A      6.624047   524A      6.628939   525A      6.660585  
     526A      6.684495   527A      6.696909   528A      6.713927  
     529A      6.765030   530A      6.786172   531A      6.805523  
     532A      6.832104   533A      6.851171   534A      6.873892  
     535A      6.966271   536A      6.975978   537A      6.980208  
     538A      6.987370   539A      7.038427   540A      7.117155  
     541A      7.217001   542A      7.221058   543A      7.227794  
     544A      7.233345   545A      7.250793   546A      7.277626  
     547A      7.338779   548A      7.343332   549A      7.362166  
     550A      7.366366   551A      7.367220   552A      7.370132  
     553A      7.375184   554A      7.381126   555A      7.392326  
     556A      7.394041   557A      7.398584   558A      7.402686  
     559A      7.417121   560A      7.424284   561A      7.428882  
     562A      7.435750   563A      7.444364   564A      7.447173  
     565A      7.456903   566A      7.462093   567A      7.470562  
     568A      7.476888   569A      7.497740   570A      7.504377  
     571A      7.511717   572A      7.531324   573A      7.552583  
     574A      7.577438   575A      7.582501   576A      7.643680  
     577A      7.647640   578A      7.658467   579A      7.716656  
     580A      7.753174   581A      7.803166   582A      7.916086  
     583A      7.947559   584A      7.961988   585A      7.965464  
     586A      7.972091   587A      7.984669   588A      7.986592  
     589A      8.012974   590A      8.058237   591A      8.063742  
     592A      8.137251   593A      8.184874   594A      8.227917  
     595A      8.849882   596A      8.863958   597A      8.882441  
     598A      8.914835   599A      8.999374   600A      9.080204  
     601A     10.618699   602A     15.845205   603A     16.206119  
     604A     16.365701   605A     16.654974   606A     17.007205  
     607A     17.287782   608A     31.153497   609A     31.425065  
     610A     31.496407   611A    198.398697  

    Final Occupation by Irrep:
              A 
    DOCC [    30 ]
    NA   [    30 ]
    NB   [    30 ]

  @DF-RHF Final Energy:  -456.33081705921256

   => Energetics <=

    Nuclear Repulsion Energy =            252.7078975421881069
    One-Electron Energy =               -1134.9240919523690536
    Two-Electron Energy =                 425.8853773509683833
    Total Energy =                       -456.3308170592125634

Computation Completed


Properties will be evaluated at   0.000000,   0.000000,   0.000000 [a0]

Properties computed using the SCF density matrix


 Multipole Moments:

 ------------------------------------------------------------------------------------
     Multipole            Electronic (a.u.)      Nuclear  (a.u.)        Total (a.u.)
 ------------------------------------------------------------------------------------

 L = 1.  Multiply by 2.5417464519 to convert [e a0] to [Debye]
 Dipole X            :        -19.8543742           21.7622089            1.9078347
 Dipole Y            :        -49.7916453           50.4302254            0.6385800
 Dipole Z            :        -44.7280622           44.1635723           -0.5644899
 Magnitude           :                                                    2.0895614

 ------------------------------------------------------------------------------------

*** tstop() called on moses-razer at Mon Jan 22 00:08:55 2024
Module time:
	user time   =     139.37 seconds =       2.32 minutes
	system time =       2.32 seconds =       0.04 minutes
	total time  =         28 seconds =       0.47 minutes
Total time:
	user time   =     389.76 seconds =       6.50 minutes
	system time =      11.45 seconds =       0.19 minutes
	total time  =         82 seconds =       1.37 minutes
  Constructing Basis Sets for SAPT...

   => Loading Basis Set <=

    Name: (AUG-CC-PVTZ AUX)
    Role: RIFIT
    Keyword: DF_BASIS_SAPT
    atoms 1                                   entry K          line  1282 file /home/kchung25/anaconda3/envs/p415env/share/psi4/basis/def2-qzvpp-ri.gbs 
    atoms 2, 5, 8, 11, 14, 17                 entry O          line   264 file /home/kchung25/anaconda3/envs/p415env/share/psi4/basis/aug-cc-pvtz-ri.gbs 
    atoms 3-4, 6-7, 9-10, 12-13, 15-16, 18-19 entry H          line    30 file /home/kchung25/anaconda3/envs/p415env/share/psi4/basis/aug-cc-pvtz-ri.gbs 

   => Loading Basis Set <=

    Name: (AUG-CC-PVTZ AUX)
    Role: JKFIT
    Keyword: DF_BASIS_ELST
    atoms 1                                   entry K          line  1152 file /home/kchung25/anaconda3/envs/p415env/share/psi4/basis/def2-universal-jkfit.gbs 
    atoms 2, 5, 8, 11, 14, 17                 entry O          line   286 file /home/kchung25/anaconda3/envs/p415env/share/psi4/basis/aug-cc-pvtz-jkfit.gbs 
    atoms 3-4, 6-7, 9-10, 12-13, 15-16, 18-19 entry H          line    70 file /home/kchung25/anaconda3/envs/p415env/share/psi4/basis/aug-cc-pvtz-jkfit.gbs 


  //>>>>>>>>>>>>>>>>>>>>>>>>>>>>>>>>>>>//
  //               SAPT2+              //
  //<<<<<<<<<<<<<<<<<<<<<<<<<<<<<<<<<<<//


*** tstart() called on moses-razer
*** at Mon Jan 22 00:08:55 2024

        SAPT2+  
    Ed Hohenstein
     6 June 2009

      Orbital Information
  --------------------------
    NSO        =       611
    NMO        =       611
    NRI        =      1387
    NOCC A     =         9
    NOCC B     =        30
    FOCC A     =         0
    FOCC B     =         0
    NVIR A     =       602
    NVIR B     =       581

    Estimated memory usage: 11849.2 MB

    Natural Orbital Cutoff:   1.000E-06
    Disp(T3) Truncation:            Yes
    CCD (vv|vv) Truncation:         Yes
    MBPT T2 Truncation:             Yes

    Monomer A: 564 virtual orbitals dropped
    Monomer B: 99 virtual orbitals dropped

    Elst10,r            =    -0.120940608710 [Eh]
    Exch10 (S^2)        =     0.041390361419 [Eh]
    Exch10              =     0.041510152216 [Eh]
    Ind20,r (A<-B)      =    -0.001708385174 [Eh]
    Ind20,r (B<-A)      =    -0.050957670594 [Eh]
    Ind20,r             =    -0.052666055767 [Eh]
    Exch-Ind20,r (A<-B) =     0.001296228821 [Eh]
    Exch-Ind20,r (B<-A) =     0.026527309519 [Eh]
    Exch-Ind20,r        =     0.027823538341 [Eh]
    Disp20              =    -0.013714924994 [Eh]
    Disp20 (NO)         =    -0.012733162627 [Eh]
    Exch-Disp20         =     0.001737729071 [Eh]
    Elst12,r            =     0.005932926376 [Eh]
    Exch11              =    -0.000346045419 [Eh]
    Exch12              =     0.004667444474 [Eh]
    Ind22               =    -0.009166679235 [Eh]
    Disp21              =     0.002027471280 [Eh]
    Disp22 (SDQ)        =    -0.000188515872 [Eh]

    (i =   1 of  30)          2 seconds
    (i =   2 of  30)          3 seconds
    (i =   3 of  30)          5 seconds
    (i =   4 of  30)          7 seconds
    (i =   5 of  30)          8 seconds
    (i =   6 of  30)         10 seconds
    (i =   7 of  30)         11 seconds
    (i =   8 of  30)         13 seconds
    (i =   9 of  30)         15 seconds
    (i =  10 of  30)         16 seconds
    (i =  11 of  30)         18 seconds
    (i =  12 of  30)         19 seconds
    (i =  13 of  30)         21 seconds
    (i =  14 of  30)         23 seconds
    (i =  15 of  30)         24 seconds
    (i =  16 of  30)         26 seconds
    (i =  17 of  30)         28 seconds
    (i =  18 of  30)         29 seconds
    (i =  19 of  30)         31 seconds
    (i =  20 of  30)         32 seconds
    (i =  21 of  30)         34 seconds
    (i =  22 of  30)         36 seconds
    (i =  23 of  30)         37 seconds
    (i =  24 of  30)         39 seconds
    (i =  25 of  30)         40 seconds
    (i =  26 of  30)         42 seconds
    (i =  27 of  30)         44 seconds
    (i =  28 of  30)         45 seconds
    (i =  29 of  30)         47 seconds
    (i =  30 of  30)         48 seconds

    Disp220 (T)         =    -0.000403741900 [Eh]

    (i =   1 of   9)        251 seconds
    (i =   2 of   9)        502 seconds
    (i =   3 of   9)        751 seconds
    (i =   4 of   9)        999 seconds
    (i =   5 of   9)       1247 seconds
    (i =   6 of   9)       1495 seconds
    (i =   7 of   9)       1743 seconds
    (i =   8 of   9)       1992 seconds
    (i =   9 of   9)       2240 seconds

    Disp202 (T)         =    -0.001033680417 [Eh]

    Disp22 (T)          =    -0.001437422317 [Eh]

    Est. Disp220 (T)    =    -0.000434871527 [Eh]
    Est. Disp202 (T)    =    -0.001113380061 [Eh]

    Est. Disp22 (T)     =    -0.001548251589 [Eh]

    SAPT Results 
  --------------------------------------------------------------------------------------------------------
    Electrostatics               -115.00768233 [mEh]     -72.16841022 [kcal/mol]    -301.95262837 [kJ/mol]
      Elst10,r                   -120.94060871 [mEh]     -75.89137773 [kcal/mol]    -317.52952442 [kJ/mol]
      Elst12,r                      5.93292638 [mEh]       3.72296751 [kcal/mol]      15.57689606 [kJ/mol]

    Exchange                       45.83155127 [mEh]      28.75973262 [kcal/mol]     120.33072128 [kJ/mol]
      Exch10                       41.51015222 [mEh]      26.04801377 [kcal/mol]     108.98488963 [kJ/mol]
      Exch10(S^2)                  41.39036142 [mEh]      25.97284391 [kcal/mol]     108.67037893 [kJ/mol]
      Exch11(S^2)                  -0.34604542 [mEh]      -0.21714678 [kcal/mol]      -0.90854212 [kJ/mol]
      Exch12(S^2)                   4.66744447 [mEh]       2.92886563 [kcal/mol]      12.25437378 [kJ/mol]

    Induction                     -30.75635548 [mEh]     -19.29990444 [kcal/mol]     -80.75080020 [kJ/mol]
      Ind20,r                     -52.66605577 [mEh]     -33.04844894 [kcal/mol]    -138.27471037 [kJ/mol]
      Ind22                        -9.16667923 [mEh]      -5.75217806 [kcal/mol]     -24.06711302 [kJ/mol]
      Exch-Ind20,r                 27.82353834 [mEh]      17.45953390 [kcal/mol]      73.05068985 [kJ/mol]
      Exch-Ind22                    4.84276727 [mEh]       3.03888234 [kcal/mol]      12.71468372 [kJ/mol]
      delta HF,r (2)               -1.58992609 [mEh]      -0.99769369 [kcal/mol]      -4.17435038 [kJ/mol]

    Dispersion                    -11.68649210 [mEh]      -7.33338451 [kcal/mol]     -30.68288079 [kJ/mol]
      Disp20                      -13.71492499 [mEh]      -8.60624537 [kcal/mol]     -36.00853061 [kJ/mol]
      Disp21                        2.02747128 [mEh]       1.27225744 [kcal/mol]       5.32312511 [kJ/mol]
      Disp22 (SDQ)                 -0.18851587 [mEh]      -0.11829550 [kcal/mol]      -0.49494835 [kJ/mol]
      Disp22 (T)                   -1.43742232 [mEh]      -0.90199612 [kcal/mol]      -3.77395177 [kJ/mol]
      Est. Disp22 (T)              -1.54825159 [mEh]      -0.97154254 [kcal/mol]      -4.06493399 [kJ/mol]
      Exch-Disp20                   1.73772907 [mEh]       1.09044146 [kcal/mol]       4.56240705 [kJ/mol]

  Total HF                       -105.86290001 [mEh]     -66.42997268 [kcal/mol]    -277.94300569 [kJ/mol]
  Total SAPT0                    -117.84009594 [mEh]     -73.94577659 [kcal/mol]    -309.38912925 [kJ/mol]
  Total SAPT2                    -111.90968247 [mEh]     -70.22438596 [kcal/mol]    -293.81883084 [kJ/mol]
  Total SAPT2+                   -111.61897865 [mEh]     -70.04196656 [kcal/mol]    -293.05558807 [kJ/mol]

  Special recipe for scaled SAPT0 (see Manual):
    Electrostatics sSAPT0        -120.94060871 [mEh]     -75.89137773 [kcal/mol]    -317.52952442 [kJ/mol]
    Exchange sSAPT0                41.51015222 [mEh]      26.04801377 [kcal/mol]     108.98488963 [kJ/mol]
    Induction sSAPT0              -26.19016542 [mEh]     -16.43457692 [kcal/mol]     -68.76226983 [kJ/mol]
    Dispersion sSAPT0             -11.96206436 [mEh]      -7.50630871 [kcal/mol]     -31.40639564 [kJ/mol]
  Total sSAPT0                   -117.58268627 [mEh]     -73.78424958 [kcal/mol]    -308.71330026 [kJ/mol]
  --------------------------------------------------------------------------------------------------------

*** tstop() called on moses-razer at Mon Jan 22 01:21:08 2024
Module time:
	user time   =   21115.53 seconds =     351.93 minutes
	system time =     140.96 seconds =       2.35 minutes
	total time  =       4333 seconds =      72.22 minutes
Total time:
	user time   =   21506.23 seconds =     358.44 minutes
	system time =     152.42 seconds =       2.54 minutes
	total time  =       4415 seconds =      73.58 minutes

    Psi4 stopped on: Monday, 22 January 2024 01:21AM
    Psi4 wall time for execution: 1:13:34.85

*** Psi4 exiting successfully. Buy a developer a beer!
