
    -----------------------------------------------------------------------
          Psi4: An Open-Source Ab Initio Electronic Structure Package
                               Psi4 1.8.2 release

                         Git: Rev {} zzzzzzz 


    D. G. A. Smith, L. A. Burns, A. C. Simmonett, R. M. Parrish,
    M. C. Schieber, R. Galvelis, P. Kraus, H. Kruse, R. Di Remigio,
    A. Alenaizan, A. M. James, S. Lehtola, J. P. Misiewicz, M. Scheurer,
    R. A. Shaw, J. B. Schriber, Y. Xie, Z. L. Glick, D. A. Sirianni,
    J. S. O'Brien, J. M. Waldrop, A. Kumar, E. G. Hohenstein,
    B. P. Pritchard, B. R. Brooks, H. F. Schaefer III, A. Yu. Sokolov,
    K. Patkowski, A. E. DePrince III, U. Bozkaya, R. A. King,
    F. A. Evangelista, J. M. Turney, T. D. Crawford, C. D. Sherrill,
    J. Chem. Phys. 152(18) 184108 (2020). https://doi.org/10.1063/5.0006002

                            Additional Code Authors
    E. T. Seidl, C. L. Janssen, E. F. Valeev, M. L. Leininger,
    J. F. Gonthier, R. M. Richard, H. R. McAlexander, M. Saitow, X. Wang,
    P. Verma, M. H. Lechner, A. Jiang, S. Behnle, A. G. Heide,
    M. F. Herbst, and D. L. Poole

             Previous Authors, Complete List of Code Contributors,
                       and Citations for Specific Modules
    https://github.com/psi4/psi4/blob/master/codemeta.json
    https://github.com/psi4/psi4/graphs/contributors
    http://psicode.org/psi4manual/master/introduction.html#citing-psifour

    -----------------------------------------------------------------------


    Psi4 started on: Tuesday, 09 January 2024 02:35PM

    Process ID: 269978
    Host:       ddmfs1
    PSIDATADIR: /ddmfs1b/softs/psi4conda/share/psi4
    Memory:     500.0 MiB
    Threads:    20
    
  ==> Input File <==

--------------------------------------------------------------------------
MEMORY 60 GB

molecule dimer {
-1 1
F      0.000000     0.000000     0.000000
--
0 1
O     -2.200509     1.323634     0.710260
H     -1.503891     0.683674     0.540733
H     -2.315484     1.737995    -0.119068
O     -1.967079    -2.020860    -0.122763
H     -1.318963    -1.305195     0.136157
H     -1.696741    -2.218317    -1.007498
O      0.991465    -1.547512     2.500463
H      0.667023    -1.154030     1.676389
H      0.516695    -1.090567     3.200283
O      2.410120     0.780079    -1.095237
H      3.060268     0.046287    -0.902074
H      1.654642     0.711894    -0.477528
O      1.437300    -2.134809    -0.746584
H      1.223810    -2.927188    -0.210324
H      0.772852    -1.490569    -0.481987
O     -0.357139     2.126165    -1.924590
H     -0.018848     1.313137    -1.513999
H      0.141845     2.856791    -1.535479

units ang
no_reorient
no_com
symmetry c1
}

set {
basis        aug-cc-pVTZ
scf_type     df
}

energy("sapt2+")
--------------------------------------------------------------------------

  Memory set to  55.879 GiB by Python driver.

Scratch directory: /ddmfs1a/scratch/
   => Loading Basis Set <=

    Name: AUG-CC-PVTZ
    Role: ORBITAL
    Keyword: BASIS
    atoms 1                                   entry F          line   377 file /ddmfs1b/softs/psi4conda/share/psi4/basis/aug-cc-pvtz.gbs 
    atoms 2, 5, 8, 11, 14, 17                 entry O          line   331 file /ddmfs1b/softs/psi4conda/share/psi4/basis/aug-cc-pvtz.gbs 
    atoms 3-4, 6-7, 9-10, 12-13, 15-16, 18-19 entry H          line    40 file /ddmfs1b/softs/psi4conda/share/psi4/basis/aug-cc-pvtz.gbs 

   => Loading Basis Set <=

    Name: AUG-CC-PVTZ
    Role: ORBITAL
    Keyword: BASIS
    atoms 1                                   entry F          line   377 file /ddmfs1b/softs/psi4conda/share/psi4/basis/aug-cc-pvtz.gbs 
    atoms 2, 5, 8, 11, 14, 17                 entry O          line   331 file /ddmfs1b/softs/psi4conda/share/psi4/basis/aug-cc-pvtz.gbs 
    atoms 3-4, 6-7, 9-10, 12-13, 15-16, 18-19 entry H          line    40 file /ddmfs1b/softs/psi4conda/share/psi4/basis/aug-cc-pvtz.gbs 


  //>>>>>>>>>>>>>>>>>>>>>>>>>>>>>>>>>>>//
  //              Dimer HF             //
  //<<<<<<<<<<<<<<<<<<<<<<<<<<<<<<<<<<<//

   => Libint2 <=

    Primary   basis highest AM E, G, H:  5, 4, 3
    Auxiliary basis highest AM E, G, H:  6, 5, 4
    Onebody   basis highest AM E, G, H:  6, 5, 4
    Solid Harmonics ordering:            gaussian

*** tstart() called on ddmfs1
*** at Tue Jan  9 14:35:46 2024

   => Loading Basis Set <=

    Name: AUG-CC-PVTZ
    Role: ORBITAL
    Keyword: BASIS
    atoms 1                                   entry F          line   377 file /ddmfs1b/softs/psi4conda/share/psi4/basis/aug-cc-pvtz.gbs 
    atoms 2, 5, 8, 11, 14, 17                 entry O          line   331 file /ddmfs1b/softs/psi4conda/share/psi4/basis/aug-cc-pvtz.gbs 
    atoms 3-4, 6-7, 9-10, 12-13, 15-16, 18-19 entry H          line    40 file /ddmfs1b/softs/psi4conda/share/psi4/basis/aug-cc-pvtz.gbs 


         ---------------------------------------------------------
                                   SCF
               by Justin Turney, Rob Parrish, Andy Simmonett
                          and Daniel G. A. Smith
                              RHF Reference
                       20 Threads,  57220 MiB Core
         ---------------------------------------------------------

  ==> Geometry <==

    Molecular point group: c1
    Full point group: C1

    Geometry (in Angstrom), charge = -1, multiplicity = 1:

       Center              X                  Y                   Z               Mass       
    ------------   -----------------  -----------------  -----------------  -----------------
         F            0.000000000000     0.000000000000     0.000000000000    18.998403162730
         O           -2.200509000000     1.323634000000     0.710260000000    15.994914619570
         H           -1.503891000000     0.683674000000     0.540733000000     1.007825032230
         H           -2.315484000000     1.737995000000    -0.119068000000     1.007825032230
         O           -1.967079000000    -2.020860000000    -0.122763000000    15.994914619570
         H           -1.318963000000    -1.305195000000     0.136157000000     1.007825032230
         H           -1.696741000000    -2.218317000000    -1.007498000000     1.007825032230
         O            0.991465000000    -1.547512000000     2.500463000000    15.994914619570
         H            0.667023000000    -1.154030000000     1.676389000000     1.007825032230
         H            0.516695000000    -1.090567000000     3.200283000000     1.007825032230
         O            2.410120000000     0.780079000000    -1.095237000000    15.994914619570
         H            3.060268000000     0.046287000000    -0.902074000000     1.007825032230
         H            1.654642000000     0.711894000000    -0.477528000000     1.007825032230
         O            1.437300000000    -2.134809000000    -0.746584000000    15.994914619570
         H            1.223810000000    -2.927188000000    -0.210324000000     1.007825032230
         H            0.772852000000    -1.490569000000    -0.481987000000     1.007825032230
         O           -0.357139000000     2.126165000000    -1.924590000000    15.994914619570
         H           -0.018848000000     1.313137000000    -1.513999000000     1.007825032230
         H            0.141845000000     2.856791000000    -1.535479000000     1.007825032230

  Running in c1 symmetry.

  Rotational constants: A =      0.03699  B =      0.03187  C =      0.02374 [cm^-1]
  Rotational constants: A =   1109.03452  B =    955.51357  C =    711.81886 [MHz]
  Nuclear repulsion =  359.790434004999327

  Charge       = -1
  Multiplicity = 1
  Electrons    = 70
  Nalpha       = 35
  Nbeta        = 35

  ==> Algorithm <==

  SCF Algorithm Type is DF.
  DIIS enabled.
  MOM disabled.
  Fractional occupation disabled.
  Guess Type is SAD.
  Energy threshold   = 1.00e-08
  Density threshold  = 1.00e-08
  Integral threshold = 1.00e-12

  ==> Primary Basis <==

  Basis Set: AUG-CC-PVTZ
    Blend: AUG-CC-PVTZ
    Number of shells: 206
    Number of basis functions: 598
    Number of Cartesian functions: 685
    Spherical Harmonics?: true
    Max angular momentum: 3

   => Loading Basis Set <=

    Name: (AUG-CC-PVTZ AUX)
    Role: JKFIT
    Keyword: DF_BASIS_SCF
    atoms 1                                   entry F          line   348 file /ddmfs1b/softs/psi4conda/share/psi4/basis/aug-cc-pvtz-jkfit.gbs 
    atoms 2, 5, 8, 11, 14, 17                 entry O          line   286 file /ddmfs1b/softs/psi4conda/share/psi4/basis/aug-cc-pvtz-jkfit.gbs 
    atoms 3-4, 6-7, 9-10, 12-13, 15-16, 18-19 entry H          line    70 file /ddmfs1b/softs/psi4conda/share/psi4/basis/aug-cc-pvtz-jkfit.gbs 

  ==> Integral Setup <==

  ==> DiskDFJK: Density-Fitted J/K Matrices <==

    J tasked:                  Yes
    K tasked:                  Yes
    wK tasked:                  No
    OpenMP threads:             20
    Integrals threads:          20
    Memory [MiB]:            42915
    Algorithm:                Core
    Integral Cache:           SAVE
    Schwarz Cutoff:          1E-12
    Fitting Condition:       1E-10

   => Auxiliary Basis Set <=

  Basis Set: (AUG-CC-PVTZ AUX)
    Blend: AUG-CC-PVTZ-JKFIT
    Number of shells: 378
    Number of basis functions: 1280
    Number of Cartesian functions: 1577
    Spherical Harmonics?: true
    Max angular momentum: 4

  Minimum eigenvalue in the overlap matrix is 4.6948285447E-05.
  Reciprocal condition number of the overlap matrix is 2.9323279821E-06.
    Using symmetric orthogonalization.

  ==> Pre-Iterations <==

  SCF Guess: Superposition of Atomic Densities via on-the-fly atomic UHF (no occupation information).

   -------------------------
    Irrep   Nso     Nmo    
   -------------------------
     A        598     598 
   -------------------------
    Total     598     598
   -------------------------

  ==> Iterations <==

                           Total Energy        Delta E     RMS |[F,P]|

   @DF-RHF iter SAD:  -552.27676495460446   -5.52277e+02   0.00000e+00 
   @DF-RHF iter   1:  -555.42262069667913   -3.14586e+00   1.95032e-03 ADIIS/DIIS
   @DF-RHF iter   2:  -555.74946306342349   -3.26842e-01   1.28927e-03 ADIIS/DIIS
   @DF-RHF iter   3:  -555.92713456957495   -1.77672e-01   8.89465e-05 DIIS
   @DF-RHF iter   4:  -555.92950378837452   -2.36922e-03   2.64208e-05 DIIS
   @DF-RHF iter   5:  -555.92963900486450   -1.35216e-04   1.15588e-05 DIIS
   @DF-RHF iter   6:  -555.92966353119289   -2.45263e-05   2.70074e-06 DIIS
   @DF-RHF iter   7:  -555.92966637731558   -2.84612e-06   6.98324e-07 DIIS
   @DF-RHF iter   8:  -555.92966657552745   -1.98212e-07   2.86608e-07 DIIS
   @DF-RHF iter   9:  -555.92966659262720   -1.70998e-08   6.30099e-08 DIIS
   @DF-RHF iter  10:  -555.92966659415629   -1.52909e-09   1.06334e-08 DIIS
   @DF-RHF iter  11:  -555.92966659420688   -5.05906e-11   3.52069e-09 DIIS
  Energy and wave function converged.


  ==> Post-Iterations <==

    Orbital Energies [Eh]
    ---------------------

    Doubly Occupied:                                                      

       1A    -26.022173     2A    -20.433469     3A    -20.415337  
       4A    -20.414667     5A    -20.412355     6A    -20.408221  
       7A    -20.386660     8A     -1.294250     9A     -1.216439  
      10A     -1.197763    11A     -1.196727    12A     -1.194671  
      13A     -1.185769    14A     -1.177392    15A     -0.585154  
      16A     -0.573216    17A     -0.568535    18A     -0.562340  
      19A     -0.553579    20A     -0.547050    21A     -0.457123  
      22A     -0.454220    23A     -0.443719    24A     -0.435891  
      25A     -0.429288    26A     -0.419569    27A     -0.384266  
      28A     -0.377927    29A     -0.373987    30A     -0.367759  
      31A     -0.361440    32A     -0.358647    33A     -0.354030  
      34A     -0.346008    35A     -0.336326  

    Virtual:                                                              

      36A      0.118616    37A      0.128872    38A      0.129618  
      39A      0.136924    40A      0.147246    41A      0.151700  
      42A      0.168415    43A      0.174368    44A      0.179411  
      45A      0.188618    46A      0.194113    47A      0.203030  
      48A      0.255513    49A      0.257878    50A      0.268537  
      51A      0.269669    52A      0.275478    53A      0.279855  
      54A      0.284964    55A      0.289103    56A      0.292364  
      57A      0.305304    58A      0.309242    59A      0.311123  
      60A      0.314904    61A      0.330170    62A      0.332893  
      63A      0.338414    64A      0.342319    65A      0.346380  
      66A      0.353347    67A      0.358758    68A      0.365973  
      69A      0.366353    70A      0.384006    71A      0.386632  
      72A      0.388494    73A      0.401386    74A      0.404242  
      75A      0.413742    76A      0.417486    77A      0.431997  
      78A      0.435619    79A      0.448520    80A      0.455887  
      81A      0.463226    82A      0.468795    83A      0.482726  
      84A      0.490763    85A      0.501207    86A      0.507175  
      87A      0.512605    88A      0.515316    89A      0.515923  
      90A      0.531051    91A      0.534119    92A      0.542430  
      93A      0.546157    94A      0.549843    95A      0.560086  
      96A      0.568111    97A      0.574050    98A      0.578821  
      99A      0.586343   100A      0.594554   101A      0.596549  
     102A      0.601230   103A      0.617721   104A      0.620735  
     105A      0.624685   106A      0.630928   107A      0.643257  
     108A      0.657708   109A      0.662658   110A      0.665436  
     111A      0.677780   112A      0.687552   113A      0.697321  
     114A      0.703922   115A      0.713278   116A      0.718695  
     117A      0.732388   118A      0.742240   119A      0.758336  
     120A      0.764654   121A      0.791523   122A      0.793390  
     123A      0.809832   124A      0.816167   125A      0.824960  
     126A      0.828285   127A      0.839917   128A      0.848581  
     129A      0.856840   130A      0.866115   131A      0.874402  
     132A      0.880341   133A      0.884749   134A      0.901063  
     135A      0.904561   136A      0.910156   137A      0.911637  
     138A      0.918402   139A      0.921285   140A      0.930992  
     141A      0.940523   142A      0.944039   143A      0.957305  
     144A      0.971198   145A      0.973787   146A      0.976231  
     147A      0.984986   148A      0.998924   149A      1.004529  
     150A      1.007058   151A      1.012534   152A      1.020562  
     153A      1.028233   154A      1.032790   155A      1.042550  
     156A      1.052591   157A      1.055334   158A      1.058657  
     159A      1.066994   160A      1.072841   161A      1.082653  
     162A      1.088534   163A      1.103950   164A      1.109998  
     165A      1.114109   166A      1.122784   167A      1.123561  
     168A      1.132598   169A      1.138546   170A      1.147002  
     171A      1.150498   172A      1.158521   173A      1.166413  
     174A      1.171484   175A      1.178707   176A      1.191947  
     177A      1.195474   178A      1.197465   179A      1.204055  
     180A      1.211355   181A      1.220849   182A      1.225742  
     183A      1.231944   184A      1.238730   185A      1.252388  
     186A      1.261847   187A      1.268759   188A      1.279283  
     189A      1.281521   190A      1.292240   191A      1.299773  
     192A      1.301624   193A      1.306732   194A      1.322493  
     195A      1.326133   196A      1.341993   197A      1.345224  
     198A      1.357233   199A      1.368639   200A      1.379825  
     201A      1.388763   202A      1.393461   203A      1.401711  
     204A      1.406877   205A      1.421735   206A      1.422510  
     207A      1.429194   208A      1.434899   209A      1.445679  
     210A      1.453133   211A      1.462858   212A      1.471506  
     213A      1.480531   214A      1.492717   215A      1.500535  
     216A      1.509889   217A      1.515953   218A      1.520353  
     219A      1.530162   220A      1.535516   221A      1.555325  
     222A      1.563887   223A      1.578783   224A      1.589242  
     225A      1.597972   226A      1.600488   227A      1.610489  
     228A      1.620005   229A      1.629109   230A      1.638390  
     231A      1.642327   232A      1.662477   233A      1.683829  
     234A      1.691515   235A      1.710047   236A      1.719132  
     237A      1.723577   238A      1.735108   239A      1.743379  
     240A      1.748829   241A      1.770488   242A      1.779496  
     243A      1.784801   244A      1.789158   245A      1.822596  
     246A      1.827006   247A      1.837834   248A      1.846133  
     249A      1.856923   250A      1.865274   251A      1.870751  
     252A      1.892421   253A      1.897351   254A      1.899925  
     255A      1.915101   256A      1.928441   257A      1.931694  
     258A      1.937996   259A      1.958037   260A      1.968702  
     261A      1.972702   262A      2.002817   263A      2.017872  
     264A      2.028705   265A      2.041499   266A      2.044649  
     267A      2.084762   268A      2.090128   269A      2.095876  
     270A      2.125694   271A      2.137464   272A      2.149276  
     273A      2.169099   274A      2.178857   275A      2.182883  
     276A      2.201487   277A      2.215725   278A      2.221924  
     279A      2.229278   280A      2.256124   281A      2.268635  
     282A      2.307073   283A      2.309914   284A      2.355395  
     285A      2.413670   286A      2.435716   287A      2.446800  
     288A      2.479459   289A      2.504035   290A      2.511248  
     291A      2.529353   292A      2.548385   293A      2.555984  
     294A      2.561609   295A      2.565762   296A      2.583630  
     297A      2.590613   298A      2.597867   299A      2.606572  
     300A      2.614983   301A      2.627809   302A      2.638542  
     303A      2.641795   304A      2.646809   305A      2.654404  
     306A      2.666976   307A      2.671303   308A      2.674494  
     309A      2.680957   310A      2.699207   311A      2.708891  
     312A      2.712643   313A      2.716314   314A      2.733498  
     315A      2.746295   316A      2.757548   317A      2.771178  
     318A      2.781985   319A      2.792885   320A      2.801142  
     321A      2.826186   322A      2.829918   323A      2.837148  
     324A      2.850615   325A      2.865900   326A      2.881279  
     327A      2.881752   328A      2.894907   329A      2.903647  
     330A      2.913058   331A      2.920644   332A      2.927864  
     333A      2.947735   334A      2.953203   335A      2.966207  
     336A      2.976574   337A      2.988409   338A      2.998123  
     339A      3.007820   340A      3.024538   341A      3.027929  
     342A      3.044463   343A      3.053753   344A      3.067386  
     345A      3.086957   346A      3.091591   347A      3.096563  
     348A      3.106449   349A      3.128194   350A      3.147602  
     351A      3.156003   352A      3.162828   353A      3.176919  
     354A      3.205796   355A      3.215947   356A      3.224307  
     357A      3.253371   358A      3.267296   359A      3.278686  
     360A      3.285169   361A      3.314683   362A      3.321774  
     363A      3.338954   364A      3.354970   365A      3.388981  
     366A      3.518266   367A      3.597019   368A      3.647419  
     369A      3.715070   370A      3.728437   371A      3.751310  
     372A      3.778136   373A      3.790955   374A      3.828061  
     375A      3.847973   376A      3.918004   377A      3.926462  
     378A      3.950563   379A      3.974761   380A      3.993958  
     381A      4.024640   382A      4.056653   383A      4.100984  
     384A      4.158786   385A      4.193306   386A      4.220213  
     387A      4.232913   388A      4.250399   389A      4.270279  
     390A      4.286901   391A      4.310145   392A      4.329928  
     393A      4.354410   394A      4.364347   395A      4.386287  
     396A      4.405710   397A      4.410939   398A      4.421462  
     399A      4.430636   400A      4.441150   401A      4.452270  
     402A      4.465354   403A      4.469887   404A      4.476378  
     405A      4.490932   406A      4.498646   407A      4.510274  
     408A      4.519342   409A      4.523620   410A      4.534761  
     411A      4.542020   412A      4.550910   413A      4.561437  
     414A      4.571969   415A      4.580453   416A      4.590374  
     417A      4.596149   418A      4.614255   419A      4.621948  
     420A      4.632954   421A      4.641656   422A      4.648086  
     423A      4.651077   424A      4.663390   425A      4.672254  
     426A      4.681711   427A      4.702291   428A      4.708097  
     429A      4.713756   430A      4.735589   431A      4.739542  
     432A      4.750899   433A      4.768003   434A      4.781203  
     435A      4.800961   436A      4.835149   437A      4.842552  
     438A      4.853186   439A      4.868810   440A      4.879496  
     441A      4.902655   442A      4.913996   443A      4.936969  
     444A      4.948317   445A      4.962498   446A      4.991425  
     447A      5.017819   448A      5.036573   449A      5.081702  
     450A      5.106444   451A      5.130787   452A      5.155180  
     453A      5.180217   454A      5.231496   455A      5.241786  
     456A      5.297801   457A      5.307443   458A      5.317869  
     459A      5.335806   460A      5.342389   461A      5.356524  
     462A      5.376625   463A      5.382011   464A      5.414703  
     465A      5.429036   466A      5.458753   467A      5.474807  
     468A      5.486415   469A      5.513215   470A      5.522884  
     471A      5.539915   472A      5.547864   473A      5.555410  
     474A      5.567082   475A      5.596111   476A      5.605409  
     477A      5.620977   478A      5.648111   479A      5.663913  
     480A      5.687720   481A      5.712150   482A      5.721209  
     483A      5.748901   484A      5.775332   485A      5.827303  
     486A      5.845983   487A      5.897362   488A      5.924575  
     489A      5.959973   490A      5.974077   491A      6.055287  
     492A      6.118467   493A      6.298194   494A      6.390219  
     495A      6.421188   496A      6.434088   497A      6.497171  
     498A      6.504079   499A      6.568369   500A      6.703818  
     501A      6.718411   502A      6.734551   503A      6.749885  
     504A      6.750302   505A      6.785074   506A      6.807160  
     507A      6.824453   508A      6.941092   509A      7.006703  
     510A      7.018629   511A      7.029596   512A      7.057357  
     513A      7.091642   514A      7.099449   515A      7.104202  
     516A      7.156575   517A      7.177842   518A      7.195783  
     519A      7.243201   520A      7.288466   521A      7.341561  
     522A      7.355866   523A      7.397476   524A      7.410053  
     525A      7.433735   526A      7.450817   527A      7.468728  
     528A      7.472274   529A      7.477569   530A      7.489288  
     531A      7.500745   532A      7.511581   533A      7.519900  
     534A      7.524016   535A      7.529423   536A      7.536741  
     537A      7.554566   538A      7.557925   539A      7.561927  
     540A      7.564847   541A      7.572115   542A      7.580246  
     543A      7.596073   544A      7.613282   545A      7.618337  
     546A      7.640123   547A      7.644009   548A      7.651693  
     549A      7.665905   550A      7.689645   551A      7.702879  
     552A      7.726329   553A      7.760397   554A      7.807010  
     555A      7.839938   556A      7.888498   557A      7.916301  
     558A      7.933711   559A      7.981915   560A      8.002897  
     561A      8.072352   562A      8.084067   563A      8.115248  
     564A      8.142090   565A      8.147789   566A      8.171643  
     567A      8.201640   568A      8.207376   569A      8.217897  
     570A      8.223030   571A      8.259914   572A      8.296909  
     573A      8.313669   574A      8.838215   575A      8.949756  
     576A      8.962879   577A      8.973821   578A      9.002227  
     579A      9.125987   580A      9.402155   581A      9.463587  
     582A      9.506159   583A      9.598187   584A      9.724671  
     585A      9.899063   586A      9.983898   587A     10.020506  
     588A     10.052837   589A     10.099902   590A     10.317221  
     591A     10.418070   592A     15.350218   593A     16.026507  
     594A     16.650552   595A     16.999504   596A     17.056348  
     597A     17.393163   598A     18.095008  

    Final Occupation by Irrep:
              A 
    DOCC [    35 ]
    NA   [    35 ]
    NB   [    35 ]

  @DF-RHF Final Energy:  -555.92966659420688

   => Energetics <=

    Nuclear Repulsion Energy =            359.7904340049993266
    One-Electron Energy =               -1498.9482632109570659
    Two-Electron Energy =                 583.2281626117509177
    Total Energy =                       -555.9296665942068785

Computation Completed


Properties will be evaluated at   0.000000,   0.000000,   0.000000 [a0]

Properties computed using the SCF density matrix


 Multipole Moments:

 ------------------------------------------------------------------------------------
     Multipole            Electronic (a.u.)      Nuclear  (a.u.)        Total (a.u.)
 ------------------------------------------------------------------------------------

 L = 1.  Multiply by 2.5417464519 to convert [e a0] to [Debye]
 Dipole X            :         -6.5418943            6.9853197            0.4434254
 Dipole Y            :         27.8391119          -27.6325429            0.2065689
 Dipole Z            :         12.0399968          -11.5689090            0.4710878
 Magnitude           :                                                    0.6791322

 ------------------------------------------------------------------------------------

*** tstop() called on ddmfs1 at Tue Jan  9 14:36:02 2024
Module time:
	user time   =     263.37 seconds =       4.39 minutes
	system time =      20.19 seconds =       0.34 minutes
	total time  =         16 seconds =       0.27 minutes
Total time:
	user time   =     263.37 seconds =       4.39 minutes
	system time =      20.19 seconds =       0.34 minutes
	total time  =         16 seconds =       0.27 minutes

  //>>>>>>>>>>>>>>>>>>>>>>>>>>>>>>>>>>>//
  //            Monomer A HF           //
  //<<<<<<<<<<<<<<<<<<<<<<<<<<<<<<<<<<<//

   => Libint2 <=

    Primary   basis highest AM E, G, H:  5, 4, 3
    Auxiliary basis highest AM E, G, H:  6, 5, 4
    Onebody   basis highest AM E, G, H:  6, 5, 4
    Solid Harmonics ordering:            gaussian

*** tstart() called on ddmfs1
*** at Tue Jan  9 14:36:02 2024

   => Loading Basis Set <=

    Name: AUG-CC-PVTZ
    Role: ORBITAL
    Keyword: BASIS
    atoms 1                                   entry F          line   377 file /ddmfs1b/softs/psi4conda/share/psi4/basis/aug-cc-pvtz.gbs 
    atoms 2, 5, 8, 11, 14, 17                 entry O          line   331 file /ddmfs1b/softs/psi4conda/share/psi4/basis/aug-cc-pvtz.gbs 
    atoms 3-4, 6-7, 9-10, 12-13, 15-16, 18-19 entry H          line    40 file /ddmfs1b/softs/psi4conda/share/psi4/basis/aug-cc-pvtz.gbs 


         ---------------------------------------------------------
                                   SCF
               by Justin Turney, Rob Parrish, Andy Simmonett
                          and Daniel G. A. Smith
                              RHF Reference
                       20 Threads,  57220 MiB Core
         ---------------------------------------------------------

  ==> Geometry <==

    Molecular point group: c1
    Full point group: C1

    Geometry (in Angstrom), charge = -1, multiplicity = 1:

       Center              X                  Y                   Z               Mass       
    ------------   -----------------  -----------------  -----------------  -----------------
         F            0.000000000000     0.000000000000     0.000000000000    18.998403162730
      Gh(O)          -2.200509000000     1.323634000000     0.710260000000    15.994914619570
      Gh(H)          -1.503891000000     0.683674000000     0.540733000000     1.007825032230
      Gh(H)          -2.315484000000     1.737995000000    -0.119068000000     1.007825032230
      Gh(O)          -1.967079000000    -2.020860000000    -0.122763000000    15.994914619570
      Gh(H)          -1.318963000000    -1.305195000000     0.136157000000     1.007825032230
      Gh(H)          -1.696741000000    -2.218317000000    -1.007498000000     1.007825032230
      Gh(O)           0.991465000000    -1.547512000000     2.500463000000    15.994914619570
      Gh(H)           0.667023000000    -1.154030000000     1.676389000000     1.007825032230
      Gh(H)           0.516695000000    -1.090567000000     3.200283000000     1.007825032230
      Gh(O)           2.410120000000     0.780079000000    -1.095237000000    15.994914619570
      Gh(H)           3.060268000000     0.046287000000    -0.902074000000     1.007825032230
      Gh(H)           1.654642000000     0.711894000000    -0.477528000000     1.007825032230
      Gh(O)           1.437300000000    -2.134809000000    -0.746584000000    15.994914619570
      Gh(H)           1.223810000000    -2.927188000000    -0.210324000000     1.007825032230
      Gh(H)           0.772852000000    -1.490569000000    -0.481987000000     1.007825032230
      Gh(O)          -0.357139000000     2.126165000000    -1.924590000000    15.994914619570
      Gh(H)          -0.018848000000     1.313137000000    -1.513999000000     1.007825032230
      Gh(H)           0.141845000000     2.856791000000    -1.535479000000     1.007825032230

  Running in c1 symmetry.

  Rotational constants: A =      0.03699  B =      0.03187  C =      0.02374 [cm^-1]
  Rotational constants: A =   1109.03452  B =    955.51357  C =    711.81886 [MHz]
  Nuclear repulsion =    0.000000000000000

  Charge       = -1
  Multiplicity = 1
  Electrons    = 10
  Nalpha       = 5
  Nbeta        = 5

  ==> Algorithm <==

  SCF Algorithm Type is DF.
  DIIS enabled.
  MOM disabled.
  Fractional occupation disabled.
  Guess Type is SAD.
  Energy threshold   = 1.00e-08
  Density threshold  = 1.00e-08
  Integral threshold = 1.00e-12

  ==> Primary Basis <==

  Basis Set: AUG-CC-PVTZ
    Blend: AUG-CC-PVTZ
    Number of shells: 206
    Number of basis functions: 598
    Number of Cartesian functions: 685
    Spherical Harmonics?: true
    Max angular momentum: 3

   => Loading Basis Set <=

    Name: (AUG-CC-PVTZ AUX)
    Role: JKFIT
    Keyword: DF_BASIS_SCF
    atoms 1                                   entry F          line   348 file /ddmfs1b/softs/psi4conda/share/psi4/basis/aug-cc-pvtz-jkfit.gbs 
    atoms 2, 5, 8, 11, 14, 17                 entry O          line   286 file /ddmfs1b/softs/psi4conda/share/psi4/basis/aug-cc-pvtz-jkfit.gbs 
    atoms 3-4, 6-7, 9-10, 12-13, 15-16, 18-19 entry H          line    70 file /ddmfs1b/softs/psi4conda/share/psi4/basis/aug-cc-pvtz-jkfit.gbs 

  ==> Integral Setup <==

  ==> DiskDFJK: Density-Fitted J/K Matrices <==

    J tasked:                  Yes
    K tasked:                  Yes
    wK tasked:                  No
    OpenMP threads:             20
    Integrals threads:          20
    Memory [MiB]:            42915
    Algorithm:                Core
    Integral Cache:           LOAD
    Schwarz Cutoff:          1E-12
    Fitting Condition:       1E-10

   => Auxiliary Basis Set <=

  Basis Set: (AUG-CC-PVTZ AUX)
    Blend: AUG-CC-PVTZ-JKFIT
    Number of shells: 378
    Number of basis functions: 1280
    Number of Cartesian functions: 1577
    Spherical Harmonics?: true
    Max angular momentum: 4

  Minimum eigenvalue in the overlap matrix is 4.6948285447E-05.
  Reciprocal condition number of the overlap matrix is 2.9323279821E-06.
    Using symmetric orthogonalization.

  ==> Pre-Iterations <==

  SCF Guess: Superposition of Atomic Densities via on-the-fly atomic UHF (no occupation information).

   -------------------------
    Irrep   Nso     Nmo    
   -------------------------
     A        598     598 
   -------------------------
    Total     598     598
   -------------------------

  ==> Iterations <==

                           Total Energy        Delta E     RMS |[F,P]|

   @DF-RHF iter SAD:   -98.82535129798768   -9.88254e+01   0.00000e+00 
   @DF-RHF iter   1:   -99.33804036210495   -5.12689e-01   9.12940e-04 ADIIS/DIIS
   @DF-RHF iter   2:   -99.37297618488635   -3.49358e-02   8.92743e-04 ADIIS/DIIS
   @DF-RHF iter   3:   -99.45106363500119   -7.80875e-02   3.18672e-05 DIIS
   @DF-RHF iter   4:   -99.45114212843747   -7.84934e-05   1.11121e-05 DIIS
   @DF-RHF iter   5:   -99.45115331983033   -1.11914e-05   6.97311e-07 DIIS
   @DF-RHF iter   6:   -99.45115342185963   -1.02029e-07   6.81081e-08 DIIS
   @DF-RHF iter   7:   -99.45115342300255   -1.14292e-09   8.31386e-09 DIIS
  Energy and wave function converged.


  ==> Post-Iterations <==

    Orbital Energies [Eh]
    ---------------------

    Doubly Occupied:                                                      

       1A    -25.833550     2A     -1.075870     3A     -0.180925  
       4A     -0.180918     5A     -0.180849  

    Virtual:                                                              

       6A      0.121717     7A      0.131532     8A      0.133370  
       9A      0.137420    10A      0.149157    11A      0.150701  
      12A      0.164674    13A      0.170367    14A      0.175905  
      15A      0.191252    16A      0.194442    17A      0.200543  
      18A      0.242421    19A      0.259084    20A      0.263045  
      21A      0.266267    22A      0.268617    23A      0.272712  
      24A      0.274918    25A      0.278295    26A      0.286405  
      27A      0.292468    28A      0.301203    29A      0.303037  
      30A      0.304036    31A      0.310380    32A      0.315434  
      33A      0.326056    34A      0.330261    35A      0.336605  
      36A      0.338877    37A      0.351195    38A      0.356905  
      39A      0.364546    40A      0.376765    41A      0.388008  
      42A      0.398968    43A      0.426539    44A      0.432648  
      45A      0.437285    46A      0.443699    47A      0.451634  
      48A      0.460887    49A      0.464217    50A      0.475094  
      51A      0.478999    52A      0.490338    53A      0.499180  
      54A      0.506664    55A      0.508434    56A      0.509800  
      57A      0.514316    58A      0.517188    59A      0.523171  
      60A      0.530655    61A      0.534719    62A      0.539889  
      63A      0.544055    64A      0.549623    65A      0.556601  
      66A      0.562210    67A      0.562914    68A      0.572618  
      69A      0.583543    70A      0.587717    71A      0.601318  
      72A      0.606473    73A      0.616434    74A      0.621856  
      75A      0.630188    76A      0.642024    77A      0.653088  
      78A      0.664774    79A      0.681390    80A      0.686869  
      81A      0.700162    82A      0.710728    83A      0.719012  
      84A      0.737684    85A      0.747212    86A      0.753943  
      87A      0.775523    88A      0.794569    89A      0.801877  
      90A      0.804997    91A      0.822896    92A      0.841749  
      93A      0.847321    94A      0.877417    95A      0.889122  
      96A      0.898069    97A      0.905225    98A      0.909215  
      99A      0.917578   100A      0.920222   101A      0.927441  
     102A      0.931651   103A      0.935744   104A      0.941057  
     105A      0.958293   106A      0.965848   107A      0.978134  
     108A      0.980091   109A      0.983648   110A      0.991838  
     111A      0.996595   112A      0.999203   113A      1.004422  
     114A      1.006333   115A      1.015811   116A      1.027634  
     117A      1.030012   118A      1.034778   119A      1.047186  
     120A      1.050501   121A      1.058746   122A      1.059341  
     123A      1.062415   124A      1.065179   125A      1.071720  
     126A      1.080392   127A      1.086276   128A      1.096246  
     129A      1.105299   130A      1.111154   131A      1.114269  
     132A      1.116133   133A      1.118594   134A      1.139832  
     135A      1.144859   136A      1.151173   137A      1.154941  
     138A      1.159495   139A      1.173092   140A      1.177486  
     141A      1.183457   142A      1.186992   143A      1.196763  
     144A      1.201389   145A      1.206207   146A      1.210283  
     147A      1.217779   148A      1.226069   149A      1.230054  
     150A      1.238992   151A      1.246359   152A      1.256212  
     153A      1.264600   154A      1.267080   155A      1.274338  
     156A      1.283912   157A      1.291503   158A      1.298943  
     159A      1.308524   160A      1.326564   161A      1.333745  
     162A      1.343501   163A      1.353294   164A      1.354754  
     165A      1.369922   166A      1.376222   167A      1.381574  
     168A      1.393668   169A      1.406071   170A      1.415974  
     171A      1.431180   172A      1.438699   173A      1.446780  
     174A      1.455008   175A      1.459490   176A      1.471152  
     177A      1.480812   178A      1.489131   179A      1.497924  
     180A      1.515271   181A      1.520482   182A      1.527419  
     183A      1.546736   184A      1.559343   185A      1.563227  
     186A      1.578606   187A      1.585814   188A      1.599583  
     189A      1.605877   190A      1.616600   191A      1.641906  
     192A      1.655610   193A      1.666027   194A      1.676554  
     195A      1.682571   196A      1.691572   197A      1.706991  
     198A      1.711211   199A      1.734608   200A      1.747965  
     201A      1.751151   202A      1.768562   203A      1.776588  
     204A      1.779611   205A      1.791256   206A      1.804970  
     207A      1.816289   208A      1.834768   209A      1.842948  
     210A      1.856787   211A      1.874751   212A      1.890879  
     213A      1.902188   214A      1.910424   215A      1.924630  
     216A      1.930961   217A      1.956078   218A      1.957159  
     219A      1.965116   220A      1.978066   221A      1.994981  
     222A      2.001546   223A      2.002286   224A      2.007500  
     225A      2.017075   226A      2.025890   227A      2.036703  
     228A      2.046032   229A      2.049150   230A      2.066808  
     231A      2.069864   232A      2.077551   233A      2.095320  
     234A      2.099524   235A      2.112052   236A      2.126455  
     237A      2.137744   238A      2.149024   239A      2.150309  
     240A      2.178944   241A      2.182490   242A      2.198543  
     243A      2.202314   244A      2.219523   245A      2.246581  
     246A      2.254486   247A      2.262903   248A      2.284121  
     249A      2.293790   250A      2.320480   251A      2.336465  
     252A      2.341075   253A      2.359726   254A      2.405290  
     255A      2.424259   256A      2.432404   257A      2.445343  
     258A      2.524777   259A      2.531110   260A      2.549652  
     261A      2.579574   262A      2.622490   263A      2.655428  
     264A      2.661564   265A      2.667045   266A      2.682691  
     267A      2.693439   268A      2.702033   269A      2.717543  
     270A      2.723751   271A      2.733048   272A      2.744445  
     273A      2.754424   274A      2.764824   275A      2.786502  
     276A      2.790899   277A      2.808537   278A      2.823187  
     279A      2.832972   280A      2.840429   281A      2.850752  
     282A      2.859260   283A      2.870700   284A      2.877255  
     285A      2.886994   286A      2.891106   287A      2.894748  
     288A      2.919458   289A      2.927576   290A      2.937962  
     291A      2.955215   292A      2.961057   293A      2.984109  
     294A      2.993617   295A      3.002216   296A      3.007535  
     297A      3.032133   298A      3.046553   299A      3.057547  
     300A      3.062925   301A      3.075050   302A      3.091349  
     303A      3.115218   304A      3.132246   305A      3.140328  
     306A      3.147151   307A      3.164221   308A      3.179230  
     309A      3.194073   310A      3.214484   311A      3.232363  
     312A      3.244663   313A      3.252806   314A      3.274236  
     315A      3.300777   316A      3.312291   317A      3.337133  
     318A      3.380386   319A      3.393871   320A      3.400857  
     321A      3.411792   322A      3.419683   323A      3.429454  
     324A      3.444328   325A      3.467092   326A      3.469461  
     327A      3.481732   328A      3.483486   329A      3.497936  
     330A      3.520408   331A      3.536481   332A      3.542793  
     333A      3.567037   334A      3.600624   335A      3.605419  
     336A      3.635948   337A      3.644475   338A      3.659162  
     339A      3.674768   340A      3.705004   341A      3.723084  
     342A      3.732290   343A      3.756144   344A      3.779417  
     345A      3.784523   346A      3.795482   347A      3.803922  
     348A      3.825492   349A      3.839393   350A      3.860730  
     351A      3.875878   352A      3.893704   353A      3.900371  
     354A      3.910160   355A      3.923412   356A      3.959498  
     357A      3.975813   358A      3.991035   359A      4.009952  
     360A      4.022110   361A      4.049517   362A      4.055903  
     363A      4.078153   364A      4.116258   365A      4.148268  
     366A      4.167483   367A      4.213192   368A      4.243218  
     369A      4.289993   370A      4.360999   371A      4.488258  
     372A      4.564473   373A      4.616290   374A      4.619292  
     375A      4.633910   376A      4.649889   377A      4.669212  
     378A      4.686770   379A      4.713530   380A      4.725523  
     381A      4.733184   382A      4.738586   383A      4.772217  
     384A      4.809221   385A      4.828317   386A      4.853448  
     387A      4.863923   388A      4.871870   389A      4.872322  
     390A      4.886728   391A      4.900408   392A      4.923242  
     393A      4.929163   394A      4.935560   395A      4.952240  
     396A      4.963453   397A      4.982998   398A      4.996365  
     399A      5.024287   400A      5.032588   401A      5.048812  
     402A      5.062864   403A      5.093642   404A      5.107818  
     405A      5.128045   406A      5.139058   407A      5.150417  
     408A      5.167406   409A      5.196325   410A      5.200555  
     411A      5.206466   412A      5.223596   413A      5.249508  
     414A      5.255359   415A      5.280717   416A      5.341764  
     417A      5.357250   418A      5.364785   419A      5.373556  
     420A      5.381233   421A      5.404686   422A      5.429649  
     423A      5.471360   424A      5.481369   425A      5.508529  
     426A      5.539377   427A      5.566061   428A      5.594116  
     429A      5.610105   430A      5.637181   431A      5.651850  
     432A      5.688972   433A      5.710828   434A      5.770030  
     435A      5.782736   436A      5.802909   437A      5.814013  
     438A      5.820643   439A      5.832180   440A      5.858309  
     441A      5.869916   442A      5.871419   443A      5.891301  
     444A      5.911106   445A      5.922919   446A      5.955166  
     447A      5.981799   448A      5.994720   449A      6.009759  
     450A      6.050310   451A      6.088250   452A      6.110504  
     453A      6.144483   454A      6.168827   455A      6.196409  
     456A      6.251889   457A      6.351821   458A      6.359221  
     459A      6.418889   460A      6.442105   461A      6.504083  
     462A      6.566808   463A      6.579139   464A      6.610239  
     465A      6.668600   466A      6.682962   467A      6.734115  
     468A      6.765127   469A      6.817359   470A      6.869591  
     471A      6.910521   472A      6.931778   473A      6.947042  
     474A      6.972478   475A      7.060840   476A      7.084277  
     477A      7.092321   478A      7.248926   479A      7.308522  
     480A      7.328360   481A      7.333669   482A      7.385971  
     483A      7.460133   484A      7.919310   485A      7.971466  
     486A      7.984360   487A      7.993623   488A      8.023563  
     489A      8.040208   490A      8.049853   491A      8.057901  
     492A      8.090860   493A      8.113151   494A      8.134214  
     495A      8.154014   496A      8.248726   497A      8.304248  
     498A      8.324611   499A      8.369025   500A      8.395036  
     501A      8.408001   502A      8.432147   503A      8.449569  
     504A      8.453368   505A      8.467575   506A      8.488177  
     507A      8.493230   508A      8.499295   509A      8.509805  
     510A      8.536020   511A      8.555182   512A      8.568394  
     513A      8.625517   514A      8.911624   515A      8.962605  
     516A      8.981654   517A      8.990433   518A      9.033837  
     519A      9.100537   520A      9.125090   521A      9.146795  
     522A      9.181541   523A      9.284923   524A      9.295774  
     525A      9.380802   526A      9.598007   527A      9.652947  
     528A      9.689301   529A      9.773195   530A      9.842533  
     531A      9.927021   532A      9.950484   533A      9.955181  
     534A      9.987006   535A     10.025853   536A     10.040983  
     537A     10.063454   538A     10.075845   539A     10.083982  
     540A     10.095597   541A     10.145724   542A     10.156727  
     543A     10.178069   544A     10.197356   545A     10.216241  
     546A     10.244946   547A     10.278283   548A     10.298522  
     549A     10.309076   550A     10.349294   551A     10.366285  
     552A     10.396680   553A     10.425052   554A     10.484464  
     555A     10.497039   556A     10.544438   557A     10.571695  
     558A     10.599990   559A     10.646991   560A     10.663750  
     561A     10.704492   562A     11.235945   563A     11.376151  
     564A     11.421093   565A     11.429556   566A     11.472191  
     567A     11.632411   568A     11.945880   569A     12.053308  
     570A     12.095145   571A     12.120321   572A     12.143564  
     573A     12.202992   574A     12.238584   575A     12.367952  
     576A     12.438187   577A     12.508927   578A     12.556761  
     579A     12.771470   580A     13.702813   581A     13.834883  
     582A     13.842851   583A     13.884552   584A     13.985303  
     585A     14.025776   586A     14.160889   587A     14.174726  
     588A     14.217109   589A     14.228584   590A     14.291979  
     591A     14.302679   592A     16.082394   593A     65.152350  
     594A     66.458958   595A     66.975844   596A     67.270386  
     597A     67.662269   598A     69.045219  

    Final Occupation by Irrep:
              A 
    DOCC [     5 ]
    NA   [     5 ]
    NB   [     5 ]

  @DF-RHF Final Energy:   -99.45115342300255

   => Energetics <=

    Nuclear Repulsion Energy =              0.0000000000000000
    One-Electron Energy =                -143.9980761290699434
    Two-Electron Energy =                  44.5469227060674058
    Total Energy =                        -99.4511534230025376

Computation Completed


Properties will be evaluated at   0.000000,   0.000000,   0.000000 [a0]

Properties computed using the SCF density matrix


 Multipole Moments:

 ------------------------------------------------------------------------------------
     Multipole            Electronic (a.u.)      Nuclear  (a.u.)        Total (a.u.)
 ------------------------------------------------------------------------------------

 L = 1.  Multiply by 2.5417464519 to convert [e a0] to [Debye]
 Dipole X            :         -0.0000801            0.0000000           -0.0000801
 Dipole Y            :         -0.0001802            0.0000000           -0.0001802
 Dipole Z            :          0.0000159            0.0000000            0.0000159
 Magnitude           :                                                    0.0001979

 ------------------------------------------------------------------------------------

*** tstop() called on ddmfs1 at Tue Jan  9 14:36:11 2024
Module time:
	user time   =     142.14 seconds =       2.37 minutes
	system time =       2.40 seconds =       0.04 minutes
	total time  =          9 seconds =       0.15 minutes
Total time:
	user time   =     405.62 seconds =       6.76 minutes
	system time =      22.60 seconds =       0.38 minutes
	total time  =         25 seconds =       0.42 minutes

  //>>>>>>>>>>>>>>>>>>>>>>>>>>>>>>>>>>>//
  //            Monomer B HF           //
  //<<<<<<<<<<<<<<<<<<<<<<<<<<<<<<<<<<<//

   => Libint2 <=

    Primary   basis highest AM E, G, H:  5, 4, 3
    Auxiliary basis highest AM E, G, H:  6, 5, 4
    Onebody   basis highest AM E, G, H:  6, 5, 4
    Solid Harmonics ordering:            gaussian

*** tstart() called on ddmfs1
*** at Tue Jan  9 14:36:11 2024

   => Loading Basis Set <=

    Name: AUG-CC-PVTZ
    Role: ORBITAL
    Keyword: BASIS
    atoms 1                                   entry F          line   377 file /ddmfs1b/softs/psi4conda/share/psi4/basis/aug-cc-pvtz.gbs 
    atoms 2, 5, 8, 11, 14, 17                 entry O          line   331 file /ddmfs1b/softs/psi4conda/share/psi4/basis/aug-cc-pvtz.gbs 
    atoms 3-4, 6-7, 9-10, 12-13, 15-16, 18-19 entry H          line    40 file /ddmfs1b/softs/psi4conda/share/psi4/basis/aug-cc-pvtz.gbs 


         ---------------------------------------------------------
                                   SCF
               by Justin Turney, Rob Parrish, Andy Simmonett
                          and Daniel G. A. Smith
                              RHF Reference
                       20 Threads,  57220 MiB Core
         ---------------------------------------------------------

  ==> Geometry <==

    Molecular point group: c1
    Full point group: C1

    Geometry (in Angstrom), charge = 0, multiplicity = 1:

       Center              X                  Y                   Z               Mass       
    ------------   -----------------  -----------------  -----------------  -----------------
      Gh(F)           0.000000000000     0.000000000000     0.000000000000    18.998403162730
         O           -2.200509000000     1.323634000000     0.710260000000    15.994914619570
         H           -1.503891000000     0.683674000000     0.540733000000     1.007825032230
         H           -2.315484000000     1.737995000000    -0.119068000000     1.007825032230
         O           -1.967079000000    -2.020860000000    -0.122763000000    15.994914619570
         H           -1.318963000000    -1.305195000000     0.136157000000     1.007825032230
         H           -1.696741000000    -2.218317000000    -1.007498000000     1.007825032230
         O            0.991465000000    -1.547512000000     2.500463000000    15.994914619570
         H            0.667023000000    -1.154030000000     1.676389000000     1.007825032230
         H            0.516695000000    -1.090567000000     3.200283000000     1.007825032230
         O            2.410120000000     0.780079000000    -1.095237000000    15.994914619570
         H            3.060268000000     0.046287000000    -0.902074000000     1.007825032230
         H            1.654642000000     0.711894000000    -0.477528000000     1.007825032230
         O            1.437300000000    -2.134809000000    -0.746584000000    15.994914619570
         H            1.223810000000    -2.927188000000    -0.210324000000     1.007825032230
         H            0.772852000000    -1.490569000000    -0.481987000000     1.007825032230
         O           -0.357139000000     2.126165000000    -1.924590000000    15.994914619570
         H           -0.018848000000     1.313137000000    -1.513999000000     1.007825032230
         H            0.141845000000     2.856791000000    -1.535479000000     1.007825032230

  Running in c1 symmetry.

  Rotational constants: A =      0.03699  B =      0.03187  C =      0.02374 [cm^-1]
  Rotational constants: A =   1109.03452  B =    955.51357  C =    711.81886 [MHz]
  Nuclear repulsion =  254.228173565765417

  Charge       = 0
  Multiplicity = 1
  Electrons    = 60
  Nalpha       = 30
  Nbeta        = 30

  ==> Algorithm <==

  SCF Algorithm Type is DF.
  DIIS enabled.
  MOM disabled.
  Fractional occupation disabled.
  Guess Type is SAD.
  Energy threshold   = 1.00e-08
  Density threshold  = 1.00e-08
  Integral threshold = 1.00e-12

  ==> Primary Basis <==

  Basis Set: AUG-CC-PVTZ
    Blend: AUG-CC-PVTZ
    Number of shells: 206
    Number of basis functions: 598
    Number of Cartesian functions: 685
    Spherical Harmonics?: true
    Max angular momentum: 3

   => Loading Basis Set <=

    Name: (AUG-CC-PVTZ AUX)
    Role: JKFIT
    Keyword: DF_BASIS_SCF
    atoms 1                                   entry F          line   348 file /ddmfs1b/softs/psi4conda/share/psi4/basis/aug-cc-pvtz-jkfit.gbs 
    atoms 2, 5, 8, 11, 14, 17                 entry O          line   286 file /ddmfs1b/softs/psi4conda/share/psi4/basis/aug-cc-pvtz-jkfit.gbs 
    atoms 3-4, 6-7, 9-10, 12-13, 15-16, 18-19 entry H          line    70 file /ddmfs1b/softs/psi4conda/share/psi4/basis/aug-cc-pvtz-jkfit.gbs 

  ==> Integral Setup <==

  ==> DiskDFJK: Density-Fitted J/K Matrices <==

    J tasked:                  Yes
    K tasked:                  Yes
    wK tasked:                  No
    OpenMP threads:             20
    Integrals threads:          20
    Memory [MiB]:            42915
    Algorithm:                Core
    Integral Cache:           LOAD
    Schwarz Cutoff:          1E-12
    Fitting Condition:       1E-10

   => Auxiliary Basis Set <=

  Basis Set: (AUG-CC-PVTZ AUX)
    Blend: AUG-CC-PVTZ-JKFIT
    Number of shells: 378
    Number of basis functions: 1280
    Number of Cartesian functions: 1577
    Spherical Harmonics?: true
    Max angular momentum: 4

  Minimum eigenvalue in the overlap matrix is 4.6948285447E-05.
  Reciprocal condition number of the overlap matrix is 2.9323279821E-06.
    Using symmetric orthogonalization.

  ==> Pre-Iterations <==

  SCF Guess: Superposition of Atomic Densities via on-the-fly atomic UHF (no occupation information).

   -------------------------
    Irrep   Nso     Nmo    
   -------------------------
     A        598     598 
   -------------------------
    Total     598     598
   -------------------------

  ==> Iterations <==

                           Total Energy        Delta E     RMS |[F,P]|

   @DF-RHF iter SAD:  -453.09742330854948   -4.53097e+02   0.00000e+00 
   @DF-RHF iter   1:  -455.83143734003818   -2.73401e+00   1.88669e-03 ADIIS/DIIS
   @DF-RHF iter   2:  -456.14202345528156   -3.10586e-01   1.28984e-03 ADIIS/DIIS
   @DF-RHF iter   3:  -456.32861588113116   -1.86592e-01   9.47750e-05 DIIS
   @DF-RHF iter   4:  -456.33137044329970   -2.75456e-03   2.30549e-05 DIIS
   @DF-RHF iter   5:  -456.33153379110269   -1.63348e-04   7.40529e-06 DIIS
   @DF-RHF iter   6:  -456.33155013298767   -1.63419e-05   3.19314e-06 DIIS
   @DF-RHF iter   7:  -456.33155262555215   -2.49256e-06   6.70561e-07 DIIS
   @DF-RHF iter   8:  -456.33155285403348   -2.28481e-07   1.42471e-07 DIIS
   @DF-RHF iter   9:  -456.33155286322744   -9.19397e-09   4.74180e-08 DIIS
   @DF-RHF iter  10:  -456.33155286399011   -7.62668e-10   1.89531e-08 DIIS
   @DF-RHF iter  11:  -456.33155286410386   -1.13744e-10   6.31834e-09 DIIS
  Energy and wave function converged.


  ==> Post-Iterations <==

    Orbital Energies [Eh]
    ---------------------

    Doubly Occupied:                                                      

       1A    -20.605050     2A    -20.603861     3A    -20.597469  
       4A    -20.591566     5A    -20.588249     6A    -20.582097  
       7A     -1.385068     8A     -1.380446     9A     -1.377548  
      10A     -1.376176    11A     -1.367412    12A     -1.356746  
      13A     -0.752535    14A     -0.744091    15A     -0.743155  
      16A     -0.741071    17A     -0.729964    18A     -0.727816  
      19A     -0.626559    20A     -0.612765    21A     -0.610136  
      22A     -0.605142    23A     -0.600161    24A     -0.591131  
      25A     -0.546581    26A     -0.541057    27A     -0.537467  
      28A     -0.532782    29A     -0.526776    30A     -0.521903  

    Virtual:                                                              

      31A      0.005591    32A      0.033542    33A      0.035166  
      34A      0.040997    35A      0.045915    36A      0.055699  
      37A      0.059596    38A      0.066838    39A      0.074209  
      40A      0.077957    41A      0.090443    42A      0.094429  
      43A      0.106165    44A      0.127073    45A      0.135253  
      46A      0.147653    47A      0.149952    48A      0.154560  
      49A      0.162278    50A      0.168829    51A      0.171988  
      52A      0.175045    53A      0.180799    54A      0.183993  
      55A      0.188159    56A      0.197061    57A      0.200915  
      58A      0.204483    59A      0.212258    60A      0.217487  
      61A      0.219190    62A      0.223699    63A      0.237650  
      64A      0.238612    65A      0.239510    66A      0.247785  
      67A      0.253042    68A      0.258705    69A      0.267164  
      70A      0.274753    71A      0.280449    72A      0.282692  
      73A      0.294101    74A      0.305971    75A      0.311133  
      76A      0.315252    77A      0.321652    78A      0.324594  
      79A      0.330722    80A      0.337459    81A      0.346300  
      82A      0.361357    83A      0.369056    84A      0.378067  
      85A      0.379863    86A      0.387255    87A      0.392075  
      88A      0.396709    89A      0.405997    90A      0.408927  
      91A      0.420443    92A      0.423567    93A      0.427026  
      94A      0.438179    95A      0.440365    96A      0.449583  
      97A      0.452681    98A      0.459406    99A      0.464862  
     100A      0.471746   101A      0.477169   102A      0.482282  
     103A      0.483832   104A      0.500763   105A      0.508085  
     106A      0.511930   107A      0.514964   108A      0.520582  
     109A      0.536080   110A      0.558472   111A      0.561565  
     112A      0.569262   113A      0.586838   114A      0.602045  
     115A      0.607128   116A      0.611879   117A      0.634579  
     118A      0.647409   119A      0.655182   120A      0.663311  
     121A      0.670128   122A      0.675789   123A      0.682837  
     124A      0.690806   125A      0.699117   126A      0.707825  
     127A      0.719749   128A      0.723238   129A      0.726368  
     130A      0.734911   131A      0.742999   132A      0.748514  
     133A      0.752848   134A      0.763510   135A      0.765939  
     136A      0.774303   137A      0.782173   138A      0.789382  
     139A      0.797396   140A      0.809871   141A      0.814773  
     142A      0.824694   143A      0.829613   144A      0.840197  
     145A      0.843187   146A      0.852198   147A      0.860977  
     148A      0.870218   149A      0.870918   150A      0.872192  
     151A      0.886763   152A      0.891032   153A      0.895670  
     154A      0.900480   155A      0.907373   156A      0.914872  
     157A      0.919942   158A      0.933256   159A      0.936819  
     160A      0.944179   161A      0.953528   162A      0.953980  
     163A      0.966322   164A      0.969133   165A      0.973846  
     166A      0.984173   167A      0.989091   168A      1.003216  
     169A      1.006150   170A      1.012053   171A      1.017141  
     172A      1.029332   173A      1.031680   174A      1.040332  
     175A      1.047010   176A      1.053140   177A      1.060857  
     178A      1.064739   179A      1.070091   180A      1.073645  
     181A      1.080871   182A      1.089644   183A      1.097139  
     184A      1.105111   185A      1.108568   186A      1.119517  
     187A      1.125919   188A      1.136823   189A      1.139466  
     190A      1.145990   191A      1.154794   192A      1.163011  
     193A      1.178763   194A      1.184851   195A      1.192818  
     196A      1.204396   197A      1.215667   198A      1.224006  
     199A      1.229409   200A      1.232106   201A      1.247319  
     202A      1.247644   203A      1.253175   204A      1.262372  
     205A      1.274190   206A      1.278317   207A      1.287363  
     208A      1.300217   209A      1.305538   210A      1.311098  
     211A      1.320743   212A      1.330087   213A      1.339270  
     214A      1.347222   215A      1.353782   216A      1.362355  
     217A      1.383423   218A      1.391145   219A      1.400684  
     220A      1.410705   221A      1.413482   222A      1.421850  
     223A      1.438074   224A      1.440373   225A      1.449882  
     226A      1.457155   227A      1.477416   228A      1.487354  
     229A      1.501615   230A      1.506074   231A      1.527515  
     232A      1.549203   233A      1.554230   234A      1.563993  
     235A      1.573033   236A      1.584862   237A      1.593585  
     238A      1.600963   239A      1.607897   240A      1.617434  
     241A      1.633255   242A      1.648917   243A      1.657799  
     244A      1.659889   245A      1.683879   246A      1.690955  
     247A      1.702253   248A      1.711614   249A      1.725902  
     250A      1.736691   251A      1.742441   252A      1.752274  
     253A      1.758924   254A      1.767723   255A      1.773755  
     256A      1.789866   257A      1.796316   258A      1.807840  
     259A      1.834549   260A      1.845365   261A      1.861689  
     262A      1.881339   263A      1.885602   264A      1.894912  
     265A      1.915495   266A      1.927642   267A      1.943439  
     268A      1.948533   269A      1.975953   270A      1.992885  
     271A      2.005521   272A      2.018525   273A      2.034396  
     274A      2.045924   275A      2.054775   276A      2.061392  
     277A      2.079509   278A      2.084524   279A      2.095787  
     280A      2.143535   281A      2.185066   282A      2.226400  
     283A      2.253761   284A      2.282688   285A      2.315315  
     286A      2.342442   287A      2.362411   288A      2.383018  
     289A      2.389400   290A      2.393080   291A      2.396635  
     292A      2.407102   293A      2.415731   294A      2.426471  
     295A      2.432133   296A      2.444069   297A      2.458105  
     298A      2.461397   299A      2.468669   300A      2.476703  
     301A      2.483945   302A      2.491047   303A      2.497556  
     304A      2.509461   305A      2.517527   306A      2.521635  
     307A      2.536298   308A      2.541658   309A      2.551207  
     310A      2.562494   311A      2.571055   312A      2.584645  
     313A      2.588763   314A      2.610129   315A      2.622514  
     316A      2.625471   317A      2.645922   318A      2.661299  
     319A      2.666800   320A      2.676309   321A      2.681363  
     322A      2.704564   323A      2.714814   324A      2.720782  
     325A      2.727244   326A      2.736117   327A      2.746564  
     328A      2.758527   329A      2.767070   330A      2.785588  
     331A      2.793945   332A      2.808010   333A      2.814004  
     334A      2.824450   335A      2.831771   336A      2.837919  
     337A      2.848089   338A      2.868388   339A      2.873332  
     340A      2.883616   341A      2.905060   342A      2.916270  
     343A      2.919166   344A      2.937465   345A      2.947716  
     346A      2.972583   347A      2.978102   348A      2.983672  
     349A      2.990758   350A      3.032954   351A      3.041752  
     352A      3.052423   353A      3.066331   354A      3.086806  
     355A      3.094557   356A      3.103128   357A      3.132819  
     358A      3.144065   359A      3.157107   360A      3.170482  
     361A      3.201607   362A      3.368783   363A      3.441450  
     364A      3.494187   365A      3.579419   366A      3.594540  
     367A      3.627755   368A      3.692259   369A      3.727963  
     370A      3.752081   371A      3.773873   372A      3.792610  
     373A      3.820670   374A      3.845002   375A      3.859186  
     376A      3.875246   377A      3.927993   378A      3.982465  
     379A      4.025826   380A      4.041777   381A      4.056355  
     382A      4.057084   383A      4.078028   384A      4.089898  
     385A      4.099687   386A      4.115915   387A      4.124638  
     388A      4.140812   389A      4.150991   390A      4.167713  
     391A      4.179799   392A      4.200925   393A      4.223652  
     394A      4.231072   395A      4.236476   396A      4.253738  
     397A      4.262846   398A      4.269831   399A      4.274299  
     400A      4.295989   401A      4.305436   402A      4.314385  
     403A      4.318137   404A      4.327349   405A      4.329257  
     406A      4.342618   407A      4.352489   408A      4.362129  
     409A      4.367406   410A      4.388433   411A      4.391975  
     412A      4.399162   413A      4.413363   414A      4.420955  
     415A      4.433760   416A      4.441819   417A      4.449786  
     418A      4.459057   419A      4.467588   420A      4.475074  
     421A      4.487175   422A      4.493111   423A      4.500830  
     424A      4.509806   425A      4.518907   426A      4.532282  
     427A      4.540067   428A      4.549856   429A      4.560677  
     430A      4.577716   431A      4.589500   432A      4.612800  
     433A      4.623312   434A      4.642489   435A      4.656264  
     436A      4.673835   437A      4.687489   438A      4.699881  
     439A      4.718747   440A      4.740461   441A      4.744910  
     442A      4.766874   443A      4.782285   444A      4.797525  
     445A      4.826967   446A      4.847625   447A      4.861338  
     448A      4.912844   449A      4.923593   450A      4.978905  
     451A      4.981457   452A      5.016451   453A      5.059361  
     454A      5.077190   455A      5.125043   456A      5.139894  
     457A      5.148542   458A      5.166651   459A      5.173617  
     460A      5.194247   461A      5.198834   462A      5.211647  
     463A      5.244577   464A      5.258726   465A      5.294250  
     466A      5.303872   467A      5.317379   468A      5.348199  
     469A      5.349082   470A      5.360285   471A      5.371155  
     472A      5.378739   473A      5.404852   474A      5.424868  
     475A      5.442600   476A      5.452074   477A      5.485221  
     478A      5.503736   479A      5.523437   480A      5.551287  
     481A      5.576377   482A      5.594246   483A      5.628808  
     484A      5.668138   485A      5.723080   486A      5.746895  
     487A      5.775625   488A      5.802517   489A      5.816982  
     490A      5.889670   491A      5.977536   492A      6.218100  
     493A      6.257866   494A      6.265694   495A      6.316908  
     496A      6.319687   497A      6.399745   498A      6.552153  
     499A      6.559118   500A      6.571320   501A      6.580154  
     502A      6.583111   503A      6.620316   504A      6.777551  
     505A      6.827581   506A      6.844149   507A      6.852100  
     508A      6.876923   509A      6.911320   510A      6.923416  
     511A      6.930435   512A      6.981168   513A      6.986445  
     514A      7.019000   515A      7.052428   516A      7.127328  
     517A      7.163336   518A      7.181773   519A      7.215866  
     520A      7.234028   521A      7.255116   522A      7.288873  
     523A      7.292892   524A      7.304133   525A      7.308293  
     526A      7.317164   527A      7.321312   528A      7.337977  
     529A      7.340352   530A      7.344208   531A      7.350031  
     532A      7.356311   533A      7.373585   534A      7.377610  
     535A      7.381807   536A      7.385409   537A      7.392975  
     538A      7.400055   539A      7.413287   540A      7.430702  
     541A      7.439096   542A      7.452362   543A      7.465302  
     544A      7.472015   545A      7.483803   546A      7.513127  
     547A      7.526055   548A      7.550160   549A      7.571507  
     550A      7.617549   551A      7.653332   552A      7.709224  
     553A      7.742339   554A      7.752936   555A      7.802571  
     556A      7.830537   557A      7.891476   558A      7.908518  
     559A      7.939600   560A      7.970342   561A      7.976592  
     562A      8.001499   563A      8.022156   564A      8.023296  
     565A      8.037650   566A      8.050620   567A      8.082291  
     568A      8.114536   569A      8.126110   570A      8.668524  
     571A      8.786910   572A      8.803157   573A      8.813232  
     574A      8.840308   575A      8.961910   576A     10.333010  
     577A     10.388413   578A     10.432778   579A     10.517287  
     580A     10.568371   581A     10.787067   582A     10.901939  
     583A     12.117316   584A     13.216391   585A     13.229751  
     586A     13.254005   587A     13.467631   588A     13.571196  
     589A     14.834879   590A     15.288809   591A     15.381633  
     592A     15.886991   593A     16.514468   594A     16.822179  
     595A     16.928779   596A     17.127480   597A     17.824641  
     598A     75.425266  

    Final Occupation by Irrep:
              A 
    DOCC [    30 ]
    NA   [    30 ]
    NB   [    30 ]

  @DF-RHF Final Energy:  -456.33155286410386

   => Energetics <=

    Nuclear Repulsion Energy =            254.2281735657654167
    One-Electron Energy =               -1134.9138814846348851
    Two-Electron Energy =                 424.3541550547655561
    Total Energy =                       -456.3315528641038554

Computation Completed


Properties will be evaluated at   0.000000,   0.000000,   0.000000 [a0]

Properties computed using the SCF density matrix


 Multipole Moments:

 ------------------------------------------------------------------------------------
     Multipole            Electronic (a.u.)      Nuclear  (a.u.)        Total (a.u.)
 ------------------------------------------------------------------------------------

 L = 1.  Multiply by 2.5417464519 to convert [e a0] to [Debye]
 Dipole X            :         -6.5579444            6.9853197            0.4273753
 Dipole Y            :         27.5752489          -27.6325429           -0.0572941
 Dipole Z            :         11.9080922          -11.5689090            0.3391832
 Magnitude           :                                                    0.5486142

 ------------------------------------------------------------------------------------

*** tstop() called on ddmfs1 at Tue Jan  9 14:36:24 2024
Module time:
	user time   =     230.52 seconds =       3.84 minutes
	system time =       6.31 seconds =       0.11 minutes
	total time  =         13 seconds =       0.22 minutes
Total time:
	user time   =     636.24 seconds =      10.60 minutes
	system time =      28.92 seconds =       0.48 minutes
	total time  =         38 seconds =       0.63 minutes
  Constructing Basis Sets for SAPT...

   => Loading Basis Set <=

    Name: (AUG-CC-PVTZ AUX)
    Role: RIFIT
    Keyword: DF_BASIS_SAPT
    atoms 1                                   entry F          line   322 file /ddmfs1b/softs/psi4conda/share/psi4/basis/aug-cc-pvtz-ri.gbs 
    atoms 2, 5, 8, 11, 14, 17                 entry O          line   264 file /ddmfs1b/softs/psi4conda/share/psi4/basis/aug-cc-pvtz-ri.gbs 
    atoms 3-4, 6-7, 9-10, 12-13, 15-16, 18-19 entry H          line    30 file /ddmfs1b/softs/psi4conda/share/psi4/basis/aug-cc-pvtz-ri.gbs 

   => Loading Basis Set <=

    Name: (AUG-CC-PVTZ AUX)
    Role: JKFIT
    Keyword: DF_BASIS_ELST
    atoms 1                                   entry F          line   348 file /ddmfs1b/softs/psi4conda/share/psi4/basis/aug-cc-pvtz-jkfit.gbs 
    atoms 2, 5, 8, 11, 14, 17                 entry O          line   286 file /ddmfs1b/softs/psi4conda/share/psi4/basis/aug-cc-pvtz-jkfit.gbs 
    atoms 3-4, 6-7, 9-10, 12-13, 15-16, 18-19 entry H          line    70 file /ddmfs1b/softs/psi4conda/share/psi4/basis/aug-cc-pvtz-jkfit.gbs 


  //>>>>>>>>>>>>>>>>>>>>>>>>>>>>>>>>>>>//
  //               SAPT2+              //
  //<<<<<<<<<<<<<<<<<<<<<<<<<<<<<<<<<<<//


*** tstart() called on ddmfs1
*** at Tue Jan  9 14:36:25 2024

        SAPT2+  
    Ed Hohenstein
     6 June 2009

      Orbital Information
  --------------------------
    NSO        =       598
    NMO        =       598
    NRI        =      1294
    NOCC A     =         5
    NOCC B     =        30
    FOCC A     =         0
    FOCC B     =         0
    NVIR A     =       593
    NVIR B     =       568

    Estimated memory usage: 11235.9 MB

    Natural Orbital Cutoff:   1.000E-06
    Disp(T3) Truncation:            Yes
    CCD (vv|vv) Truncation:         Yes
    MBPT T2 Truncation:             Yes

    Monomer A: 516 virtual orbitals dropped
    Monomer B: 82 virtual orbitals dropped

    Elst10,r            =    -0.182872055036 [Eh]
    Exch10 (S^2)        =     0.092572510092 [Eh]
    Exch10              =     0.091644234551 [Eh]
    Ind20,r (A<-B)      =    -0.027825537706 [Eh]
    Ind20,r (B<-A)      =    -0.047281568166 [Eh]
    Ind20,r             =    -0.075107105873 [Eh]
    Exch-Ind20,r (A<-B) =     0.017636125456 [Eh]
    Exch-Ind20,r (B<-A) =     0.008422683155 [Eh]
    Exch-Ind20,r        =     0.026058808610 [Eh]
    Disp20              =    -0.035002687717 [Eh]
    Disp20 (NO)         =    -0.030218117295 [Eh]
    Exch-Disp20         =     0.009500198275 [Eh]
    Elst12,r            =    -0.001178783878 [Eh]
    Exch11              =     0.001966600455 [Eh]
    Exch12              =     0.028937327336 [Eh]
    Ind22               =    -0.017816655515 [Eh]
    Disp21              =     0.000978731612 [Eh]
    Disp22 (SDQ)        =    -0.004371036131 [Eh]

    (i =   1 of  30)          2 seconds
    (i =   2 of  30)          4 seconds
    (i =   3 of  30)          6 seconds
    (i =   4 of  30)          8 seconds
    (i =   5 of  30)         11 seconds
    (i =   6 of  30)         13 seconds
    (i =   7 of  30)         15 seconds
    (i =   8 of  30)         17 seconds
    (i =   9 of  30)         19 seconds
    (i =  10 of  30)         21 seconds
    (i =  11 of  30)         23 seconds
    (i =  12 of  30)         25 seconds
    (i =  13 of  30)         27 seconds
    (i =  14 of  30)         29 seconds
    (i =  15 of  30)         32 seconds
    (i =  16 of  30)         34 seconds
    (i =  17 of  30)         36 seconds
    (i =  18 of  30)         38 seconds
    (i =  19 of  30)         40 seconds
    (i =  20 of  30)         42 seconds
    (i =  21 of  30)         44 seconds
    (i =  22 of  30)         46 seconds
    (i =  23 of  30)         48 seconds
    (i =  24 of  30)         50 seconds
    (i =  25 of  30)         53 seconds
    (i =  26 of  30)         55 seconds
    (i =  27 of  30)         57 seconds
    (i =  28 of  30)         59 seconds
    (i =  29 of  30)         61 seconds
    (i =  30 of  30)         63 seconds

    Disp220 (T)         =    -0.003761963518 [Eh]

    (i =   1 of   5)        406 seconds
    (i =   2 of   5)        813 seconds
    (i =   3 of   5)       1220 seconds
    (i =   4 of   5)       1626 seconds
    (i =   5 of   5)       2032 seconds

    Disp202 (T)         =    -0.002836234063 [Eh]

    Disp22 (T)          =    -0.006598197580 [Eh]

    Est. Disp220 (T)    =    -0.004357612122 [Eh]
    Est. Disp202 (T)    =    -0.003285307758 [Eh]

    Est. Disp22 (T)     =    -0.007642919880 [Eh]

    SAPT Results 
  --------------------------------------------------------------------------------------------------------
    Electrostatics               -184.05083891 [mEh]    -115.49364508 [kcal/mol]    -483.22541100 [kJ/mol]
      Elst10,r                   -182.87205504 [mEh]    -114.75394702 [kcal/mol]    -480.13051435 [kJ/mol]
      Elst12,r                     -1.17878388 [mEh]      -0.73969805 [kcal/mol]      -3.09489665 [kJ/mol]

    Exchange                      122.54816234 [mEh]      76.90013286 [kcal/mol]     321.75015590 [kJ/mol]
      Exch10                       91.64423455 [mEh]      57.50762540 [kcal/mol]     240.61190466 [kJ/mol]
      Exch10(S^2)                  92.57251009 [mEh]      58.09012709 [kcal/mol]     243.04909176 [kJ/mol]
      Exch11(S^2)                   1.96660046 [mEh]       1.23406042 [kcal/mol]       5.16330878 [kJ/mol]
      Exch12(S^2)                  28.93732734 [mEh]      18.15844705 [kcal/mol]      75.97494245 [kJ/mol]

    Induction                     -67.36755903 [mEh]     -42.27378152 [kcal/mol]    -176.87350187 [kJ/mol]
      Ind20,r                     -75.10710587 [mEh]     -47.13042048 [kcal/mol]    -197.19367930 [kJ/mol]
      Ind22                       -17.81665551 [mEh]     -11.18012013 [kcal/mol]     -46.77762261 [kJ/mol]
      Exch-Ind20,r                 26.05880861 [mEh]      16.35214928 [kcal/mol]      68.41739258 [kJ/mol]
      Exch-Ind22                    6.18158310 [mEh]       3.87900196 [kcal/mol]      16.22974419 [kJ/mol]
      delta HF,r (2)               -6.68418935 [mEh]      -4.19439214 [kcal/mol]     -17.54933673 [kJ/mol]

    Dispersion                    -36.53771384 [mEh]     -22.92776159 [kcal/mol]     -95.92975447 [kJ/mol]
      Disp20                      -35.00268772 [mEh]     -21.96451815 [kcal/mol]     -91.89954394 [kJ/mol]
      Disp21                        0.97873161 [mEh]       0.61416336 [kcal/mol]       2.56965949 [kJ/mol]
      Disp22 (SDQ)                 -4.37103613 [mEh]      -2.74286658 [kcal/mol]     -11.47615378 [kJ/mol]
      Disp22 (T)                   -6.59819758 [mEh]      -4.14043149 [kcal/mol]     -17.32356536 [kJ/mol]
      Est. Disp22 (T)              -7.64291988 [mEh]      -4.79600463 [kcal/mol]     -20.06648338 [kJ/mol]
      Exch-Disp20                   9.50019828 [mEh]       5.96146442 [kcal/mol]      24.94276714 [kJ/mol]

  Total HF                       -146.96030710 [mEh]     -92.21898497 [kcal/mol]    -385.84423313 [kJ/mol]
  Total SAPT0                    -172.46279654 [mEh]    -108.22203870 [kcal/mol]    -452.80100994 [kJ/mol]
  Total SAPT2                    -154.37272505 [mEh]     -96.87034746 [kcal/mol]    -405.30553377 [kJ/mol]
  Total SAPT2+                   -165.40794945 [mEh]    -103.79505532 [kcal/mol]    -434.27851144 [kJ/mol]

  Special recipe for scaled SAPT0 (see Manual):
    Electrostatics sSAPT0        -182.87205504 [mEh]    -114.75394702 [kcal/mol]    -480.13051435 [kJ/mol]
    Exchange sSAPT0                91.64423455 [mEh]      57.50762540 [kcal/mol]     240.61190466 [kJ/mol]
    Induction sSAPT0              -56.50857019 [mEh]     -35.45966314 [kcal/mol]    -148.36323059 [kJ/mol]
    Dispersion sSAPT0             -25.78542440 [mEh]     -16.18059809 [kcal/mol]     -67.69962242 [kJ/mol]
  Total sSAPT0                   -173.52181507 [mEh]    -108.88658286 [kcal/mol]    -455.58146270 [kJ/mol]
  --------------------------------------------------------------------------------------------------------

*** tstop() called on ddmfs1 at Tue Jan  9 15:25:59 2024
Module time:
	user time   =   14907.43 seconds =     248.46 minutes
	system time =     316.93 seconds =       5.28 minutes
	total time  =       2974 seconds =      49.57 minutes
Total time:
	user time   =   15546.53 seconds =     259.11 minutes
	system time =     345.93 seconds =       5.77 minutes
	total time  =       3013 seconds =      50.22 minutes

    Psi4 stopped on: Tuesday, 09 January 2024 03:25PM
    Psi4 wall time for execution: 0:50:13.87

*** Psi4 exiting successfully. Buy a developer a beer!
