
    -----------------------------------------------------------------------
          Psi4: An Open-Source Ab Initio Electronic Structure Package
                               Psi4 1.8.2 release

                         Git: Rev {} zzzzzzz 


    D. G. A. Smith, L. A. Burns, A. C. Simmonett, R. M. Parrish,
    M. C. Schieber, R. Galvelis, P. Kraus, H. Kruse, R. Di Remigio,
    A. Alenaizan, A. M. James, S. Lehtola, J. P. Misiewicz, M. Scheurer,
    R. A. Shaw, J. B. Schriber, Y. Xie, Z. L. Glick, D. A. Sirianni,
    J. S. O'Brien, J. M. Waldrop, A. Kumar, E. G. Hohenstein,
    B. P. Pritchard, B. R. Brooks, H. F. Schaefer III, A. Yu. Sokolov,
    K. Patkowski, A. E. DePrince III, U. Bozkaya, R. A. King,
    F. A. Evangelista, J. M. Turney, T. D. Crawford, C. D. Sherrill,
    J. Chem. Phys. 152(18) 184108 (2020). https://doi.org/10.1063/5.0006002

                            Additional Code Authors
    E. T. Seidl, C. L. Janssen, E. F. Valeev, M. L. Leininger,
    J. F. Gonthier, R. M. Richard, H. R. McAlexander, M. Saitow, X. Wang,
    P. Verma, M. H. Lechner, A. Jiang, S. Behnle, A. G. Heide,
    M. F. Herbst, and D. L. Poole

             Previous Authors, Complete List of Code Contributors,
                       and Citations for Specific Modules
    https://github.com/psi4/psi4/blob/master/codemeta.json
    https://github.com/psi4/psi4/graphs/contributors
    http://psicode.org/psi4manual/master/introduction.html#citing-psifour

    -----------------------------------------------------------------------


    Psi4 started on: Wednesday, 10 January 2024 01:26AM

    Process ID: 271088
    Host:       ddmfs1
    PSIDATADIR: /ddmfs1b/softs/psi4conda/share/psi4
    Memory:     500.0 MiB
    Threads:    20
    
  ==> Input File <==

--------------------------------------------------------------------------
MEMORY 60 GB

molecule dimer {
-1 1
F      0.000000     0.000000     0.000000
--
0 1
O      2.400550     0.878111     1.258466
H      1.541205     0.949633     0.811432
H      2.699131     1.774987     1.477501
O     -2.134479     1.075150     1.390297
H     -2.935259     0.501464     1.548356
H     -1.522539     0.602603     0.828169
O     -2.058570    -0.966210    -1.758447
H     -1.269903    -0.802439    -1.187441
H     -2.168440    -1.875697    -2.119616
O      2.056294    -1.500050    -1.140092
H      1.522958    -0.799826    -0.738451
H      2.773549    -1.554714    -0.462578
O     -0.008638     2.314735    -1.744331
H     -0.015099     1.517325    -1.142884
H     -0.979067     2.389768    -1.960602
O      0.111329    -1.229377     2.544786
H     -0.031102    -0.875406     1.676046
H      0.128193    -0.452941     3.103989

units ang
no_reorient
no_com
symmetry c1
}

set {
basis        aug-cc-pVTZ
scf_type     df
}

energy("sapt2+")
--------------------------------------------------------------------------

  Memory set to  55.879 GiB by Python driver.

Scratch directory: /ddmfs1a/scratch/
   => Loading Basis Set <=

    Name: AUG-CC-PVTZ
    Role: ORBITAL
    Keyword: BASIS
    atoms 1                                   entry F          line   377 file /ddmfs1b/softs/psi4conda/share/psi4/basis/aug-cc-pvtz.gbs 
    atoms 2, 5, 8, 11, 14, 17                 entry O          line   331 file /ddmfs1b/softs/psi4conda/share/psi4/basis/aug-cc-pvtz.gbs 
    atoms 3-4, 6-7, 9-10, 12-13, 15-16, 18-19 entry H          line    40 file /ddmfs1b/softs/psi4conda/share/psi4/basis/aug-cc-pvtz.gbs 

   => Loading Basis Set <=

    Name: AUG-CC-PVTZ
    Role: ORBITAL
    Keyword: BASIS
    atoms 1                                   entry F          line   377 file /ddmfs1b/softs/psi4conda/share/psi4/basis/aug-cc-pvtz.gbs 
    atoms 2, 5, 8, 11, 14, 17                 entry O          line   331 file /ddmfs1b/softs/psi4conda/share/psi4/basis/aug-cc-pvtz.gbs 
    atoms 3-4, 6-7, 9-10, 12-13, 15-16, 18-19 entry H          line    40 file /ddmfs1b/softs/psi4conda/share/psi4/basis/aug-cc-pvtz.gbs 


  //>>>>>>>>>>>>>>>>>>>>>>>>>>>>>>>>>>>//
  //              Dimer HF             //
  //<<<<<<<<<<<<<<<<<<<<<<<<<<<<<<<<<<<//

   => Libint2 <=

    Primary   basis highest AM E, G, H:  5, 4, 3
    Auxiliary basis highest AM E, G, H:  6, 5, 4
    Onebody   basis highest AM E, G, H:  6, 5, 4
    Solid Harmonics ordering:            gaussian

*** tstart() called on ddmfs1
*** at Wed Jan 10 01:26:09 2024

   => Loading Basis Set <=

    Name: AUG-CC-PVTZ
    Role: ORBITAL
    Keyword: BASIS
    atoms 1                                   entry F          line   377 file /ddmfs1b/softs/psi4conda/share/psi4/basis/aug-cc-pvtz.gbs 
    atoms 2, 5, 8, 11, 14, 17                 entry O          line   331 file /ddmfs1b/softs/psi4conda/share/psi4/basis/aug-cc-pvtz.gbs 
    atoms 3-4, 6-7, 9-10, 12-13, 15-16, 18-19 entry H          line    40 file /ddmfs1b/softs/psi4conda/share/psi4/basis/aug-cc-pvtz.gbs 


         ---------------------------------------------------------
                                   SCF
               by Justin Turney, Rob Parrish, Andy Simmonett
                          and Daniel G. A. Smith
                              RHF Reference
                       20 Threads,  57220 MiB Core
         ---------------------------------------------------------

  ==> Geometry <==

    Molecular point group: c1
    Full point group: C1

    Geometry (in Angstrom), charge = -1, multiplicity = 1:

       Center              X                  Y                   Z               Mass       
    ------------   -----------------  -----------------  -----------------  -----------------
         F            0.000000000000     0.000000000000     0.000000000000    18.998403162730
         O            2.400550000000     0.878111000000     1.258466000000    15.994914619570
         H            1.541205000000     0.949633000000     0.811432000000     1.007825032230
         H            2.699131000000     1.774987000000     1.477501000000     1.007825032230
         O           -2.134479000000     1.075150000000     1.390297000000    15.994914619570
         H           -2.935259000000     0.501464000000     1.548356000000     1.007825032230
         H           -1.522539000000     0.602603000000     0.828169000000     1.007825032230
         O           -2.058570000000    -0.966210000000    -1.758447000000    15.994914619570
         H           -1.269903000000    -0.802439000000    -1.187441000000     1.007825032230
         H           -2.168440000000    -1.875697000000    -2.119616000000     1.007825032230
         O            2.056294000000    -1.500050000000    -1.140092000000    15.994914619570
         H            1.522958000000    -0.799826000000    -0.738451000000     1.007825032230
         H            2.773549000000    -1.554714000000    -0.462578000000     1.007825032230
         O           -0.008638000000     2.314735000000    -1.744331000000    15.994914619570
         H           -0.015099000000     1.517325000000    -1.142884000000     1.007825032230
         H           -0.979067000000     2.389768000000    -1.960602000000     1.007825032230
         O            0.111329000000    -1.229377000000     2.544786000000    15.994914619570
         H           -0.031102000000    -0.875406000000     1.676046000000     1.007825032230
         H            0.128193000000    -0.452941000000     3.103989000000     1.007825032230

  Running in c1 symmetry.

  Rotational constants: A =      0.03393  B =      0.02950  C =      0.02581 [cm^-1]
  Rotational constants: A =   1017.24360  B =    884.45636  C =    773.77896 [MHz]
  Nuclear repulsion =  351.531528270008664

  Charge       = -1
  Multiplicity = 1
  Electrons    = 70
  Nalpha       = 35
  Nbeta        = 35

  ==> Algorithm <==

  SCF Algorithm Type is DF.
  DIIS enabled.
  MOM disabled.
  Fractional occupation disabled.
  Guess Type is SAD.
  Energy threshold   = 1.00e-08
  Density threshold  = 1.00e-08
  Integral threshold = 1.00e-12

  ==> Primary Basis <==

  Basis Set: AUG-CC-PVTZ
    Blend: AUG-CC-PVTZ
    Number of shells: 206
    Number of basis functions: 598
    Number of Cartesian functions: 685
    Spherical Harmonics?: true
    Max angular momentum: 3

   => Loading Basis Set <=

    Name: (AUG-CC-PVTZ AUX)
    Role: JKFIT
    Keyword: DF_BASIS_SCF
    atoms 1                                   entry F          line   348 file /ddmfs1b/softs/psi4conda/share/psi4/basis/aug-cc-pvtz-jkfit.gbs 
    atoms 2, 5, 8, 11, 14, 17                 entry O          line   286 file /ddmfs1b/softs/psi4conda/share/psi4/basis/aug-cc-pvtz-jkfit.gbs 
    atoms 3-4, 6-7, 9-10, 12-13, 15-16, 18-19 entry H          line    70 file /ddmfs1b/softs/psi4conda/share/psi4/basis/aug-cc-pvtz-jkfit.gbs 

  ==> Integral Setup <==

  ==> DiskDFJK: Density-Fitted J/K Matrices <==

    J tasked:                  Yes
    K tasked:                  Yes
    wK tasked:                  No
    OpenMP threads:             20
    Integrals threads:          20
    Memory [MiB]:            42915
    Algorithm:                Core
    Integral Cache:           SAVE
    Schwarz Cutoff:          1E-12
    Fitting Condition:       1E-10

   => Auxiliary Basis Set <=

  Basis Set: (AUG-CC-PVTZ AUX)
    Blend: AUG-CC-PVTZ-JKFIT
    Number of shells: 378
    Number of basis functions: 1280
    Number of Cartesian functions: 1577
    Spherical Harmonics?: true
    Max angular momentum: 4

  Minimum eigenvalue in the overlap matrix is 2.1618312068E-05.
  Reciprocal condition number of the overlap matrix is 1.4197265401E-06.
    Using symmetric orthogonalization.

  ==> Pre-Iterations <==

  SCF Guess: Superposition of Atomic Densities via on-the-fly atomic UHF (no occupation information).

   -------------------------
    Irrep   Nso     Nmo    
   -------------------------
     A        598     598 
   -------------------------
    Total     598     598
   -------------------------

  ==> Iterations <==

                           Total Energy        Delta E     RMS |[F,P]|

   @DF-RHF iter SAD:  -552.06612369068080   -5.52066e+02   0.00000e+00 
   @DF-RHF iter   1:  -555.40436874968782   -3.33825e+00   1.96623e-03 ADIIS/DIIS
   @DF-RHF iter   2:  -555.73446562645233   -3.30097e-01   1.32494e-03 ADIIS/DIIS
   @DF-RHF iter   3:  -555.92289778917927   -1.88432e-01   8.88530e-05 DIIS
   @DF-RHF iter   4:  -555.92528531117739   -2.38752e-03   2.51083e-05 DIIS
   @DF-RHF iter   5:  -555.92542990568450   -1.44595e-04   1.11028e-05 DIIS
   @DF-RHF iter   6:  -555.92545342034919   -2.35147e-05   3.02876e-06 DIIS
   @DF-RHF iter   7:  -555.92545685915502   -3.43881e-06   7.38376e-07 DIIS
   @DF-RHF iter   8:  -555.92545710745696   -2.48302e-07   2.94936e-07 DIIS
   @DF-RHF iter   9:  -555.92545712540914   -1.79522e-08   6.99373e-08 DIIS
   @DF-RHF iter  10:  -555.92545712732226   -1.91312e-09   1.18979e-08 DIIS
   @DF-RHF iter  11:  -555.92545712738445   -6.21867e-11   4.29815e-09 DIIS
  Energy and wave function converged.


  ==> Post-Iterations <==

    Orbital Energies [Eh]
    ---------------------

    Doubly Occupied:                                                      

       1A    -26.014690     2A    -20.424315     3A    -20.416948  
       4A    -20.413451     5A    -20.413042     6A    -20.400365  
       7A    -20.398131     8A     -1.283046     9A     -1.203345  
      10A     -1.191526    11A     -1.188580    12A     -1.185014  
      13A     -1.178037    14A     -1.177453    15A     -0.583131  
      16A     -0.576156    17A     -0.569151    18A     -0.557186  
      19A     -0.534763    20A     -0.531571    21A     -0.441406  
      22A     -0.439535    23A     -0.433984    24A     -0.429227  
      25A     -0.425028    26A     -0.416383    27A     -0.372295  
      28A     -0.371217    29A     -0.368569    30A     -0.366363  
      31A     -0.360326    32A     -0.356086    33A     -0.350111  
      34A     -0.342908    35A     -0.340732  

    Virtual:                                                              

      36A      0.114685    37A      0.118329    38A      0.127937  
      39A      0.135591    40A      0.141487    41A      0.145081  
      42A      0.174565    43A      0.182777    44A      0.189034  
      45A      0.195848    46A      0.201266    47A      0.214959  
      48A      0.256824    49A      0.259445    50A      0.266390  
      51A      0.269761    52A      0.273041    53A      0.277031  
      54A      0.281418    55A      0.286675    56A      0.290421  
      57A      0.292827    58A      0.302576    59A      0.304601  
      60A      0.310976    61A      0.322514    62A      0.331460  
      63A      0.341230    64A      0.342678    65A      0.351596  
      66A      0.353363    67A      0.359654    68A      0.364977  
      69A      0.369331    70A      0.373365    71A      0.383016  
      72A      0.395832    73A      0.403861    74A      0.417790  
      75A      0.419153    76A      0.430551    77A      0.435283  
      78A      0.444890    79A      0.451406    80A      0.452415  
      81A      0.454139    82A      0.468407    83A      0.475839  
      84A      0.479964    85A      0.486020    86A      0.495690  
      87A      0.497191    88A      0.503449    89A      0.511437  
      90A      0.524838    91A      0.529499    92A      0.530550  
      93A      0.536191    94A      0.544033    95A      0.548375  
      96A      0.554612    97A      0.567453    98A      0.569548  
      99A      0.576831   100A      0.582608   101A      0.588819  
     102A      0.601500   103A      0.605700   104A      0.610091  
     105A      0.620251   106A      0.642900   107A      0.649536  
     108A      0.652799   109A      0.666708   110A      0.675550  
     111A      0.680723   112A      0.691445   113A      0.698544  
     114A      0.714592   115A      0.716418   116A      0.723607  
     117A      0.739430   118A      0.755505   119A      0.765112  
     120A      0.774471   121A      0.781827   122A      0.801806  
     123A      0.820078   124A      0.828022   125A      0.837745  
     126A      0.845207   127A      0.852017   128A      0.853840  
     129A      0.858838   130A      0.866173   131A      0.873330  
     132A      0.882224   133A      0.883400   134A      0.891085  
     135A      0.895336   136A      0.903081   137A      0.906994  
     138A      0.915259   139A      0.920913   140A      0.923064  
     141A      0.934713   142A      0.943977   143A      0.952966  
     144A      0.958020   145A      0.961616   146A      0.969614  
     147A      0.976280   148A      0.982110   149A      0.985680  
     150A      0.993417   151A      1.003456   152A      1.009103  
     153A      1.019009   154A      1.023290   155A      1.033345  
     156A      1.037786   157A      1.040550   158A      1.055109  
     159A      1.055967   160A      1.070214   161A      1.072115  
     162A      1.081491   163A      1.084389   164A      1.090779  
     165A      1.096263   166A      1.109690   167A      1.113157  
     168A      1.117200   169A      1.122692   170A      1.126250  
     171A      1.138808   172A      1.145662   173A      1.150325  
     174A      1.154425   175A      1.162011   176A      1.167992  
     177A      1.175592   178A      1.183334   179A      1.185481  
     180A      1.193063   181A      1.194745   182A      1.203200  
     183A      1.209178   184A      1.212130   185A      1.217876  
     186A      1.225206   187A      1.233819   188A      1.252400  
     189A      1.259612   190A      1.272689   191A      1.280227  
     192A      1.284087   193A      1.294584   194A      1.299612  
     195A      1.303787   196A      1.313242   197A      1.334693  
     198A      1.338157   199A      1.347299   200A      1.351094  
     201A      1.354662   202A      1.362270   203A      1.371829  
     204A      1.379793   205A      1.384153   206A      1.397432  
     207A      1.413579   208A      1.415881   209A      1.419255  
     210A      1.423193   211A      1.432147   212A      1.443687  
     213A      1.456065   214A      1.460186   215A      1.473274  
     216A      1.479790   217A      1.486636   218A      1.507491  
     219A      1.518301   220A      1.527631   221A      1.531443  
     222A      1.539433   223A      1.549501   224A      1.555741  
     225A      1.566545   226A      1.586769   227A      1.600641  
     228A      1.605201   229A      1.618807   230A      1.622683  
     231A      1.639564   232A      1.653093   233A      1.660491  
     234A      1.668402   235A      1.686184   236A      1.689557  
     237A      1.696932   238A      1.727682   239A      1.732356  
     240A      1.741090   241A      1.744633   242A      1.759837  
     243A      1.779336   244A      1.784396   245A      1.792383  
     246A      1.795700   247A      1.804323   248A      1.813405  
     249A      1.823294   250A      1.839249   251A      1.845003  
     252A      1.862794   253A      1.881435   254A      1.888864  
     255A      1.902388   256A      1.906872   257A      1.922868  
     258A      1.929104   259A      1.932099   260A      1.937876  
     261A      1.966396   262A      1.971718   263A      1.987490  
     264A      2.006554   265A      2.022576   266A      2.034282  
     267A      2.068304   268A      2.080201   269A      2.081516  
     270A      2.096724   271A      2.111185   272A      2.127721  
     273A      2.136460   274A      2.150651   275A      2.154742  
     276A      2.175506   277A      2.186086   278A      2.192770  
     279A      2.209783   280A      2.235464   281A      2.263365  
     282A      2.290036   283A      2.371625   284A      2.381514  
     285A      2.408378   286A      2.454133   287A      2.474149  
     288A      2.476865   289A      2.488565   290A      2.497398  
     291A      2.498826   292A      2.507695   293A      2.518647  
     294A      2.526417   295A      2.540143   296A      2.561247  
     297A      2.563423   298A      2.577689   299A      2.585307  
     300A      2.597048   301A      2.600105   302A      2.608057  
     303A      2.619426   304A      2.633003   305A      2.637094  
     306A      2.645535   307A      2.647921   308A      2.666570  
     309A      2.674733   310A      2.684028   311A      2.690121  
     312A      2.699942   313A      2.702568   314A      2.715668  
     315A      2.731977   316A      2.735431   317A      2.748834  
     318A      2.764791   319A      2.778920   320A      2.783907  
     321A      2.797505   322A      2.809755   323A      2.821609  
     324A      2.836806   325A      2.844089   326A      2.857158  
     327A      2.870500   328A      2.877812   329A      2.890046  
     330A      2.892210   331A      2.904843   332A      2.922600  
     333A      2.931318   334A      2.938985   335A      2.952120  
     336A      2.964038   337A      2.965366   338A      2.980903  
     339A      2.987205   340A      3.000335   341A      3.011576  
     342A      3.019427   343A      3.025101   344A      3.045592  
     345A      3.064098   346A      3.068413   347A      3.093495  
     348A      3.098404   349A      3.113761   350A      3.123884  
     351A      3.127010   352A      3.134056   353A      3.153404  
     354A      3.172002   355A      3.194420   356A      3.212851  
     357A      3.228060   358A      3.240303   359A      3.261427  
     360A      3.278218   361A      3.303859   362A      3.325729  
     363A      3.335607   364A      3.352850   365A      3.387130  
     366A      3.498781   367A      3.574529   368A      3.670195  
     369A      3.698365   370A      3.735744   371A      3.743272  
     372A      3.764903   373A      3.809888   374A      3.855314  
     375A      3.874007   376A      3.876073   377A      3.897158  
     378A      3.931234   379A      3.944552   380A      3.968624  
     381A      3.983035   382A      4.049462   383A      4.085195  
     384A      4.147104   385A      4.164252   386A      4.217402  
     387A      4.224459   388A      4.247645   389A      4.255610  
     390A      4.262669   391A      4.283303   392A      4.297039  
     393A      4.315660   394A      4.323559   395A      4.350901  
     396A      4.358167   397A      4.363447   398A      4.389723  
     399A      4.401070   400A      4.408225   401A      4.415257  
     402A      4.428375   403A      4.438391   404A      4.442846  
     405A      4.449257   406A      4.465453   407A      4.477183  
     408A      4.492375   409A      4.497750   410A      4.503546  
     411A      4.511681   412A      4.518050   413A      4.532387  
     414A      4.544263   415A      4.551493   416A      4.557343  
     417A      4.574897   418A      4.584752   419A      4.587981  
     420A      4.603657   421A      4.607802   422A      4.616394  
     423A      4.623002   424A      4.635491   425A      4.647927  
     426A      4.654857   427A      4.664259   428A      4.674729  
     429A      4.680784   430A      4.704059   431A      4.709498  
     432A      4.717164   433A      4.734960   434A      4.747936  
     435A      4.759616   436A      4.776464   437A      4.789021  
     438A      4.811998   439A      4.838335   440A      4.847614  
     441A      4.863964   442A      4.876029   443A      4.890731  
     444A      4.912804   445A      4.930218   446A      4.944026  
     447A      4.958345   448A      4.982652   449A      5.014196  
     450A      5.046054   451A      5.072927   452A      5.132564  
     453A      5.151169   454A      5.182292   455A      5.196800  
     456A      5.235930   457A      5.259974   458A      5.278086  
     459A      5.301317   460A      5.313471   461A      5.325404  
     462A      5.336376   463A      5.348764   464A      5.360268  
     465A      5.374108   466A      5.425869   467A      5.435735  
     468A      5.443943   469A      5.458106   470A      5.487059  
     471A      5.499843   472A      5.516997   473A      5.525862  
     474A      5.548833   475A      5.553381   476A      5.592034  
     477A      5.597035   478A      5.614153   479A      5.619381  
     480A      5.633277   481A      5.649103   482A      5.678005  
     483A      5.689479   484A      5.740736   485A      5.744738  
     486A      5.804708   487A      5.828665   488A      5.888400  
     489A      5.941242   490A      5.973812   491A      5.984328  
     492A      6.026497   493A      6.209516   494A      6.361762  
     495A      6.381152   496A      6.416603   497A      6.481058  
     498A      6.545340   499A      6.603295   500A      6.681364  
     501A      6.717824   502A      6.729683   503A      6.740877  
     504A      6.761604   505A      6.767690   506A      6.785916  
     507A      6.830289   508A      6.952044   509A      6.958363  
     510A      6.963714   511A      6.989259   512A      7.012708  
     513A      7.028045   514A      7.047208   515A      7.083318  
     516A      7.089227   517A      7.153996   518A      7.178606  
     519A      7.229251   520A      7.286604   521A      7.310097  
     522A      7.322905   523A      7.324949   524A      7.346974  
     525A      7.375862   526A      7.387341   527A      7.396916  
     528A      7.425296   529A      7.439613   530A      7.449856  
     531A      7.462204   532A      7.468789   533A      7.470822  
     534A      7.482513   535A      7.484401   536A      7.505675  
     537A      7.520605   538A      7.530636   539A      7.537563  
     540A      7.543482   541A      7.555009   542A      7.566168  
     543A      7.571029   544A      7.586288   545A      7.613122  
     546A      7.627733   547A      7.644343   548A      7.652989  
     549A      7.667164   550A      7.689088   551A      7.704769  
     552A      7.716007   553A      7.727471   554A      7.767480  
     555A      7.774153   556A      7.912482   557A      7.933823  
     558A      7.947909   559A      7.956091   560A      7.985418  
     561A      8.014056   562A      8.046918   563A      8.100720  
     564A      8.109074   565A      8.119140   566A      8.142811  
     567A      8.159872   568A      8.187131   569A      8.200810  
     570A      8.215856   571A      8.239077   572A      8.279236  
     573A      8.328061   574A      8.798226   575A      8.845907  
     576A      8.888678   577A      8.944689   578A      8.972050  
     579A      9.072574   580A      9.280600   581A      9.476134  
     582A      9.487947   583A      9.537802   584A      9.762628  
     585A      9.820255   586A     10.030102   587A     10.057157  
     588A     10.098521   589A     10.125359   590A     10.289158  
     591A     10.346476   592A     14.993626   593A     16.230022  
     594A     16.298631   595A     16.493795   596A     16.617448  
     597A     17.076967   598A     17.916640  

    Final Occupation by Irrep:
              A 
    DOCC [    35 ]
    NA   [    35 ]
    NB   [    35 ]

  @DF-RHF Final Energy:  -555.92545712738445

   => Energetics <=

    Nuclear Repulsion Energy =            351.5315282700086641
    One-Electron Energy =               -1482.8058139562344877
    Two-Electron Energy =                 575.3488285588413191
    Total Energy =                       -555.9254571273844476

Computation Completed


Properties will be evaluated at   0.000000,   0.000000,   0.000000 [a0]

Properties computed using the SCF density matrix


 Multipole Moments:

 ------------------------------------------------------------------------------------
     Multipole            Electronic (a.u.)      Nuclear  (a.u.)        Total (a.u.)
 ------------------------------------------------------------------------------------

 L = 1.  Multiply by 2.5417464519 to convert [e a0] to [Debye]
 Dipole X            :         -5.6206712            5.0559906           -0.5646806
 Dipole Y            :        -11.1655630           11.2507283            0.0851652
 Dipole Z            :        -11.3776983           11.7906684            0.4129700
 Magnitude           :                                                    0.7047422

 ------------------------------------------------------------------------------------

*** tstop() called on ddmfs1 at Wed Jan 10 01:26:26 2024
Module time:
	user time   =     260.26 seconds =       4.34 minutes
	system time =      20.13 seconds =       0.34 minutes
	total time  =         17 seconds =       0.28 minutes
Total time:
	user time   =     260.26 seconds =       4.34 minutes
	system time =      20.13 seconds =       0.34 minutes
	total time  =         17 seconds =       0.28 minutes

  //>>>>>>>>>>>>>>>>>>>>>>>>>>>>>>>>>>>//
  //            Monomer A HF           //
  //<<<<<<<<<<<<<<<<<<<<<<<<<<<<<<<<<<<//

   => Libint2 <=

    Primary   basis highest AM E, G, H:  5, 4, 3
    Auxiliary basis highest AM E, G, H:  6, 5, 4
    Onebody   basis highest AM E, G, H:  6, 5, 4
    Solid Harmonics ordering:            gaussian

*** tstart() called on ddmfs1
*** at Wed Jan 10 01:26:26 2024

   => Loading Basis Set <=

    Name: AUG-CC-PVTZ
    Role: ORBITAL
    Keyword: BASIS
    atoms 1                                   entry F          line   377 file /ddmfs1b/softs/psi4conda/share/psi4/basis/aug-cc-pvtz.gbs 
    atoms 2, 5, 8, 11, 14, 17                 entry O          line   331 file /ddmfs1b/softs/psi4conda/share/psi4/basis/aug-cc-pvtz.gbs 
    atoms 3-4, 6-7, 9-10, 12-13, 15-16, 18-19 entry H          line    40 file /ddmfs1b/softs/psi4conda/share/psi4/basis/aug-cc-pvtz.gbs 


         ---------------------------------------------------------
                                   SCF
               by Justin Turney, Rob Parrish, Andy Simmonett
                          and Daniel G. A. Smith
                              RHF Reference
                       20 Threads,  57220 MiB Core
         ---------------------------------------------------------

  ==> Geometry <==

    Molecular point group: c1
    Full point group: C1

    Geometry (in Angstrom), charge = -1, multiplicity = 1:

       Center              X                  Y                   Z               Mass       
    ------------   -----------------  -----------------  -----------------  -----------------
         F            0.000000000000     0.000000000000     0.000000000000    18.998403162730
      Gh(O)           2.400550000000     0.878111000000     1.258466000000    15.994914619570
      Gh(H)           1.541205000000     0.949633000000     0.811432000000     1.007825032230
      Gh(H)           2.699131000000     1.774987000000     1.477501000000     1.007825032230
      Gh(O)          -2.134479000000     1.075150000000     1.390297000000    15.994914619570
      Gh(H)          -2.935259000000     0.501464000000     1.548356000000     1.007825032230
      Gh(H)          -1.522539000000     0.602603000000     0.828169000000     1.007825032230
      Gh(O)          -2.058570000000    -0.966210000000    -1.758447000000    15.994914619570
      Gh(H)          -1.269903000000    -0.802439000000    -1.187441000000     1.007825032230
      Gh(H)          -2.168440000000    -1.875697000000    -2.119616000000     1.007825032230
      Gh(O)           2.056294000000    -1.500050000000    -1.140092000000    15.994914619570
      Gh(H)           1.522958000000    -0.799826000000    -0.738451000000     1.007825032230
      Gh(H)           2.773549000000    -1.554714000000    -0.462578000000     1.007825032230
      Gh(O)          -0.008638000000     2.314735000000    -1.744331000000    15.994914619570
      Gh(H)          -0.015099000000     1.517325000000    -1.142884000000     1.007825032230
      Gh(H)          -0.979067000000     2.389768000000    -1.960602000000     1.007825032230
      Gh(O)           0.111329000000    -1.229377000000     2.544786000000    15.994914619570
      Gh(H)          -0.031102000000    -0.875406000000     1.676046000000     1.007825032230
      Gh(H)           0.128193000000    -0.452941000000     3.103989000000     1.007825032230

  Running in c1 symmetry.

  Rotational constants: A =      0.03393  B =      0.02950  C =      0.02581 [cm^-1]
  Rotational constants: A =   1017.24360  B =    884.45636  C =    773.77896 [MHz]
  Nuclear repulsion =    0.000000000000000

  Charge       = -1
  Multiplicity = 1
  Electrons    = 10
  Nalpha       = 5
  Nbeta        = 5

  ==> Algorithm <==

  SCF Algorithm Type is DF.
  DIIS enabled.
  MOM disabled.
  Fractional occupation disabled.
  Guess Type is SAD.
  Energy threshold   = 1.00e-08
  Density threshold  = 1.00e-08
  Integral threshold = 1.00e-12

  ==> Primary Basis <==

  Basis Set: AUG-CC-PVTZ
    Blend: AUG-CC-PVTZ
    Number of shells: 206
    Number of basis functions: 598
    Number of Cartesian functions: 685
    Spherical Harmonics?: true
    Max angular momentum: 3

   => Loading Basis Set <=

    Name: (AUG-CC-PVTZ AUX)
    Role: JKFIT
    Keyword: DF_BASIS_SCF
    atoms 1                                   entry F          line   348 file /ddmfs1b/softs/psi4conda/share/psi4/basis/aug-cc-pvtz-jkfit.gbs 
    atoms 2, 5, 8, 11, 14, 17                 entry O          line   286 file /ddmfs1b/softs/psi4conda/share/psi4/basis/aug-cc-pvtz-jkfit.gbs 
    atoms 3-4, 6-7, 9-10, 12-13, 15-16, 18-19 entry H          line    70 file /ddmfs1b/softs/psi4conda/share/psi4/basis/aug-cc-pvtz-jkfit.gbs 

  ==> Integral Setup <==

  ==> DiskDFJK: Density-Fitted J/K Matrices <==

    J tasked:                  Yes
    K tasked:                  Yes
    wK tasked:                  No
    OpenMP threads:             20
    Integrals threads:          20
    Memory [MiB]:            42915
    Algorithm:                Core
    Integral Cache:           LOAD
    Schwarz Cutoff:          1E-12
    Fitting Condition:       1E-10

   => Auxiliary Basis Set <=

  Basis Set: (AUG-CC-PVTZ AUX)
    Blend: AUG-CC-PVTZ-JKFIT
    Number of shells: 378
    Number of basis functions: 1280
    Number of Cartesian functions: 1577
    Spherical Harmonics?: true
    Max angular momentum: 4

  Minimum eigenvalue in the overlap matrix is 2.1618312068E-05.
  Reciprocal condition number of the overlap matrix is 1.4197265401E-06.
    Using symmetric orthogonalization.

  ==> Pre-Iterations <==

  SCF Guess: Superposition of Atomic Densities via on-the-fly atomic UHF (no occupation information).

   -------------------------
    Irrep   Nso     Nmo    
   -------------------------
     A        598     598 
   -------------------------
    Total     598     598
   -------------------------

  ==> Iterations <==

                           Total Energy        Delta E     RMS |[F,P]|

   @DF-RHF iter SAD:   -98.82535118941234   -9.88254e+01   0.00000e+00 
   @DF-RHF iter   1:   -99.33804434002872   -5.12693e-01   9.12892e-04 ADIIS/DIIS
   @DF-RHF iter   2:   -99.37298357447460   -3.49392e-02   8.92690e-04 ADIIS/DIIS
   @DF-RHF iter   3:   -99.45105916569685   -7.80756e-02   3.18761e-05 DIIS
   @DF-RHF iter   4:   -99.45113773996212   -7.85743e-05   1.11215e-05 DIIS
   @DF-RHF iter   5:   -99.45114894467251   -1.12047e-05   6.95817e-07 DIIS
   @DF-RHF iter   6:   -99.45114904639307   -1.01721e-07   6.81679e-08 DIIS
   @DF-RHF iter   7:   -99.45114904754124   -1.14817e-09   8.31540e-09 DIIS
  Energy and wave function converged.


  ==> Post-Iterations <==

    Orbital Energies [Eh]
    ---------------------

    Doubly Occupied:                                                      

       1A    -25.833505     2A     -1.075860     3A     -0.180908  
       4A     -0.180891     5A     -0.180873  

    Virtual:                                                              

       6A      0.118202     7A      0.123519     8A      0.132064  
       9A      0.134758    10A      0.140822    11A      0.147221  
      12A      0.170221    13A      0.172441    14A      0.186138  
      15A      0.190082    16A      0.200478    17A      0.207094  
      18A      0.249210    19A      0.252323    20A      0.259713  
      21A      0.266345    22A      0.267297    23A      0.271322  
      24A      0.275725    25A      0.277827    26A      0.282942  
      27A      0.285305    28A      0.293540    29A      0.299535  
      30A      0.304116    31A      0.313565    32A      0.315465  
      33A      0.325040    34A      0.326663    35A      0.332645  
      36A      0.343926    37A      0.351552    38A      0.354165  
      39A      0.360184    40A      0.365050    41A      0.372934  
      42A      0.401688    43A      0.407790    44A      0.426487  
      45A      0.441096    46A      0.452590    47A      0.458260  
      48A      0.467299    49A      0.468773    50A      0.470381  
      51A      0.478809    52A      0.480658    53A      0.489351  
      54A      0.492205    55A      0.495225    56A      0.501250  
      57A      0.503849    58A      0.506993    59A      0.514120  
      60A      0.520982    61A      0.522098    62A      0.527646  
      63A      0.537029    64A      0.541628    65A      0.545357  
      66A      0.557120    67A      0.564304    68A      0.572317  
      69A      0.577953    70A      0.582804    71A      0.590472  
      72A      0.600061    73A      0.606272    74A      0.611402  
      75A      0.619774    76A      0.633727    77A      0.646116  
      78A      0.656746    79A      0.672846    80A      0.673762  
      81A      0.685044    82A      0.717400    83A      0.731367  
      84A      0.739842    85A      0.749496    86A      0.776379  
      87A      0.779278    88A      0.792224    89A      0.807096  
      90A      0.828236    91A      0.840192    92A      0.844694  
      93A      0.855749    94A      0.859250    95A      0.873374  
      96A      0.885849    97A      0.889620    98A      0.900753  
      99A      0.902820   100A      0.911421   101A      0.918214  
     102A      0.920629   103A      0.936251   104A      0.937912  
     105A      0.946186   106A      0.956187   107A      0.960870  
     108A      0.963420   109A      0.967892   110A      0.972505  
     111A      0.982648   112A      0.989925   113A      0.995851  
     114A      1.001789   115A      1.006645   116A      1.017033  
     117A      1.020766   118A      1.028257   119A      1.036376  
     120A      1.038343   121A      1.043131   122A      1.050577  
     123A      1.056850   124A      1.066439   125A      1.069317  
     126A      1.071779   127A      1.073678   128A      1.078310  
     129A      1.089290   130A      1.090216   131A      1.097615  
     132A      1.103449   133A      1.108877   134A      1.124379  
     135A      1.126490   136A      1.135819   137A      1.137821  
     138A      1.147364   139A      1.153613   140A      1.156311  
     141A      1.162446   142A      1.164858   143A      1.175249  
     144A      1.183298   145A      1.185641   146A      1.194450  
     147A      1.199716   148A      1.209853   149A      1.213058  
     150A      1.220574   151A      1.226343   152A      1.237180  
     153A      1.245442   154A      1.249620   155A      1.253132  
     156A      1.267348   157A      1.269847   158A      1.271305  
     159A      1.292869   160A      1.296451   161A      1.299508  
     162A      1.310668   163A      1.320627   164A      1.326360  
     165A      1.333944   166A      1.342748   167A      1.361311  
     168A      1.371698   169A      1.374541   170A      1.377595  
     171A      1.386932   172A      1.404373   173A      1.414618  
     174A      1.425795   175A      1.430759   176A      1.438260  
     177A      1.444434   178A      1.449392   179A      1.471759  
     180A      1.474265   181A      1.485708   182A      1.497662  
     183A      1.503691   184A      1.516691   185A      1.528670  
     186A      1.547931   187A      1.551586   188A      1.565949  
     189A      1.569061   190A      1.593160   191A      1.597303  
     192A      1.608973   193A      1.629635   194A      1.640791  
     195A      1.648516   196A      1.653547   197A      1.666974  
     198A      1.678925   199A      1.688711   200A      1.698922  
     201A      1.709210   202A      1.725245   203A      1.735553  
     204A      1.745567   205A      1.753795   206A      1.783724  
     207A      1.799281   208A      1.811797   209A      1.822758  
     210A      1.836601   211A      1.862441   212A      1.864404  
     213A      1.880141   214A      1.890933   215A      1.907921  
     216A      1.926589   217A      1.932379   218A      1.940200  
     219A      1.943434   220A      1.954509   221A      1.965680  
     222A      1.972431   223A      1.979251   224A      1.980389  
     225A      1.995102   226A      2.001678   227A      2.011011  
     228A      2.022924   229A      2.023523   230A      2.039126  
     231A      2.045325   232A      2.056120   233A      2.064908  
     234A      2.074850   235A      2.085620   236A      2.105340  
     237A      2.114741   238A      2.121645   239A      2.132617  
     240A      2.141209   241A      2.156122   242A      2.176733  
     243A      2.181986   244A      2.199279   245A      2.207294  
     246A      2.227674   247A      2.245371   248A      2.257177  
     249A      2.269681   250A      2.279344   251A      2.299221  
     252A      2.314544   253A      2.381492   254A      2.404989  
     255A      2.438405   256A      2.465368   257A      2.476780  
     258A      2.519007   259A      2.540862   260A      2.560009  
     261A      2.598914   262A      2.626623   263A      2.642692  
     264A      2.649964   265A      2.662344   266A      2.676789  
     267A      2.685803   268A      2.691969   269A      2.699869  
     270A      2.711058   271A      2.721127   272A      2.724534  
     273A      2.731995   274A      2.743091   275A      2.755086  
     276A      2.762027   277A      2.765777   278A      2.780092  
     279A      2.783968   280A      2.793046   281A      2.798363  
     282A      2.823207   283A      2.839518   284A      2.844961  
     285A      2.857653   286A      2.872272   287A      2.883139  
     288A      2.887519   289A      2.898717   290A      2.906877  
     291A      2.917318   292A      2.929203   293A      2.941727  
     294A      2.944181   295A      2.958071   296A      2.973097  
     297A      2.976687   298A      2.991535   299A      2.996863  
     300A      3.020365   301A      3.041805   302A      3.058112  
     303A      3.070803   304A      3.076384   305A      3.097528  
     306A      3.115335   307A      3.135883   308A      3.162253  
     309A      3.165002   310A      3.185778   311A      3.189026  
     312A      3.223703   313A      3.234658   314A      3.239153  
     315A      3.262117   316A      3.310563   317A      3.315838  
     318A      3.352867   319A      3.357979   320A      3.374090  
     321A      3.381731   322A      3.388105   323A      3.396137  
     324A      3.417275   325A      3.421965   326A      3.433367  
     327A      3.439784   328A      3.459003   329A      3.471141  
     330A      3.504670   331A      3.520596   332A      3.528480  
     333A      3.557608   334A      3.588374   335A      3.591974  
     336A      3.610490   337A      3.631788   338A      3.649184  
     339A      3.650365   340A      3.690934   341A      3.709609  
     342A      3.719197   343A      3.737065   344A      3.749604  
     345A      3.764176   346A      3.776902   347A      3.792680  
     348A      3.806404   349A      3.809627   350A      3.826485  
     351A      3.841172   352A      3.868829   353A      3.895118  
     354A      3.906951   355A      3.926976   356A      3.931352  
     357A      3.953214   358A      3.981214   359A      3.992676  
     360A      4.017528   361A      4.039546   362A      4.052271  
     363A      4.080742   364A      4.096758   365A      4.135930  
     366A      4.155004   367A      4.176318   368A      4.308299  
     369A      4.324814   370A      4.374114   371A      4.393396  
     372A      4.509501   373A      4.583913   374A      4.607843  
     375A      4.628232   376A      4.634032   377A      4.640055  
     378A      4.642249   379A      4.663401   380A      4.666763  
     381A      4.673667   382A      4.684022   383A      4.687874  
     384A      4.725460   385A      4.782749   386A      4.810674  
     387A      4.824407   388A      4.840285   389A      4.848120  
     390A      4.864565   391A      4.869639   392A      4.880876  
     393A      4.898189   394A      4.903431   395A      4.915334  
     396A      4.919924   397A      4.926510   398A      4.934120  
     399A      4.941903   400A      4.962263   401A      4.985699  
     402A      4.999276   403A      5.079969   404A      5.086149  
     405A      5.089741   406A      5.115120   407A      5.122432  
     408A      5.137164   409A      5.151280   410A      5.184665  
     411A      5.188719   412A      5.239558   413A      5.245178  
     414A      5.252289   415A      5.272924   416A      5.293480  
     417A      5.302686   418A      5.318903   419A      5.332851  
     420A      5.342280   421A      5.356296   422A      5.367349  
     423A      5.421137   424A      5.441646   425A      5.482875  
     426A      5.516302   427A      5.522807   428A      5.539247  
     429A      5.551032   430A      5.573658   431A      5.588554  
     432A      5.597355   433A      5.695990   434A      5.699731  
     435A      5.712953   436A      5.723099   437A      5.727170  
     438A      5.736607   439A      5.744081   440A      5.786748  
     441A      5.822569   442A      5.836976   443A      5.849120  
     444A      5.855224   445A      5.880279   446A      5.885834  
     447A      5.900806   448A      5.922846   449A      5.955419  
     450A      5.987310   451A      6.045159   452A      6.046988  
     453A      6.091359   454A      6.109323   455A      6.142479  
     456A      6.181060   457A      6.295543   458A      6.326191  
     459A      6.358247   460A      6.407961   461A      6.466947  
     462A      6.487585   463A      6.517218   464A      6.543118  
     465A      6.586991   466A      6.660659   467A      6.675934  
     468A      6.712678   469A      6.767914   470A      6.810814  
     471A      6.900598   472A      6.931980   473A      6.963380  
     474A      6.977884   475A      7.005679   476A      7.093486  
     477A      7.132913   478A      7.185246   479A      7.254044  
     480A      7.297807   481A      7.315254   482A      7.374528  
     483A      7.424149   484A      7.902768   485A      7.906297  
     486A      7.935713   487A      7.953657   488A      7.978542  
     489A      7.982041   490A      8.003027   491A      8.014974  
     492A      8.027656   493A      8.070925   494A      8.105143  
     495A      8.131327   496A      8.226703   497A      8.235565  
     498A      8.279836   499A      8.290338   500A      8.315172  
     501A      8.330730   502A      8.354018   503A      8.388367  
     504A      8.401660   505A      8.424940   506A      8.439008  
     507A      8.454098   508A      8.463117   509A      8.486136  
     510A      8.500017   511A      8.517609   512A      8.536334  
     513A      8.559299   514A      8.867442   515A      8.869701  
     516A      8.956916   517A      8.960365   518A      8.999092  
     519A      9.057789   520A      9.096394   521A      9.138183  
     522A      9.172293   523A      9.188662   524A      9.283523  
     525A      9.358978   526A      9.473879   527A      9.643279  
     528A      9.652519   529A      9.708470   530A      9.852044  
     531A      9.898735   532A      9.907331   533A      9.914837  
     534A      9.941791   535A      9.979784   536A     10.008611  
     537A     10.028266   538A     10.071403   539A     10.076272  
     540A     10.095067   541A     10.108567   542A     10.132029  
     543A     10.138196   544A     10.160358   545A     10.208915  
     546A     10.244700   547A     10.268739   548A     10.291517  
     549A     10.301509   550A     10.335381   551A     10.349887  
     552A     10.359363   553A     10.372652   554A     10.459441  
     555A     10.484852   556A     10.503775   557A     10.541335  
     558A     10.593477   559A     10.615141   560A     10.625373  
     561A     10.678124   562A     11.190667   563A     11.273319  
     564A     11.294450   565A     11.358376   566A     11.388559  
     567A     11.534613   568A     11.904531   569A     11.937818  
     570A     11.989378   571A     12.021000   572A     12.075764  
     573A     12.141295   574A     12.166009   575A     12.292420  
     576A     12.304270   577A     12.372558   578A     12.533269  
     579A     12.693318   580A     13.641592   581A     13.693973  
     582A     13.787006   583A     13.801277   584A     13.839344  
     585A     13.982270   586A     14.196699   587A     14.223439  
     588A     14.240180   589A     14.257041   590A     14.310715  
     591A     14.315870   592A     15.779494   593A     65.575866  
     594A     65.728129   595A     65.864503   596A     66.421266  
     597A     67.057004   598A     68.823257  

    Final Occupation by Irrep:
              A 
    DOCC [     5 ]
    NA   [     5 ]
    NB   [     5 ]

  @DF-RHF Final Energy:   -99.45114904754124

   => Energetics <=

    Nuclear Repulsion Energy =              0.0000000000000000
    One-Electron Energy =                -143.9982173241788246
    Two-Electron Energy =                  44.5470682766376029
    Total Energy =                        -99.4511490475412216

Computation Completed


Properties will be evaluated at   0.000000,   0.000000,   0.000000 [a0]

Properties computed using the SCF density matrix


 Multipole Moments:

 ------------------------------------------------------------------------------------
     Multipole            Electronic (a.u.)      Nuclear  (a.u.)        Total (a.u.)
 ------------------------------------------------------------------------------------

 L = 1.  Multiply by 2.5417464519 to convert [e a0] to [Debye]
 Dipole X            :         -0.0000236            0.0000000           -0.0000236
 Dipole Y            :          0.0000314            0.0000000            0.0000314
 Dipole Z            :          0.0000054            0.0000000            0.0000054
 Magnitude           :                                                    0.0000397

 ------------------------------------------------------------------------------------

*** tstop() called on ddmfs1 at Wed Jan 10 01:26:34 2024
Module time:
	user time   =     140.40 seconds =       2.34 minutes
	system time =       2.40 seconds =       0.04 minutes
	total time  =          8 seconds =       0.13 minutes
Total time:
	user time   =     400.77 seconds =       6.68 minutes
	system time =      22.53 seconds =       0.38 minutes
	total time  =         25 seconds =       0.42 minutes

  //>>>>>>>>>>>>>>>>>>>>>>>>>>>>>>>>>>>//
  //            Monomer B HF           //
  //<<<<<<<<<<<<<<<<<<<<<<<<<<<<<<<<<<<//

   => Libint2 <=

    Primary   basis highest AM E, G, H:  5, 4, 3
    Auxiliary basis highest AM E, G, H:  6, 5, 4
    Onebody   basis highest AM E, G, H:  6, 5, 4
    Solid Harmonics ordering:            gaussian

*** tstart() called on ddmfs1
*** at Wed Jan 10 01:26:34 2024

   => Loading Basis Set <=

    Name: AUG-CC-PVTZ
    Role: ORBITAL
    Keyword: BASIS
    atoms 1                                   entry F          line   377 file /ddmfs1b/softs/psi4conda/share/psi4/basis/aug-cc-pvtz.gbs 
    atoms 2, 5, 8, 11, 14, 17                 entry O          line   331 file /ddmfs1b/softs/psi4conda/share/psi4/basis/aug-cc-pvtz.gbs 
    atoms 3-4, 6-7, 9-10, 12-13, 15-16, 18-19 entry H          line    40 file /ddmfs1b/softs/psi4conda/share/psi4/basis/aug-cc-pvtz.gbs 


         ---------------------------------------------------------
                                   SCF
               by Justin Turney, Rob Parrish, Andy Simmonett
                          and Daniel G. A. Smith
                              RHF Reference
                       20 Threads,  57220 MiB Core
         ---------------------------------------------------------

  ==> Geometry <==

    Molecular point group: c1
    Full point group: C1

    Geometry (in Angstrom), charge = 0, multiplicity = 1:

       Center              X                  Y                   Z               Mass       
    ------------   -----------------  -----------------  -----------------  -----------------
      Gh(F)           0.000000000000     0.000000000000     0.000000000000    18.998403162730
         O            2.400550000000     0.878111000000     1.258466000000    15.994914619570
         H            1.541205000000     0.949633000000     0.811432000000     1.007825032230
         H            2.699131000000     1.774987000000     1.477501000000     1.007825032230
         O           -2.134479000000     1.075150000000     1.390297000000    15.994914619570
         H           -2.935259000000     0.501464000000     1.548356000000     1.007825032230
         H           -1.522539000000     0.602603000000     0.828169000000     1.007825032230
         O           -2.058570000000    -0.966210000000    -1.758447000000    15.994914619570
         H           -1.269903000000    -0.802439000000    -1.187441000000     1.007825032230
         H           -2.168440000000    -1.875697000000    -2.119616000000     1.007825032230
         O            2.056294000000    -1.500050000000    -1.140092000000    15.994914619570
         H            1.522958000000    -0.799826000000    -0.738451000000     1.007825032230
         H            2.773549000000    -1.554714000000    -0.462578000000     1.007825032230
         O           -0.008638000000     2.314735000000    -1.744331000000    15.994914619570
         H           -0.015099000000     1.517325000000    -1.142884000000     1.007825032230
         H           -0.979067000000     2.389768000000    -1.960602000000     1.007825032230
         O            0.111329000000    -1.229377000000     2.544786000000    15.994914619570
         H           -0.031102000000    -0.875406000000     1.676046000000     1.007825032230
         H            0.128193000000    -0.452941000000     3.103989000000     1.007825032230

  Running in c1 symmetry.

  Rotational constants: A =      0.03393  B =      0.02950  C =      0.02581 [cm^-1]
  Rotational constants: A =   1017.24360  B =    884.45636  C =    773.77896 [MHz]
  Nuclear repulsion =  247.230425558569408

  Charge       = 0
  Multiplicity = 1
  Electrons    = 60
  Nalpha       = 30
  Nbeta        = 30

  ==> Algorithm <==

  SCF Algorithm Type is DF.
  DIIS enabled.
  MOM disabled.
  Fractional occupation disabled.
  Guess Type is SAD.
  Energy threshold   = 1.00e-08
  Density threshold  = 1.00e-08
  Integral threshold = 1.00e-12

  ==> Primary Basis <==

  Basis Set: AUG-CC-PVTZ
    Blend: AUG-CC-PVTZ
    Number of shells: 206
    Number of basis functions: 598
    Number of Cartesian functions: 685
    Spherical Harmonics?: true
    Max angular momentum: 3

   => Loading Basis Set <=

    Name: (AUG-CC-PVTZ AUX)
    Role: JKFIT
    Keyword: DF_BASIS_SCF
    atoms 1                                   entry F          line   348 file /ddmfs1b/softs/psi4conda/share/psi4/basis/aug-cc-pvtz-jkfit.gbs 
    atoms 2, 5, 8, 11, 14, 17                 entry O          line   286 file /ddmfs1b/softs/psi4conda/share/psi4/basis/aug-cc-pvtz-jkfit.gbs 
    atoms 3-4, 6-7, 9-10, 12-13, 15-16, 18-19 entry H          line    70 file /ddmfs1b/softs/psi4conda/share/psi4/basis/aug-cc-pvtz-jkfit.gbs 

  ==> Integral Setup <==

  ==> DiskDFJK: Density-Fitted J/K Matrices <==

    J tasked:                  Yes
    K tasked:                  Yes
    wK tasked:                  No
    OpenMP threads:             20
    Integrals threads:          20
    Memory [MiB]:            42915
    Algorithm:                Core
    Integral Cache:           LOAD
    Schwarz Cutoff:          1E-12
    Fitting Condition:       1E-10

   => Auxiliary Basis Set <=

  Basis Set: (AUG-CC-PVTZ AUX)
    Blend: AUG-CC-PVTZ-JKFIT
    Number of shells: 378
    Number of basis functions: 1280
    Number of Cartesian functions: 1577
    Spherical Harmonics?: true
    Max angular momentum: 4

  Minimum eigenvalue in the overlap matrix is 2.1618312068E-05.
  Reciprocal condition number of the overlap matrix is 1.4197265401E-06.
    Using symmetric orthogonalization.

  ==> Pre-Iterations <==

  SCF Guess: Superposition of Atomic Densities via on-the-fly atomic UHF (no occupation information).

   -------------------------
    Irrep   Nso     Nmo    
   -------------------------
     A        598     598 
   -------------------------
    Total     598     598
   -------------------------

  ==> Iterations <==

                           Total Energy        Delta E     RMS |[F,P]|

   @DF-RHF iter SAD:  -452.91664810732658   -4.52917e+02   0.00000e+00 
   @DF-RHF iter   1:  -455.82705435290211   -2.91041e+00   1.89051e-03 ADIIS/DIIS
   @DF-RHF iter   2:  -456.13726816634892   -3.10214e-01   1.29960e-03 ADIIS/DIIS
   @DF-RHF iter   3:  -456.32576999221476   -1.88502e-01   9.42046e-05 DIIS
   @DF-RHF iter   4:  -456.32850103334880   -2.73104e-03   2.49514e-05 DIIS
   @DF-RHF iter   5:  -456.32868291328469   -1.81880e-04   8.99946e-06 DIIS
   @DF-RHF iter   6:  -456.32870346589164   -2.05526e-05   3.40014e-06 DIIS
   @DF-RHF iter   7:  -456.32870681290711   -3.34702e-06   6.77627e-07 DIIS
   @DF-RHF iter   8:  -456.32870706273002   -2.49823e-07   1.43898e-07 DIIS
   @DF-RHF iter   9:  -456.32870707118872   -8.45870e-09   5.85635e-08 DIIS
   @DF-RHF iter  10:  -456.32870707198282   -7.94103e-10   1.64503e-08 DIIS
   @DF-RHF iter  11:  -456.32870707206729   -8.44693e-11   4.85781e-09 DIIS
  Energy and wave function converged.


  ==> Post-Iterations <==

    Orbital Energies [Eh]
    ---------------------

    Doubly Occupied:                                                      

       1A    -20.596293     2A    -20.595866     3A    -20.594249  
       4A    -20.591622     5A    -20.581050     6A    -20.578042  
       7A     -1.373785     8A     -1.370174     9A     -1.366893  
      10A     -1.356997    11A     -1.355177    12A     -1.353910  
      13A     -0.752677    14A     -0.748517    15A     -0.743150  
      16A     -0.729655    17A     -0.708108    18A     -0.703849  
      19A     -0.607188    20A     -0.602143    21A     -0.601854  
      22A     -0.597529    23A     -0.597274    24A     -0.581472  
      25A     -0.539554    26A     -0.535633    27A     -0.529815  
      28A     -0.525147    29A     -0.518541    30A     -0.517732  

    Virtual:                                                              

      31A      0.009296    32A      0.028578    33A      0.037509  
      34A      0.041683    35A      0.044264    36A      0.053012  
      37A      0.056074    38A      0.074558    39A      0.080709  
      40A      0.086319    41A      0.095085    42A      0.105414  
      43A      0.108979    44A      0.135351    45A      0.140860  
      46A      0.144633    47A      0.151517    48A      0.158379  
      49A      0.161909    50A      0.166422    51A      0.171655  
      52A      0.174090    53A      0.177283    54A      0.182222  
      55A      0.185714    56A      0.189733    57A      0.192098  
      58A      0.201472    59A      0.209766    60A      0.214184  
      61A      0.220634    62A      0.223977    63A      0.233379  
      64A      0.241627    65A      0.246405    66A      0.253685  
      67A      0.259256    68A      0.260006    69A      0.265298  
      70A      0.274694    71A      0.282421    72A      0.291116  
      73A      0.301725    74A      0.303888    75A      0.308114  
      76A      0.311622    77A      0.317136    78A      0.324145  
      79A      0.336617    80A      0.339562    81A      0.345206  
      82A      0.353247    83A      0.361435    84A      0.374555  
      85A      0.377115    86A      0.378959    87A      0.389098  
      88A      0.396437    89A      0.401969    90A      0.409057  
      91A      0.414885    92A      0.418583    93A      0.424769  
      94A      0.429887    95A      0.431997    96A      0.441456  
      97A      0.444685    98A      0.450255    99A      0.463604  
     100A      0.467872   101A      0.472983   102A      0.477537  
     103A      0.481936   104A      0.490277   105A      0.502753  
     106A      0.509472   107A      0.515035   108A      0.531185  
     109A      0.543325   110A      0.553010   111A      0.569588  
     112A      0.580208   113A      0.603180   114A      0.611910  
     115A      0.615760   116A      0.626142   117A      0.644343  
     118A      0.651217   119A      0.664696   120A      0.678646  
     121A      0.683891   122A      0.686635   123A      0.693635  
     124A      0.698914   125A      0.703872   126A      0.707125  
     127A      0.719252   128A      0.723687   129A      0.729144  
     130A      0.733618   131A      0.741451   132A      0.746675  
     133A      0.752823   134A      0.762445   135A      0.767873  
     136A      0.768792   137A      0.780364   138A      0.789325  
     139A      0.793173   140A      0.802843   141A      0.806031  
     142A      0.811704   143A      0.818843   144A      0.821918  
     145A      0.833139   146A      0.839130   147A      0.846976  
     148A      0.856009   149A      0.862599   150A      0.867358  
     151A      0.876163   152A      0.881206   153A      0.889789  
     154A      0.899831   155A      0.905510   156A      0.909858  
     157A      0.913521   158A      0.922528   159A      0.927068  
     160A      0.928540   161A      0.938790   162A      0.950645  
     163A      0.956224   164A      0.962717   165A      0.970661  
     166A      0.973522   167A      0.978762   168A      0.987005  
     169A      0.989868   170A      0.998372   171A      1.002948  
     172A      1.008374   173A      1.019059   174A      1.022235  
     175A      1.034004   176A      1.036168   177A      1.040362  
     178A      1.047836   179A      1.050341   180A      1.053653  
     181A      1.057878   182A      1.063497   183A      1.073750  
     184A      1.080333   185A      1.084941   186A      1.097054  
     187A      1.101692   188A      1.107332   189A      1.120125  
     190A      1.135011   191A      1.139860   192A      1.141804  
     193A      1.143759   194A      1.162090   195A      1.168010  
     196A      1.181143   197A      1.184819   198A      1.192804  
     199A      1.196518   200A      1.200789   201A      1.207829  
     202A      1.219119   203A      1.231841   204A      1.235652  
     205A      1.248362   206A      1.250941   207A      1.261152  
     208A      1.278805   209A      1.282119   210A      1.290044  
     211A      1.301997   212A      1.312060   213A      1.321734  
     214A      1.331188   215A      1.341147   216A      1.352430  
     217A      1.359797   218A      1.362743   219A      1.372564  
     220A      1.389490   221A      1.391052   222A      1.396612  
     223A      1.418638   224A      1.430256   225A      1.432348  
     226A      1.450283   227A      1.466935   228A      1.477827  
     229A      1.488471   230A      1.494856   231A      1.509137  
     232A      1.514374   233A      1.532569   234A      1.550437  
     235A      1.560957   236A      1.573343   237A      1.577514  
     238A      1.588353   239A      1.602366   240A      1.612966  
     241A      1.619737   242A      1.628239   243A      1.631609  
     244A      1.641005   245A      1.655321   246A      1.669940  
     247A      1.675681   248A      1.684004   249A      1.686719  
     250A      1.704387   251A      1.724213   252A      1.733101  
     253A      1.744457   254A      1.746449   255A      1.752254  
     256A      1.768147   257A      1.775353   258A      1.785956  
     259A      1.796860   260A      1.812769   261A      1.825223  
     262A      1.856076   263A      1.889662   264A      1.891131  
     265A      1.913344   266A      1.932648   267A      1.938210  
     268A      1.959376   269A      1.966504   270A      1.976427  
     271A      1.979159   272A      2.001331   273A      2.012791  
     274A      2.024405   275A      2.036939   276A      2.064672  
     277A      2.089897   278A      2.095278   279A      2.109243  
     280A      2.120257   281A      2.154255   282A      2.227806  
     283A      2.246290   284A      2.296937   285A      2.313120  
     286A      2.321569   287A      2.329227   288A      2.339549  
     289A      2.341878   290A      2.360259   291A      2.366257  
     292A      2.388451   293A      2.397146   294A      2.409865  
     295A      2.416515   296A      2.430100   297A      2.436673  
     298A      2.439926   299A      2.446053   300A      2.461763  
     301A      2.468801   302A      2.473121   303A      2.481122  
     304A      2.497910   305A      2.507937   306A      2.516378  
     307A      2.521768   308A      2.523778   309A      2.531815  
     310A      2.536038   311A      2.542479   312A      2.559964  
     313A      2.574714   314A      2.584589   315A      2.592767  
     316A      2.614007   317A      2.616173   318A      2.622703  
     319A      2.645216   320A      2.651776   321A      2.662273  
     322A      2.676567   323A      2.695548   324A      2.703698  
     325A      2.711581   326A      2.727542   327A      2.729860  
     328A      2.735372   329A      2.752862   330A      2.760897  
     331A      2.777967   332A      2.791679   333A      2.800125  
     334A      2.803840   335A      2.819442   336A      2.829505  
     337A      2.835703   338A      2.848838   339A      2.853879  
     340A      2.869709   341A      2.888993   342A      2.900187  
     343A      2.909185   344A      2.922619   345A      2.938014  
     346A      2.949506   347A      2.950569   348A      2.965006  
     349A      2.975458   350A      2.996095   351A      3.017743  
     352A      3.040190   353A      3.054859   354A      3.058396  
     355A      3.092530   356A      3.094819   357A      3.127958  
     358A      3.149673   359A      3.164768   360A      3.173122  
     361A      3.212257   362A      3.327169   363A      3.482345  
     364A      3.507988   365A      3.574936   366A      3.594078  
     367A      3.601684   368A      3.618832   369A      3.706099  
     370A      3.723190   371A      3.753654   372A      3.766337  
     373A      3.787169   374A      3.844393   375A      3.862142  
     376A      3.925998   377A      3.957190   378A      3.962177  
     379A      4.006642   380A      4.033929   381A      4.044387  
     382A      4.056523   383A      4.072590   384A      4.087554  
     385A      4.090122   386A      4.102714   387A      4.110075  
     388A      4.127181   389A      4.131812   390A      4.149565  
     391A      4.167165   392A      4.172138   393A      4.183775  
     394A      4.201570   395A      4.220124   396A      4.228124  
     397A      4.238082   398A      4.244194   399A      4.249184  
     400A      4.255307   401A      4.270044   402A      4.273543  
     403A      4.292612   404A      4.301293   405A      4.308878  
     406A      4.312383   407A      4.326589   408A      4.334702  
     409A      4.343015   410A      4.358250   411A      4.364267  
     412A      4.376625   413A      4.390176   414A      4.395052  
     415A      4.404823   416A      4.412394   417A      4.418278  
     418A      4.426937   419A      4.436702   420A      4.446415  
     421A      4.456053   422A      4.472411   423A      4.475260  
     424A      4.491542   425A      4.491769   426A      4.497987  
     427A      4.517046   428A      4.528439   429A      4.531475  
     430A      4.561334   431A      4.568630   432A      4.578774  
     433A      4.597638   434A      4.600912   435A      4.610816  
     436A      4.612512   437A      4.658446   438A      4.674820  
     439A      4.682044   440A      4.709466   441A      4.718173  
     442A      4.718486   443A      4.746952   444A      4.763593  
     445A      4.776399   446A      4.782870   447A      4.840947  
     448A      4.844401   449A      4.873364   450A      4.892117  
     451A      4.969304   452A      4.987645   453A      5.011005  
     454A      5.033623   455A      5.075843   456A      5.085614  
     457A      5.119555   458A      5.147461   459A      5.154113  
     460A      5.159986   461A      5.173996   462A      5.181379  
     463A      5.216647   464A      5.225142   465A      5.253124  
     466A      5.264234   467A      5.271914   468A      5.296724  
     469A      5.309466   470A      5.335194   471A      5.350915  
     472A      5.354169   473A      5.370314   474A      5.381161  
     475A      5.417470   476A      5.437120   477A      5.453780  
     478A      5.456499   479A      5.466273   480A      5.485534  
     481A      5.506681   482A      5.530454   483A      5.593024  
     484A      5.639063   485A      5.651572   486A      5.662822  
     487A      5.745419   488A      5.778187   489A      5.800444  
     490A      5.829404   491A      5.850446   492A      6.056141  
     493A      6.221436   494A      6.242825   495A      6.273303  
     496A      6.357428   497A      6.372279   498A      6.544059  
     499A      6.545482   500A      6.562874   501A      6.592893  
     502A      6.607929   503A      6.636649   504A      6.779134  
     505A      6.788513   506A      6.792568   507A      6.814490  
     508A      6.837079   509A      6.854257   510A      6.874916  
     511A      6.902733   512A      6.912934   513A      6.975980  
     514A      7.001607   515A      7.053566   516A      7.112256  
     517A      7.136915   518A      7.145243   519A      7.154731  
     520A      7.177107   521A      7.203428   522A      7.217869  
     523A      7.223482   524A      7.250682   525A      7.264099  
     526A      7.275473   527A      7.292687   528A      7.294553  
     529A      7.296916   530A      7.308419   531A      7.310755  
     532A      7.333634   533A      7.341670   534A      7.355481  
     535A      7.357983   536A      7.369262   537A      7.384529  
     538A      7.386009   539A      7.394401   540A      7.413289  
     541A      7.437770   542A      7.453558   543A      7.468037  
     544A      7.469640   545A      7.492731   546A      7.514171  
     547A      7.522395   548A      7.537602   549A      7.547234  
     550A      7.587156   551A      7.595733   552A      7.734621  
     553A      7.758769   554A      7.769638   555A      7.780795  
     556A      7.808749   557A      7.834983   558A      7.871410  
     559A      7.928837   560A      7.932320   561A      7.939909  
     562A      7.965826   563A      7.986177   564A      8.016525  
     565A      8.030440   566A      8.039954   567A      8.061114  
     568A      8.103141   569A      8.147590   570A      8.637455  
     571A      8.685690   572A      8.729226   573A      8.778515  
     574A      8.808480   575A      8.918494   576A     10.214049  
     577A     10.396957   578A     10.410821   579A     10.467369  
     580A     10.628236   581A     10.682849   582A     10.881709  
     583A     11.919610   584A     13.236111   585A     13.282388  
     586A     13.312072   587A     13.475279   588A     13.503727  
     589A     14.993127   590A     15.161359   591A     15.311259  
     592A     16.110563   593A     16.159812   594A     16.266675  
     595A     16.458591   596A     16.873770   597A     17.741461  
     598A     75.045444  

    Final Occupation by Irrep:
              A 
    DOCC [    30 ]
    NA   [    30 ]
    NB   [    30 ]

  @DF-RHF Final Energy:  -456.32870707206729

   => Energetics <=

    Nuclear Repulsion Energy =            247.2304255585694079
    One-Electron Energy =               -1121.4104675097330528
    Two-Electron Energy =                 417.8513348790963278
    Total Energy =                       -456.3287070720672887

Computation Completed


Properties will be evaluated at   0.000000,   0.000000,   0.000000 [a0]

Properties computed using the SCF density matrix


 Multipole Moments:

 ------------------------------------------------------------------------------------
     Multipole            Electronic (a.u.)      Nuclear  (a.u.)        Total (a.u.)
 ------------------------------------------------------------------------------------

 L = 1.  Multiply by 2.5417464519 to convert [e a0] to [Debye]
 Dipole X            :         -5.6715298            5.0559906           -0.6155393
 Dipole Y            :        -11.0614988           11.2507283            0.1892295
 Dipole Z            :        -11.3119418           11.7906684            0.4787266
 Magnitude           :                                                    0.8024185

 ------------------------------------------------------------------------------------

*** tstop() called on ddmfs1 at Wed Jan 10 01:26:47 2024
Module time:
	user time   =     227.78 seconds =       3.80 minutes
	system time =       6.17 seconds =       0.10 minutes
	total time  =         13 seconds =       0.22 minutes
Total time:
	user time   =     628.66 seconds =      10.48 minutes
	system time =      28.70 seconds =       0.48 minutes
	total time  =         38 seconds =       0.63 minutes
  Constructing Basis Sets for SAPT...

   => Loading Basis Set <=

    Name: (AUG-CC-PVTZ AUX)
    Role: RIFIT
    Keyword: DF_BASIS_SAPT
    atoms 1                                   entry F          line   322 file /ddmfs1b/softs/psi4conda/share/psi4/basis/aug-cc-pvtz-ri.gbs 
    atoms 2, 5, 8, 11, 14, 17                 entry O          line   264 file /ddmfs1b/softs/psi4conda/share/psi4/basis/aug-cc-pvtz-ri.gbs 
    atoms 3-4, 6-7, 9-10, 12-13, 15-16, 18-19 entry H          line    30 file /ddmfs1b/softs/psi4conda/share/psi4/basis/aug-cc-pvtz-ri.gbs 

   => Loading Basis Set <=

    Name: (AUG-CC-PVTZ AUX)
    Role: JKFIT
    Keyword: DF_BASIS_ELST
    atoms 1                                   entry F          line   348 file /ddmfs1b/softs/psi4conda/share/psi4/basis/aug-cc-pvtz-jkfit.gbs 
    atoms 2, 5, 8, 11, 14, 17                 entry O          line   286 file /ddmfs1b/softs/psi4conda/share/psi4/basis/aug-cc-pvtz-jkfit.gbs 
    atoms 3-4, 6-7, 9-10, 12-13, 15-16, 18-19 entry H          line    70 file /ddmfs1b/softs/psi4conda/share/psi4/basis/aug-cc-pvtz-jkfit.gbs 


  //>>>>>>>>>>>>>>>>>>>>>>>>>>>>>>>>>>>//
  //               SAPT2+              //
  //<<<<<<<<<<<<<<<<<<<<<<<<<<<<<<<<<<<//


*** tstart() called on ddmfs1
*** at Wed Jan 10 01:26:48 2024

        SAPT2+  
    Ed Hohenstein
     6 June 2009

      Orbital Information
  --------------------------
    NSO        =       598
    NMO        =       598
    NRI        =      1294
    NOCC A     =         5
    NOCC B     =        30
    FOCC A     =         0
    FOCC B     =         0
    NVIR A     =       593
    NVIR B     =       568

    Estimated memory usage: 11235.9 MB

    Natural Orbital Cutoff:   1.000E-06
    Disp(T3) Truncation:            Yes
    CCD (vv|vv) Truncation:         Yes
    MBPT T2 Truncation:             Yes

    Monomer A: 517 virtual orbitals dropped
    Monomer B: 80 virtual orbitals dropped

    Elst10,r            =    -0.169239299647 [Eh]
    Exch10 (S^2)        =     0.077270365018 [Eh]
    Exch10              =     0.076215544539 [Eh]
    Ind20,r (A<-B)      =    -0.023491959979 [Eh]
    Ind20,r (B<-A)      =    -0.043836574995 [Eh]
    Ind20,r             =    -0.067328534974 [Eh]
    Exch-Ind20,r (A<-B) =     0.014870105334 [Eh]
    Exch-Ind20,r (B<-A) =     0.005472765868 [Eh]
    Exch-Ind20,r        =     0.020342871202 [Eh]
    Disp20              =    -0.031532544849 [Eh]
    Disp20 (NO)         =    -0.027092120894 [Eh]
    Exch-Disp20         =     0.008084664892 [Eh]
    Elst12,r            =    -0.001363546886 [Eh]
    Exch11              =     0.001567478643 [Eh]
    Exch12              =     0.025405856308 [Eh]
    Ind22               =    -0.015447929892 [Eh]
    Disp21              =     0.000524747988 [Eh]
    Disp22 (SDQ)        =    -0.003869907235 [Eh]

    (i =   1 of  30)          3 seconds
    (i =   2 of  30)          5 seconds
    (i =   3 of  30)          7 seconds
    (i =   4 of  30)          9 seconds
    (i =   5 of  30)         11 seconds
    (i =   6 of  30)         13 seconds
    (i =   7 of  30)         15 seconds
    (i =   8 of  30)         17 seconds
    (i =   9 of  30)         19 seconds
    (i =  10 of  30)         21 seconds
    (i =  11 of  30)         23 seconds
    (i =  12 of  30)         25 seconds
    (i =  13 of  30)         28 seconds
    (i =  14 of  30)         30 seconds
    (i =  15 of  30)         32 seconds
    (i =  16 of  30)         34 seconds
    (i =  17 of  30)         36 seconds
    (i =  18 of  30)         38 seconds
    (i =  19 of  30)         40 seconds
    (i =  20 of  30)         42 seconds
    (i =  21 of  30)         44 seconds
    (i =  22 of  30)         46 seconds
    (i =  23 of  30)         48 seconds
    (i =  24 of  30)         50 seconds
    (i =  25 of  30)         53 seconds
    (i =  26 of  30)         55 seconds
    (i =  27 of  30)         57 seconds
    (i =  28 of  30)         59 seconds
    (i =  29 of  30)         61 seconds
    (i =  30 of  30)         63 seconds

    Disp220 (T)         =    -0.003433349757 [Eh]

    (i =   1 of   5)        387 seconds
    (i =   2 of   5)        775 seconds
    (i =   3 of   5)       1161 seconds
    (i =   4 of   5)       1547 seconds
    (i =   5 of   5)       1933 seconds

    Disp202 (T)         =    -0.002518901529 [Eh]

    Disp22 (T)          =    -0.005952251286 [Eh]

    Est. Disp220 (T)    =    -0.003996078994 [Eh]
    Est. Disp202 (T)    =    -0.002931751846 [Eh]

    Est. Disp22 (T)     =    -0.006927830840 [Eh]

    SAPT Results 
  --------------------------------------------------------------------------------------------------------
    Electrostatics               -170.60284653 [mEh]    -107.05490245 [kcal/mol]    -447.91771187 [kJ/mol]
      Elst10,r                   -169.23929965 [mEh]    -106.19926386 [kcal/mol]    -444.33772001 [kJ/mol]
      Elst12,r                     -1.36354689 [mEh]      -0.85563859 [kcal/mol]      -3.57999186 [kJ/mol]

    Exchange                      103.18887949 [mEh]      64.75199947 [kcal/mol]     270.92236578 [kJ/mol]
      Exch10                       76.21554454 [mEh]      47.82597625 [kcal/mol]     200.10388462 [kJ/mol]
      Exch10(S^2)                  77.27036502 [mEh]      48.48788609 [kcal/mol]     202.87331541 [kJ/mol]
      Exch11(S^2)                   1.56747864 [mEh]       0.98360770 [kcal/mol]       4.11541461 [kJ/mol]
      Exch12(S^2)                  25.40585631 [mEh]      15.94241552 [kcal/mol]      66.70306655 [kJ/mol]

    Induction                     -63.35769279 [mEh]     -39.75755246 [kcal/mol]    -166.34559950 [kJ/mol]
      Ind20,r                     -67.32853497 [mEh]     -42.24929355 [kcal/mol]    -176.77104422 [kJ/mol]
      Ind22                       -15.44792989 [mEh]      -9.69372236 [kcal/mol]     -40.55853434 [kJ/mol]
      Exch-Ind20,r                 20.34287120 [mEh]      12.76534440 [kcal/mol]      53.41020098 [kJ/mol]
      Exch-Ind22                    4.66748977 [mEh]       2.92889405 [kcal/mol]      12.25449270 [kJ/mol]
      delta HF,r (2)               -5.59158890 [mEh]      -3.50877501 [kcal/mol]     -14.68071462 [kJ/mol]

    Dispersion                    -33.72087004 [mEh]     -21.16016542 [kcal/mol]     -88.53413210 [kJ/mol]
      Disp20                      -31.53254485 [mEh]     -19.78697063 [kcal/mol]     -82.78868510 [kJ/mol]
      Disp21                        0.52474799 [mEh]       0.32928433 [kcal/mol]       1.37772565 [kJ/mol]
      Disp22 (SDQ)                 -3.86990723 [mEh]      -2.42840345 [kcal/mol]     -10.16044005 [kJ/mol]
      Disp22 (T)                   -5.95225129 [mEh]      -3.73509407 [kcal/mol]     -15.62763360 [kJ/mol]
      Est. Disp22 (T)              -6.92783084 [mEh]      -4.34727948 [kcal/mol]     -18.18901736 [kJ/mol]
      Exch-Disp20                   8.08466489 [mEh]       5.07320381 [kcal/mol]      21.22628475 [kJ/mol]

  Total HF                       -145.60100778 [mEh]     -91.36601177 [kcal/mol]    -382.27539325 [kJ/mol]
  Total SAPT0                    -169.04888773 [mEh]    -106.07977858 [kcal/mol]    -443.83779359 [kJ/mol]
  Total SAPT2                    -154.21953979 [mEh]     -96.77422226 [kcal/mol]    -404.90334594 [kJ/mol]
  Total SAPT2+                   -164.49252988 [mEh]    -103.22062086 [kcal/mol]    -431.87507769 [kJ/mol]

  Special recipe for scaled SAPT0 (see Manual):
    Electrostatics sSAPT0        -169.23929965 [mEh]    -106.19926386 [kcal/mol]    -444.33772001 [kJ/mol]
    Exchange sSAPT0                76.21554454 [mEh]      47.82597625 [kcal/mol]     200.10388462 [kJ/mol]
    Induction sSAPT0              -53.39903545 [mEh]     -33.50840063 [kcal/mol]    -140.19914825 [kJ/mol]
    Dispersion sSAPT0             -23.77447291 [mEh]     -14.91870699 [kcal/mol]     -62.41987003 [kJ/mol]
  Total sSAPT0                   -170.19726347 [mEh]    -106.80039524 [kcal/mol]    -446.85285366 [kJ/mol]
  --------------------------------------------------------------------------------------------------------

*** tstop() called on ddmfs1 at Wed Jan 10 02:14:47 2024
Module time:
	user time   =   14660.62 seconds =     244.34 minutes
	system time =     232.09 seconds =       3.87 minutes
	total time  =       2879 seconds =      47.98 minutes
Total time:
	user time   =   15292.12 seconds =     254.87 minutes
	system time =     260.89 seconds =       4.35 minutes
	total time  =       2918 seconds =      48.63 minutes

    Psi4 stopped on: Wednesday, 10 January 2024 02:14AM
    Psi4 wall time for execution: 0:48:38.58

*** Psi4 exiting successfully. Buy a developer a beer!
