
    -----------------------------------------------------------------------
          Psi4: An Open-Source Ab Initio Electronic Structure Package
                               Psi4 1.8.2 release

                         Git: Rev {} zzzzzzz 


    D. G. A. Smith, L. A. Burns, A. C. Simmonett, R. M. Parrish,
    M. C. Schieber, R. Galvelis, P. Kraus, H. Kruse, R. Di Remigio,
    A. Alenaizan, A. M. James, S. Lehtola, J. P. Misiewicz, M. Scheurer,
    R. A. Shaw, J. B. Schriber, Y. Xie, Z. L. Glick, D. A. Sirianni,
    J. S. O'Brien, J. M. Waldrop, A. Kumar, E. G. Hohenstein,
    B. P. Pritchard, B. R. Brooks, H. F. Schaefer III, A. Yu. Sokolov,
    K. Patkowski, A. E. DePrince III, U. Bozkaya, R. A. King,
    F. A. Evangelista, J. M. Turney, T. D. Crawford, C. D. Sherrill,
    J. Chem. Phys. 152(18) 184108 (2020). https://doi.org/10.1063/5.0006002

                            Additional Code Authors
    E. T. Seidl, C. L. Janssen, E. F. Valeev, M. L. Leininger,
    J. F. Gonthier, R. M. Richard, H. R. McAlexander, M. Saitow, X. Wang,
    P. Verma, M. H. Lechner, A. Jiang, S. Behnle, A. G. Heide,
    M. F. Herbst, and D. L. Poole

             Previous Authors, Complete List of Code Contributors,
                       and Citations for Specific Modules
    https://github.com/psi4/psi4/blob/master/codemeta.json
    https://github.com/psi4/psi4/graphs/contributors
    http://psicode.org/psi4manual/master/introduction.html#citing-psifour

    -----------------------------------------------------------------------


    Psi4 started on: Saturday, 13 January 2024 08:33PM

    Process ID: 285296
    Host:       ddmfs1
    PSIDATADIR: /ddmfs1b/softs/psi4conda/share/psi4
    Memory:     500.0 MiB
    Threads:    20
    
  ==> Input File <==

--------------------------------------------------------------------------
MEMORY 60 GB

molecule dimer {
-1 1
Cl     0.000000     0.000000     0.000000
--
0 1
O      1.742297    -2.654047     1.118768
H      1.260670    -2.008429     0.613643
H      2.683510    -2.425408     0.973453
O     -0.878321    -2.549464    -2.008334
H     -0.081928    -2.939664    -2.323798
H     -0.714875    -1.691467    -1.528138
O      1.749563    -0.102248     3.018640
H      2.471494    -0.737311     3.082986
H      1.443373    -0.105267     2.081928
O     -0.979852     2.756798     1.607170
H     -1.662922     2.629789     2.250272
H     -0.638372     1.968890     1.221055
O      1.578888     0.765967    -2.773134
H      1.498143     0.657890    -1.802469
H      1.511288     1.750790    -2.889389
O     -1.085832     2.723152    -1.612034
H     -1.583392     2.750532    -2.453881
H     -0.723114     1.794176    -1.507763

units ang
no_reorient
no_com
symmetry c1
}

set {
basis        aug-cc-pVTZ
scf_type     df
}

energy("sapt2+")
--------------------------------------------------------------------------

  Memory set to  55.879 GiB by Python driver.

Scratch directory: /ddmfs1a/scratch/
   => Loading Basis Set <=

    Name: AUG-CC-PVTZ
    Role: ORBITAL
    Keyword: BASIS
    atoms 1                                   entry CL         line   988 file /ddmfs1b/softs/psi4conda/share/psi4/basis/aug-cc-pvtz.gbs 
    atoms 2, 5, 8, 11, 14, 17                 entry O          line   331 file /ddmfs1b/softs/psi4conda/share/psi4/basis/aug-cc-pvtz.gbs 
    atoms 3-4, 6-7, 9-10, 12-13, 15-16, 18-19 entry H          line    40 file /ddmfs1b/softs/psi4conda/share/psi4/basis/aug-cc-pvtz.gbs 

   => Loading Basis Set <=

    Name: AUG-CC-PVTZ
    Role: ORBITAL
    Keyword: BASIS
    atoms 1                                   entry CL         line   988 file /ddmfs1b/softs/psi4conda/share/psi4/basis/aug-cc-pvtz.gbs 
    atoms 2, 5, 8, 11, 14, 17                 entry O          line   331 file /ddmfs1b/softs/psi4conda/share/psi4/basis/aug-cc-pvtz.gbs 
    atoms 3-4, 6-7, 9-10, 12-13, 15-16, 18-19 entry H          line    40 file /ddmfs1b/softs/psi4conda/share/psi4/basis/aug-cc-pvtz.gbs 


  //>>>>>>>>>>>>>>>>>>>>>>>>>>>>>>>>>>>//
  //              Dimer HF             //
  //<<<<<<<<<<<<<<<<<<<<<<<<<<<<<<<<<<<//

   => Libint2 <=

    Primary   basis highest AM E, G, H:  5, 4, 3
    Auxiliary basis highest AM E, G, H:  6, 5, 4
    Onebody   basis highest AM E, G, H:  6, 5, 4
    Solid Harmonics ordering:            gaussian

*** tstart() called on ddmfs1
*** at Sat Jan 13 20:33:32 2024

   => Loading Basis Set <=

    Name: AUG-CC-PVTZ
    Role: ORBITAL
    Keyword: BASIS
    atoms 1                                   entry CL         line   988 file /ddmfs1b/softs/psi4conda/share/psi4/basis/aug-cc-pvtz.gbs 
    atoms 2, 5, 8, 11, 14, 17                 entry O          line   331 file /ddmfs1b/softs/psi4conda/share/psi4/basis/aug-cc-pvtz.gbs 
    atoms 3-4, 6-7, 9-10, 12-13, 15-16, 18-19 entry H          line    40 file /ddmfs1b/softs/psi4conda/share/psi4/basis/aug-cc-pvtz.gbs 


         ---------------------------------------------------------
                                   SCF
               by Justin Turney, Rob Parrish, Andy Simmonett
                          and Daniel G. A. Smith
                              RHF Reference
                       20 Threads,  57220 MiB Core
         ---------------------------------------------------------

  ==> Geometry <==

    Molecular point group: c1
    Full point group: C1

    Geometry (in Angstrom), charge = -1, multiplicity = 1:

       Center              X                  Y                   Z               Mass       
    ------------   -----------------  -----------------  -----------------  -----------------
         CL           0.000000000000     0.000000000000     0.000000000000    34.968852682000
         O            1.742297000000    -2.654047000000     1.118768000000    15.994914619570
         H            1.260670000000    -2.008429000000     0.613643000000     1.007825032230
         H            2.683510000000    -2.425408000000     0.973453000000     1.007825032230
         O           -0.878321000000    -2.549464000000    -2.008334000000    15.994914619570
         H           -0.081928000000    -2.939664000000    -2.323798000000     1.007825032230
         H           -0.714875000000    -1.691467000000    -1.528138000000     1.007825032230
         O            1.749563000000    -0.102248000000     3.018640000000    15.994914619570
         H            2.471494000000    -0.737311000000     3.082986000000     1.007825032230
         H            1.443373000000    -0.105267000000     2.081928000000     1.007825032230
         O           -0.979852000000     2.756798000000     1.607170000000    15.994914619570
         H           -1.662922000000     2.629789000000     2.250272000000     1.007825032230
         H           -0.638372000000     1.968890000000     1.221055000000     1.007825032230
         O            1.578888000000     0.765967000000    -2.773134000000    15.994914619570
         H            1.498143000000     0.657890000000    -1.802469000000     1.007825032230
         H            1.511288000000     1.750790000000    -2.889389000000     1.007825032230
         O           -1.085832000000     2.723152000000    -1.612034000000    15.994914619570
         H           -1.583392000000     2.750532000000    -2.453881000000     1.007825032230
         H           -0.723114000000     1.794176000000    -1.507763000000     1.007825032230

  Running in c1 symmetry.

  Rotational constants: A =      0.02664  B =      0.02323  C =      0.01582 [cm^-1]
  Rotational constants: A =    798.60521  B =    696.27435  C =    474.32536 [MHz]
  Nuclear repulsion =  389.097403974537656

  Charge       = -1
  Multiplicity = 1
  Electrons    = 78
  Nalpha       = 39
  Nbeta        = 39

  ==> Algorithm <==

  SCF Algorithm Type is DF.
  DIIS enabled.
  MOM disabled.
  Fractional occupation disabled.
  Guess Type is SAD.
  Energy threshold   = 1.00e-08
  Density threshold  = 1.00e-08
  Integral threshold = 1.00e-12

  ==> Primary Basis <==

  Basis Set: AUG-CC-PVTZ
    Blend: AUG-CC-PVTZ
    Number of shells: 208
    Number of basis functions: 602
    Number of Cartesian functions: 689
    Spherical Harmonics?: true
    Max angular momentum: 3

   => Loading Basis Set <=

    Name: (AUG-CC-PVTZ AUX)
    Role: JKFIT
    Keyword: DF_BASIS_SCF
    atoms 1                                   entry CL         line   816 file /ddmfs1b/softs/psi4conda/share/psi4/basis/aug-cc-pvtz-jkfit.gbs 
    atoms 2, 5, 8, 11, 14, 17                 entry O          line   286 file /ddmfs1b/softs/psi4conda/share/psi4/basis/aug-cc-pvtz-jkfit.gbs 
    atoms 3-4, 6-7, 9-10, 12-13, 15-16, 18-19 entry H          line    70 file /ddmfs1b/softs/psi4conda/share/psi4/basis/aug-cc-pvtz-jkfit.gbs 

  ==> Integral Setup <==

  ==> DiskDFJK: Density-Fitted J/K Matrices <==

    J tasked:                  Yes
    K tasked:                  Yes
    wK tasked:                  No
    OpenMP threads:             20
    Integrals threads:          20
    Memory [MiB]:            42915
    Algorithm:                Core
    Integral Cache:           SAVE
    Schwarz Cutoff:          1E-12
    Fitting Condition:       1E-10

   => Auxiliary Basis Set <=

  Basis Set: (AUG-CC-PVTZ AUX)
    Blend: AUG-CC-PVTZ-JKFIT
    Number of shells: 390
    Number of basis functions: 1322
    Number of Cartesian functions: 1626
    Spherical Harmonics?: true
    Max angular momentum: 4

  Minimum eigenvalue in the overlap matrix is 1.3481976233E-04.
  Reciprocal condition number of the overlap matrix is 1.0675707343E-05.
    Using symmetric orthogonalization.

  ==> Pre-Iterations <==

  SCF Guess: Superposition of Atomic Densities via on-the-fly atomic UHF (no occupation information).

   -------------------------
    Irrep   Nso     Nmo    
   -------------------------
     A        602     602 
   -------------------------
    Total     602     602
   -------------------------

  ==> Iterations <==

                           Total Energy        Delta E     RMS |[F,P]|

   @DF-RHF iter SAD:  -912.25607998797682   -9.12256e+02   0.00000e+00 
   @DF-RHF iter   1:  -915.47118654247379   -3.21511e+00   1.92571e-03 DIIS/ADIIS
   @DF-RHF iter   2:  -915.79475661197171   -3.23570e-01   1.30623e-03 DIIS/ADIIS
   @DF-RHF iter   3:  -915.98575239694799   -1.90996e-01   9.37034e-05 DIIS
   @DF-RHF iter   4:  -915.98832144948074   -2.56905e-03   3.07825e-05 DIIS
   @DF-RHF iter   5:  -915.98854863078918   -2.27181e-04   8.05725e-06 DIIS
   @DF-RHF iter   6:  -915.98857171176110   -2.30810e-05   2.72609e-06 DIIS
   @DF-RHF iter   7:  -915.98857410488029   -2.39312e-06   1.02476e-06 DIIS
   @DF-RHF iter   8:  -915.98857443660609   -3.31726e-07   2.63593e-07 DIIS
   @DF-RHF iter   9:  -915.98857446766738   -3.10613e-08   5.26239e-08 DIIS
   @DF-RHF iter  10:  -915.98857446889292   -1.22554e-09   1.79798e-08 DIIS
   @DF-RHF iter  11:  -915.98857446896409   -7.11680e-11   6.23992e-09 DIIS
  Energy and wave function converged.


  ==> Post-Iterations <==

    Orbital Energies [Eh]
    ---------------------

    Doubly Occupied:                                                      

       1A   -104.604175     2A    -20.439626     3A    -20.438452  
       4A    -20.430491     5A    -20.426764     6A    -20.419325  
       7A    -20.403910     8A    -10.329380     9A     -7.795485  
      10A     -7.795477    11A     -7.795442    12A     -1.224071  
      13A     -1.208918    14A     -1.203103    15A     -1.200223  
      16A     -1.199481    17A     -1.196540    18A     -0.848008  
      19A     -0.593148    20A     -0.588627    21A     -0.583299  
      22A     -0.573339    23A     -0.568284    24A     -0.567216  
      25A     -0.461037    26A     -0.455445    27A     -0.442110  
      28A     -0.436423    29A     -0.429140    30A     -0.415408  
      31A     -0.385152    32A     -0.379985    33A     -0.368906  
      34A     -0.366328    35A     -0.364397    36A     -0.352923  
      37A     -0.260932    38A     -0.260006    39A     -0.256587  

    Virtual:                                                              

      40A      0.111128    41A      0.115319    42A      0.125130  
      43A      0.128491    44A      0.134601    45A      0.140514  
      46A      0.163773    47A      0.169976    48A      0.176537  
      49A      0.185296    50A      0.194595    51A      0.204073  
      52A      0.238867    53A      0.241088    54A      0.248433  
      55A      0.256637    56A      0.263978    57A      0.268750  
      58A      0.269781    59A      0.274865    60A      0.279422  
      61A      0.282721    62A      0.287749    63A      0.289173  
      64A      0.294448    65A      0.310674    66A      0.312706  
      67A      0.316819    68A      0.323692    69A      0.329015  
      70A      0.332093    71A      0.335124    72A      0.342379  
      73A      0.346362    74A      0.353728    75A      0.359885  
      76A      0.364484    77A      0.367917    78A      0.373767  
      79A      0.379287    80A      0.391916    81A      0.394941  
      82A      0.400468    83A      0.408645    84A      0.420199  
      85A      0.430403    86A      0.434262    87A      0.441388  
      88A      0.444621    89A      0.450193    90A      0.457393  
      91A      0.459864    92A      0.471318    93A      0.477089  
      94A      0.479468    95A      0.486781    96A      0.487728  
      97A      0.496478    98A      0.501990    99A      0.509615  
     100A      0.510704   101A      0.517402   102A      0.519823  
     103A      0.530006   104A      0.536549   105A      0.541228  
     106A      0.554510   107A      0.557534   108A      0.559516  
     109A      0.569912   110A      0.578104   111A      0.583029  
     112A      0.588239   113A      0.593039   114A      0.600589  
     115A      0.603498   116A      0.612433   117A      0.619107  
     118A      0.625454   119A      0.637293   120A      0.650312  
     121A      0.668808   122A      0.692468   123A      0.704372  
     124A      0.705018   125A      0.711436   126A      0.721091  
     127A      0.724621   128A      0.744186   129A      0.750810  
     130A      0.765921   131A      0.772475   132A      0.780927  
     133A      0.785018   134A      0.798843   135A      0.811863  
     136A      0.819065   137A      0.827625   138A      0.841290  
     139A      0.846080   140A      0.851603   141A      0.855765  
     142A      0.862252   143A      0.863416   144A      0.868031  
     145A      0.874825   146A      0.880406   147A      0.886549  
     148A      0.891977   149A      0.895940   150A      0.898304  
     151A      0.907541   152A      0.914210   153A      0.918204  
     154A      0.926453   155A      0.929306   156A      0.932814  
     157A      0.943922   158A      0.953860   159A      0.961552  
     160A      0.966871   161A      0.974572   162A      0.979379  
     163A      0.992142   164A      0.996449   165A      1.006264  
     166A      1.009511   167A      1.016502   168A      1.018765  
     169A      1.030119   170A      1.035876   171A      1.038472  
     172A      1.044375   173A      1.050732   174A      1.054638  
     175A      1.060247   176A      1.066175   177A      1.074593  
     178A      1.080876   179A      1.088163   180A      1.088887  
     181A      1.096549   182A      1.098755   183A      1.108279  
     184A      1.113052   185A      1.121371   186A      1.124669  
     187A      1.129577   188A      1.133529   189A      1.137911  
     190A      1.142746   191A      1.152660   192A      1.158810  
     193A      1.161148   194A      1.164633   195A      1.166340  
     196A      1.174585   197A      1.176119   198A      1.179702  
     199A      1.187421   200A      1.191622   201A      1.198414  
     202A      1.206675   203A      1.211127   204A      1.216349  
     205A      1.220550   206A      1.228675   207A      1.240085  
     208A      1.245162   209A      1.252678   210A      1.267078  
     211A      1.275201   212A      1.282675   213A      1.285388  
     214A      1.292684   215A      1.301649   216A      1.313071  
     217A      1.315524   218A      1.328005   219A      1.340254  
     220A      1.344642   221A      1.354352   222A      1.359816  
     223A      1.363725   224A      1.367448   225A      1.383077  
     226A      1.389254   227A      1.392669   228A      1.400142  
     229A      1.407181   230A      1.414737   231A      1.423433  
     232A      1.429618   233A      1.438530   234A      1.442907  
     235A      1.446210   236A      1.459447   237A      1.463160  
     238A      1.474773   239A      1.484478   240A      1.490383  
     241A      1.496422   242A      1.501038   243A      1.526521  
     244A      1.534232   245A      1.543694   246A      1.557219  
     247A      1.564480   248A      1.577672   249A      1.589660  
     250A      1.598914   251A      1.613825   252A      1.621801  
     253A      1.635000   254A      1.657691   255A      1.666904  
     256A      1.678153   257A      1.679706   258A      1.689452  
     259A      1.709253   260A      1.711394   261A      1.720055  
     262A      1.730028   263A      1.732781   264A      1.749529  
     265A      1.770656   266A      1.776177   267A      1.790667  
     268A      1.805515   269A      1.811150   270A      1.822511  
     271A      1.831411   272A      1.838527   273A      1.842506  
     274A      1.852210   275A      1.868116   276A      1.880034  
     277A      1.894313   278A      1.900683   279A      1.921175  
     280A      1.931536   281A      1.936524   282A      1.948866  
     283A      1.964064   284A      1.971603   285A      1.995200  
     286A      2.020797   287A      2.032649   288A      2.044969  
     289A      2.060013   290A      2.069862   291A      2.098052  
     292A      2.107019   293A      2.112145   294A      2.127545  
     295A      2.139528   296A      2.150941   297A      2.169424  
     298A      2.183385   299A      2.189711   300A      2.218430  
     301A      2.245006   302A      2.271705   303A      2.283907  
     304A      2.298796   305A      2.402997   306A      2.417041  
     307A      2.450410   308A      2.458597   309A      2.460723  
     310A      2.479249   311A      2.485243   312A      2.502438  
     313A      2.506430   314A      2.522279   315A      2.527189  
     316A      2.535124   317A      2.554990   318A      2.561035  
     319A      2.565199   320A      2.571604   321A      2.575938  
     322A      2.582320   323A      2.591883   324A      2.597538  
     325A      2.600671   326A      2.608728   327A      2.623541  
     328A      2.627904   329A      2.636403   330A      2.644430  
     331A      2.645721   332A      2.650835   333A      2.654125  
     334A      2.668916   335A      2.679740   336A      2.690211  
     337A      2.692922   338A      2.695270   339A      2.706041  
     340A      2.718172   341A      2.726625   342A      2.741660  
     343A      2.746214   344A      2.762763   345A      2.774984  
     346A      2.782944   347A      2.790175   348A      2.808842  
     349A      2.826206   350A      2.837988   351A      2.858284  
     352A      2.864422   353A      2.870911   354A      2.881329  
     355A      2.889723   356A      2.916915   357A      2.920979  
     358A      2.935137   359A      2.940084   360A      2.951877  
     361A      2.961545   362A      2.968178   363A      2.968820  
     364A      2.977314   365A      2.993450   366A      3.006335  
     367A      3.015789   368A      3.021134   369A      3.053544  
     370A      3.054486   371A      3.066544   372A      3.072803  
     373A      3.080157   374A      3.093497   375A      3.106761  
     376A      3.123813   377A      3.131831   378A      3.152327  
     379A      3.157684   380A      3.169087   381A      3.185887  
     382A      3.188163   383A      3.207090   384A      3.232118  
     385A      3.268520   386A      3.329161   387A      3.352950  
     388A      3.432275   389A      3.469022   390A      3.546315  
     391A      3.593198   392A      3.628461   393A      3.704058  
     394A      3.716412   395A      3.773038   396A      3.804910  
     397A      3.825392   398A      3.877658   399A      3.887649  
     400A      3.916003   401A      3.927521   402A      3.939160  
     403A      3.954321   404A      4.031973   405A      4.061625  
     406A      4.090046   407A      4.105109   408A      4.139473  
     409A      4.179173   410A      4.198396   411A      4.216464  
     412A      4.232076   413A      4.236021   414A      4.257122  
     415A      4.275925   416A      4.336437   417A      4.349670  
     418A      4.368866   419A      4.378906   420A      4.382499  
     421A      4.385778   422A      4.394495   423A      4.406307  
     424A      4.416147   425A      4.418759   426A      4.432746  
     427A      4.437339   428A      4.443146   429A      4.456037  
     430A      4.461484   431A      4.472284   432A      4.477229  
     433A      4.484261   434A      4.500102   435A      4.510371  
     436A      4.526555   437A      4.538961   438A      4.544418  
     439A      4.552452   440A      4.553077   441A      4.562791  
     442A      4.573049   443A      4.581377   444A      4.590256  
     445A      4.600469   446A      4.611554   447A      4.613186  
     448A      4.638470   449A      4.648127   450A      4.660714  
     451A      4.669286   452A      4.677925   453A      4.696034  
     454A      4.701470   455A      4.709091   456A      4.720636  
     457A      4.725707   458A      4.740007   459A      4.752107  
     460A      4.771242   461A      4.785481   462A      4.821154  
     463A      4.846864   464A      4.894658   465A      4.898769  
     466A      4.912455   467A      4.922076   468A      4.928633  
     469A      4.940115   470A      5.015898   471A      5.041721  
     472A      5.061806   473A      5.072855   474A      5.093100  
     475A      5.109691   476A      5.213325   477A      5.241984  
     478A      5.250022   479A      5.261330   480A      5.284810  
     481A      5.295526   482A      5.309739   483A      5.322833  
     484A      5.328073   485A      5.354903   486A      5.404796  
     487A      5.413552   488A      5.422976   489A      5.446775  
     490A      5.453320   491A      5.468876   492A      5.486023  
     493A      5.503072   494A      5.514895   495A      5.521243  
     496A      5.537889   497A      5.578719   498A      5.586615  
     499A      5.621734   500A      5.626582   501A      5.634340  
     502A      5.652544   503A      5.668581   504A      5.706990  
     505A      5.712162   506A      5.788374   507A      5.871161  
     508A      5.881121   509A      5.908945   510A      5.963948  
     511A      6.081160   512A      6.274717   513A      6.285097  
     514A      6.343353   515A      6.359523   516A      6.411834  
     517A      6.431844   518A      6.696465   519A      6.713977  
     520A      6.724828   521A      6.745814   522A      6.751544  
     523A      6.764632   524A      6.896466   525A      6.900619  
     526A      6.912228   527A      6.921061   528A      6.947130  
     529A      6.949577   530A      6.990919   531A      6.995836  
     532A      7.032806   533A      7.063566   534A      7.084170  
     535A      7.091599   536A      7.275074   537A      7.280816  
     538A      7.282987   539A      7.302744   540A      7.333737  
     541A      7.350322   542A      7.370490   543A      7.404042  
     544A      7.414014   545A      7.419898   546A      7.426492  
     547A      7.429275   548A      7.437640   549A      7.441437  
     550A      7.443917   551A      7.456355   552A      7.467140  
     553A      7.472035   554A      7.479107   555A      7.482731  
     556A      7.487078   557A      7.492673   558A      7.506278  
     559A      7.524476   560A      7.532366   561A      7.553715  
     562A      7.555865   563A      7.570273   564A      7.585211  
     565A      7.593130   566A      7.617120   567A      7.621551  
     568A      7.638541   569A      7.648617   570A      7.657595  
     571A      7.714573   572A      7.731770   573A      7.756185  
     574A      7.777662   575A      7.837679   576A      7.905750  
     577A      7.939573   578A      8.007232   579A      8.019971  
     580A      8.037838   581A      8.050899   582A      8.058864  
     583A      8.072912   584A      8.086096   585A      8.099515  
     586A      8.123394   587A      8.152832   588A      8.195302  
     589A      8.223540   590A      8.297990   591A      8.793194  
     592A      8.846525   593A      8.876218   594A      8.886465  
     595A      8.951119   596A      9.014603   597A     15.445265  
     598A     15.648064   599A     16.081353   600A     16.547597  
     601A     16.771499   602A     17.519486  

    Final Occupation by Irrep:
              A 
    DOCC [    39 ]
    NA   [    39 ]
    NB   [    39 ]

  @DF-RHF Final Energy:  -915.98857446896409

   => Energetics <=

    Nuclear Repulsion Energy =            389.0974039745376558
    One-Electron Energy =               -2054.0368250577853360
    Two-Electron Energy =                 748.9508466142835914
    Total Energy =                       -915.9885744689640887

Computation Completed


Properties will be evaluated at   0.000000,   0.000000,   0.000000 [a0]

Properties computed using the SCF density matrix


 Multipole Moments:

 ------------------------------------------------------------------------------------
     Multipole            Electronic (a.u.)      Nuclear  (a.u.)        Total (a.u.)
 ------------------------------------------------------------------------------------

 L = 1.  Multiply by 2.5417464519 to convert [e a0] to [Debye]
 Dipole X            :        -42.0164733           42.4769218            0.4604485
 Dipole Y            :        -17.5572056           17.3208234           -0.2363823
 Dipole Z            :         13.6350377          -14.1228550           -0.4878173
 Magnitude           :                                                    0.7112349

 ------------------------------------------------------------------------------------

*** tstop() called on ddmfs1 at Sat Jan 13 20:33:49 2024
Module time:
	user time   =     271.92 seconds =       4.53 minutes
	system time =      20.57 seconds =       0.34 minutes
	total time  =         17 seconds =       0.28 minutes
Total time:
	user time   =     271.92 seconds =       4.53 minutes
	system time =      20.57 seconds =       0.34 minutes
	total time  =         17 seconds =       0.28 minutes

  //>>>>>>>>>>>>>>>>>>>>>>>>>>>>>>>>>>>//
  //            Monomer A HF           //
  //<<<<<<<<<<<<<<<<<<<<<<<<<<<<<<<<<<<//

   => Libint2 <=

    Primary   basis highest AM E, G, H:  5, 4, 3
    Auxiliary basis highest AM E, G, H:  6, 5, 4
    Onebody   basis highest AM E, G, H:  6, 5, 4
    Solid Harmonics ordering:            gaussian

*** tstart() called on ddmfs1
*** at Sat Jan 13 20:33:49 2024

   => Loading Basis Set <=

    Name: AUG-CC-PVTZ
    Role: ORBITAL
    Keyword: BASIS
    atoms 1                                   entry CL         line   988 file /ddmfs1b/softs/psi4conda/share/psi4/basis/aug-cc-pvtz.gbs 
    atoms 2, 5, 8, 11, 14, 17                 entry O          line   331 file /ddmfs1b/softs/psi4conda/share/psi4/basis/aug-cc-pvtz.gbs 
    atoms 3-4, 6-7, 9-10, 12-13, 15-16, 18-19 entry H          line    40 file /ddmfs1b/softs/psi4conda/share/psi4/basis/aug-cc-pvtz.gbs 


         ---------------------------------------------------------
                                   SCF
               by Justin Turney, Rob Parrish, Andy Simmonett
                          and Daniel G. A. Smith
                              RHF Reference
                       20 Threads,  57220 MiB Core
         ---------------------------------------------------------

  ==> Geometry <==

    Molecular point group: c1
    Full point group: C1

    Geometry (in Angstrom), charge = -1, multiplicity = 1:

       Center              X                  Y                   Z               Mass       
    ------------   -----------------  -----------------  -----------------  -----------------
         CL           0.000000000000     0.000000000000     0.000000000000    34.968852682000
      Gh(O)           1.742297000000    -2.654047000000     1.118768000000    15.994914619570
      Gh(H)           1.260670000000    -2.008429000000     0.613643000000     1.007825032230
      Gh(H)           2.683510000000    -2.425408000000     0.973453000000     1.007825032230
      Gh(O)          -0.878321000000    -2.549464000000    -2.008334000000    15.994914619570
      Gh(H)          -0.081928000000    -2.939664000000    -2.323798000000     1.007825032230
      Gh(H)          -0.714875000000    -1.691467000000    -1.528138000000     1.007825032230
      Gh(O)           1.749563000000    -0.102248000000     3.018640000000    15.994914619570
      Gh(H)           2.471494000000    -0.737311000000     3.082986000000     1.007825032230
      Gh(H)           1.443373000000    -0.105267000000     2.081928000000     1.007825032230
      Gh(O)          -0.979852000000     2.756798000000     1.607170000000    15.994914619570
      Gh(H)          -1.662922000000     2.629789000000     2.250272000000     1.007825032230
      Gh(H)          -0.638372000000     1.968890000000     1.221055000000     1.007825032230
      Gh(O)           1.578888000000     0.765967000000    -2.773134000000    15.994914619570
      Gh(H)           1.498143000000     0.657890000000    -1.802469000000     1.007825032230
      Gh(H)           1.511288000000     1.750790000000    -2.889389000000     1.007825032230
      Gh(O)          -1.085832000000     2.723152000000    -1.612034000000    15.994914619570
      Gh(H)          -1.583392000000     2.750532000000    -2.453881000000     1.007825032230
      Gh(H)          -0.723114000000     1.794176000000    -1.507763000000     1.007825032230

  Running in c1 symmetry.

  Rotational constants: A =      0.02664  B =      0.02323  C =      0.01582 [cm^-1]
  Rotational constants: A =    798.60521  B =    696.27435  C =    474.32536 [MHz]
  Nuclear repulsion =    0.000000000000000

  Charge       = -1
  Multiplicity = 1
  Electrons    = 18
  Nalpha       = 9
  Nbeta        = 9

  ==> Algorithm <==

  SCF Algorithm Type is DF.
  DIIS enabled.
  MOM disabled.
  Fractional occupation disabled.
  Guess Type is SAD.
  Energy threshold   = 1.00e-08
  Density threshold  = 1.00e-08
  Integral threshold = 1.00e-12

  ==> Primary Basis <==

  Basis Set: AUG-CC-PVTZ
    Blend: AUG-CC-PVTZ
    Number of shells: 208
    Number of basis functions: 602
    Number of Cartesian functions: 689
    Spherical Harmonics?: true
    Max angular momentum: 3

   => Loading Basis Set <=

    Name: (AUG-CC-PVTZ AUX)
    Role: JKFIT
    Keyword: DF_BASIS_SCF
    atoms 1                                   entry CL         line   816 file /ddmfs1b/softs/psi4conda/share/psi4/basis/aug-cc-pvtz-jkfit.gbs 
    atoms 2, 5, 8, 11, 14, 17                 entry O          line   286 file /ddmfs1b/softs/psi4conda/share/psi4/basis/aug-cc-pvtz-jkfit.gbs 
    atoms 3-4, 6-7, 9-10, 12-13, 15-16, 18-19 entry H          line    70 file /ddmfs1b/softs/psi4conda/share/psi4/basis/aug-cc-pvtz-jkfit.gbs 

  ==> Integral Setup <==

  ==> DiskDFJK: Density-Fitted J/K Matrices <==

    J tasked:                  Yes
    K tasked:                  Yes
    wK tasked:                  No
    OpenMP threads:             20
    Integrals threads:          20
    Memory [MiB]:            42915
    Algorithm:                Core
    Integral Cache:           LOAD
    Schwarz Cutoff:          1E-12
    Fitting Condition:       1E-10

   => Auxiliary Basis Set <=

  Basis Set: (AUG-CC-PVTZ AUX)
    Blend: AUG-CC-PVTZ-JKFIT
    Number of shells: 390
    Number of basis functions: 1322
    Number of Cartesian functions: 1626
    Spherical Harmonics?: true
    Max angular momentum: 4

  Minimum eigenvalue in the overlap matrix is 1.3481976233E-04.
  Reciprocal condition number of the overlap matrix is 1.0675707343E-05.
    Using symmetric orthogonalization.

  ==> Pre-Iterations <==

  SCF Guess: Superposition of Atomic Densities via on-the-fly atomic UHF (no occupation information).

   -------------------------
    Irrep   Nso     Nmo    
   -------------------------
     A        602     602 
   -------------------------
    Total     602     602
   -------------------------

  ==> Iterations <==

                           Total Energy        Delta E     RMS |[F,P]|

   @DF-RHF iter SAD:  -459.11248998641213   -4.59112e+02   0.00000e+00 
   @DF-RHF iter   1:  -459.51390237048150   -4.01412e-01   4.96343e-04 DIIS/ADIIS
   @DF-RHF iter   2:  -459.56482313348670   -5.09208e-02   2.54474e-04 DIIS/ADIIS
   @DF-RHF iter   3:  -459.57352232967423   -8.69920e-03   1.78517e-05 DIIS
   @DF-RHF iter   4:  -459.57358040786175   -5.80782e-05   3.48659e-06 DIIS
   @DF-RHF iter   5:  -459.57358402802430   -3.62016e-06   3.57327e-07 DIIS
   @DF-RHF iter   6:  -459.57358411130781   -8.32835e-08   3.31626e-08 DIIS
   @DF-RHF iter   7:  -459.57358411239892   -1.09111e-09   3.74595e-09 DIIS
  Energy and wave function converged.


  ==> Post-Iterations <==

    Orbital Energies [Eh]
    ---------------------

    Doubly Occupied:                                                      

       1A   -104.507261     2A    -10.230056     3A     -7.696138  
       4A     -7.696106     5A     -7.696096     6A     -0.733460  
       7A     -0.150304     8A     -0.150303     9A     -0.150295  

    Virtual:                                                              

      10A      0.115820    11A      0.121162    12A      0.124708  
      13A      0.129438    14A      0.137817    15A      0.143463  
      16A      0.162136    17A      0.166229    18A      0.175100  
      19A      0.181486    20A      0.185566    21A      0.202876  
      22A      0.225228    23A      0.242384    24A      0.247136  
      25A      0.249402    26A      0.254059    27A      0.257128  
      28A      0.258083    29A      0.263759    30A      0.266992  
      31A      0.272059    32A      0.276349    33A      0.281872  
      34A      0.283004    35A      0.294485    36A      0.302423  
      37A      0.307013    38A      0.313276    39A      0.318893  
      40A      0.324768    41A      0.329426    42A      0.332852  
      43A      0.339374    44A      0.345299    45A      0.359581  
      46A      0.363059    47A      0.372003    48A      0.389751  
      49A      0.400102    50A      0.409771    51A      0.412240  
      52A      0.420056    53A      0.427727    54A      0.434299  
      55A      0.446325    56A      0.453635    57A      0.455463  
      58A      0.462147    59A      0.463331    60A      0.471506  
      61A      0.475024    62A      0.484476    63A      0.489268  
      64A      0.492603    65A      0.496202    66A      0.500581  
      67A      0.502204    68A      0.504267    69A      0.512788  
      70A      0.518976    71A      0.521880    72A      0.525328  
      73A      0.527536    74A      0.536535    75A      0.539222  
      76A      0.544018    77A      0.550353    78A      0.558613  
      79A      0.561428    80A      0.585059    81A      0.587056  
      82A      0.595797    83A      0.603081    84A      0.617025  
      85A      0.618804    86A      0.625990    87A      0.637701  
      88A      0.639501    89A      0.651159    90A      0.669493  
      91A      0.686121    92A      0.687247    93A      0.707608  
      94A      0.722881    95A      0.725264    96A      0.740506  
      97A      0.757841    98A      0.770117    99A      0.782039  
     100A      0.798491   101A      0.812066   102A      0.822538  
     103A      0.828463   104A      0.838035   105A      0.847859  
     106A      0.857699   107A      0.868517   108A      0.872567  
     109A      0.879379   110A      0.885333   111A      0.891796  
     112A      0.899879   113A      0.904426   114A      0.913848  
     115A      0.915702   116A      0.919251   117A      0.930726  
     118A      0.931089   119A      0.942038   120A      0.943357  
     121A      0.946936   122A      0.955509   123A      0.968512  
     124A      0.974805   125A      0.975708   126A      0.985745  
     127A      0.988282   128A      0.989129   129A      0.994443  
     130A      0.999635   131A      1.010510   132A      1.010962  
     133A      1.019553   134A      1.025142   135A      1.028234  
     136A      1.032186   137A      1.038820   138A      1.046711  
     139A      1.051340   140A      1.054183   141A      1.059087  
     142A      1.066162   143A      1.071295   144A      1.077735  
     145A      1.080530   146A      1.084623   147A      1.089919  
     148A      1.099156   149A      1.101409   150A      1.104315  
     151A      1.109285   152A      1.113469   153A      1.118346  
     154A      1.123063   155A      1.128433   156A      1.137108  
     157A      1.145905   158A      1.147005   159A      1.153702  
     160A      1.158058   161A      1.165233   162A      1.174242  
     163A      1.177037   164A      1.189037   165A      1.191831  
     166A      1.194993   167A      1.201281   168A      1.208577  
     169A      1.209527   170A      1.220524   171A      1.229388  
     172A      1.234703   173A      1.244119   174A      1.246638  
     175A      1.247810   176A      1.264905   177A      1.269847  
     178A      1.274601   179A      1.281667   180A      1.284357  
     181A      1.295786   182A      1.300619   183A      1.317334  
     184A      1.333058   185A      1.338010   186A      1.348528  
     187A      1.360376   188A      1.362476   189A      1.373648  
     190A      1.379824   191A      1.384149   192A      1.391782  
     193A      1.397734   194A      1.406633   195A      1.409906  
     196A      1.422158   197A      1.427703   198A      1.450108  
     199A      1.455987   200A      1.460820   201A      1.462545  
     202A      1.478879   203A      1.493198   204A      1.501985  
     205A      1.504757   206A      1.516885   207A      1.531678  
     208A      1.540733   209A      1.562788   210A      1.570869  
     211A      1.578726   212A      1.585783   213A      1.596837  
     214A      1.614913   215A      1.616637   216A      1.623874  
     217A      1.627087   218A      1.657029   219A      1.659875  
     220A      1.668539   221A      1.680851   222A      1.684032  
     223A      1.709465   224A      1.717142   225A      1.727040  
     226A      1.739428   227A      1.762983   228A      1.783068  
     229A      1.792379   230A      1.810553   231A      1.829659  
     232A      1.837070   233A      1.843984   234A      1.861388  
     235A      1.873687   236A      1.876424   237A      1.886176  
     238A      1.902281   239A      1.905586   240A      1.908141  
     241A      1.914671   242A      1.926218   243A      1.927336  
     244A      1.937211   245A      1.944983   246A      1.955851  
     247A      1.966632   248A      1.984602   249A      1.986792  
     250A      1.993205   251A      2.001190   252A      2.013966  
     253A      2.024556   254A      2.032238   255A      2.038033  
     256A      2.042258   257A      2.053541   258A      2.060657  
     259A      2.084842   260A      2.090077   261A      2.094469  
     262A      2.103201   263A      2.116441   264A      2.123932  
     265A      2.133587   266A      2.136640   267A      2.150317  
     268A      2.168836   269A      2.186911   270A      2.213538  
     271A      2.244316   272A      2.258440   273A      2.262781  
     274A      2.303240   275A      2.317837   276A      2.343322  
     277A      2.368737   278A      2.380477   279A      2.405064  
     280A      2.437174   281A      2.598425   282A      2.609614  
     283A      2.614422   284A      2.622356   285A      2.638176  
     286A      2.644419   287A      2.652490   288A      2.662874  
     289A      2.674230   290A      2.679452   291A      2.688064  
     292A      2.698915   293A      2.706239   294A      2.711981  
     295A      2.715570   296A      2.722170   297A      2.729767  
     298A      2.748814   299A      2.757727   300A      2.765142  
     301A      2.778968   302A      2.784231   303A      2.794129  
     304A      2.807819   305A      2.812375   306A      2.821527  
     307A      2.824151   308A      2.833167   309A      2.841155  
     310A      2.849702   311A      2.853737   312A      2.854489  
     313A      2.870640   314A      2.874729   315A      2.881519  
     316A      2.896929   317A      2.901536   318A      2.916326  
     319A      2.923814   320A      2.936207   321A      2.953266  
     322A      2.971457   323A      2.982348   324A      2.995322  
     325A      3.018330   326A      3.040832   327A      3.073185  
     328A      3.082959   329A      3.088429   330A      3.104264  
     331A      3.120873   332A      3.139414   333A      3.161025  
     334A      3.171897   335A      3.193914   336A      3.219199  
     337A      3.287837   338A      3.297679   339A      3.301498  
     340A      3.324874   341A      3.343558   342A      3.346768  
     343A      3.349320   344A      3.363422   345A      3.377266  
     346A      3.382592   347A      3.386324   348A      3.389390  
     349A      3.395658   350A      3.410792   351A      3.417470  
     352A      3.431970   353A      3.433202   354A      3.451359  
     355A      3.456352   356A      3.488499   357A      3.497480  
     358A      3.525662   359A      3.529544   360A      3.538448  
     361A      3.552400   362A      3.575294   363A      3.588689  
     364A      3.599408   365A      3.616170   366A      3.634043  
     367A      3.642421   368A      3.667961   369A      3.676414  
     370A      3.711554   371A      3.722700   372A      3.741097  
     373A      3.746666   374A      3.760026   375A      3.788118  
     376A      3.797279   377A      3.810123   378A      3.819277  
     379A      3.836348   380A      3.843590   381A      3.866690  
     382A      3.880052   383A      3.916598   384A      3.927737  
     385A      3.941983   386A      3.979316   387A      4.040733  
     388A      4.064396   389A      4.077759   390A      4.140581  
     391A      4.197114   392A      4.540957   393A      4.546519  
     394A      4.565362   395A      4.578369   396A      4.592487  
     397A      4.604920   398A      4.621885   399A      4.628194  
     400A      4.653324   401A      4.656376   402A      4.666922  
     403A      4.686544   404A      4.718889   405A      4.736035  
     406A      4.751524   407A      4.769296   408A      4.774951  
     409A      4.783893   410A      4.791188   411A      4.804582  
     412A      4.819158   413A      4.831033   414A      4.837638  
     415A      4.845019   416A      4.854447   417A      4.858956  
     418A      4.866211   419A      4.874544   420A      4.895738  
     421A      4.902247   422A      4.957713   423A      4.970541  
     424A      4.998231   425A      5.014741   426A      5.024188  
     427A      5.035947   428A      5.048038   429A      5.075685  
     430A      5.077073   431A      5.091011   432A      5.115936  
     433A      5.150177   434A      5.160491   435A      5.171806  
     436A      5.181998   437A      5.201638   438A      5.223830  
     439A      5.230453   440A      5.260626   441A      5.293703  
     442A      5.307274   443A      5.322512   444A      5.330415  
     445A      5.338223   446A      5.349067   447A      5.366094  
     448A      5.407619   449A      5.454443   450A      5.458228  
     451A      5.480857   452A      5.600341   453A      5.649140  
     454A      5.657869   455A      5.675222   456A      5.697187  
     457A      5.714667   458A      5.722337   459A      5.736005  
     460A      5.740841   461A      5.743531   462A      5.749257  
     463A      5.785945   464A      5.812380   465A      5.828207  
     466A      5.829815   467A      5.874147   468A      5.932848  
     469A      5.950798   470A      5.954834   471A      5.964112  
     472A      6.000241   473A      6.031112   474A      6.047924  
     475A      6.073112   476A      6.308942   477A      6.317164  
     478A      6.327806   479A      6.340357   480A      6.352741  
     481A      6.397690   482A      6.518176   483A      6.528993  
     484A      6.570873   485A      6.587542   486A      6.603874  
     487A      6.646377   488A      6.715161   489A      6.837892  
     490A      6.847629   491A      6.856948   492A      6.973709  
     493A      7.127109   494A      7.151066   495A      7.164809  
     496A      7.208347   497A      7.274857   498A      7.308365  
     499A      7.383279   500A      7.615063   501A      7.846192  
     502A      7.848083   503A      7.876240   504A      7.885409  
     505A      7.891959   506A      7.904186   507A      7.915449  
     508A      7.925108   509A      7.973156   510A      7.984957  
     511A      8.032007   512A      8.034575   513A      8.210471  
     514A      8.216162   515A      8.231683   516A      8.284710  
     517A      8.303138   518A      8.308661   519A      8.349167  
     520A      8.356453   521A      8.377996   522A      8.401170  
     523A      8.407627   524A      8.411847   525A      8.423772  
     526A      8.436444   527A      8.461633   528A      8.491220  
     529A      8.509704   530A      8.586099   531A      8.808396  
     532A      8.828090   533A      8.916640   534A      8.920937  
     535A      8.935370   536A      8.946597   537A      8.957643  
     538A      9.018981   539A      9.069011   540A      9.154730  
     541A      9.180791   542A      9.408719   543A      9.834328  
     544A      9.836990   545A      9.894875   546A      9.903775  
     547A      9.924273   548A      9.948556   549A     10.005801  
     550A     10.022111   551A     10.039699   552A     10.059768  
     553A     10.066382   554A     10.099467   555A     10.225000  
     556A     10.234563   557A     10.242741   558A     10.252864  
     559A     10.265829   560A     10.287034   561A     10.402393  
     562A     10.420458   563A     10.431714   564A     10.451715  
     565A     10.462517   566A     10.474648   567A     11.187815  
     568A     11.224030   569A     11.245733   570A     11.272061  
     571A     11.351253   572A     11.380209   573A     11.847829  
     574A     11.852365   575A     11.892240   576A     11.938914  
     577A     11.948708   578A     11.998034   579A     12.023403  
     580A     12.048613   581A     12.180812   582A     12.342318  
     583A     12.362948   584A     12.524849   585A     13.603745  
     586A     13.679226   587A     13.695422   588A     13.721933  
     589A     13.818905   590A     13.951129   591A     14.094877  
     592A     14.122756   593A     14.138676   594A     14.156049  
     595A     14.164234   596A     14.216922   597A     64.022362  
     598A     64.410563   599A     65.283490   600A     66.224108  
     601A     66.685952   602A     68.046885  

    Final Occupation by Irrep:
              A 
    DOCC [     9 ]
    NA   [     9 ]
    NB   [     9 ]

  @DF-RHF Final Energy:  -459.57358411239892

   => Energetics <=

    Nuclear Repulsion Energy =              0.0000000000000000
    One-Electron Energy =                -641.1271457302542558
    Two-Electron Energy =                 181.5535616178553653
    Total Energy =                       -459.5735841123988621

Computation Completed


Properties will be evaluated at   0.000000,   0.000000,   0.000000 [a0]

Properties computed using the SCF density matrix


 Multipole Moments:

 ------------------------------------------------------------------------------------
     Multipole            Electronic (a.u.)      Nuclear  (a.u.)        Total (a.u.)
 ------------------------------------------------------------------------------------

 L = 1.  Multiply by 2.5417464519 to convert [e a0] to [Debye]
 Dipole X            :          0.0001346            0.0000000            0.0001346
 Dipole Y            :         -0.0000448            0.0000000           -0.0000448
 Dipole Z            :         -0.0000315            0.0000000           -0.0000315
 Magnitude           :                                                    0.0001453

 ------------------------------------------------------------------------------------

*** tstop() called on ddmfs1 at Sat Jan 13 20:33:59 2024
Module time:
	user time   =     147.34 seconds =       2.46 minutes
	system time =       4.30 seconds =       0.07 minutes
	total time  =         10 seconds =       0.17 minutes
Total time:
	user time   =     419.37 seconds =       6.99 minutes
	system time =      24.89 seconds =       0.41 minutes
	total time  =         27 seconds =       0.45 minutes

  //>>>>>>>>>>>>>>>>>>>>>>>>>>>>>>>>>>>//
  //            Monomer B HF           //
  //<<<<<<<<<<<<<<<<<<<<<<<<<<<<<<<<<<<//

   => Libint2 <=

    Primary   basis highest AM E, G, H:  5, 4, 3
    Auxiliary basis highest AM E, G, H:  6, 5, 4
    Onebody   basis highest AM E, G, H:  6, 5, 4
    Solid Harmonics ordering:            gaussian

*** tstart() called on ddmfs1
*** at Sat Jan 13 20:33:59 2024

   => Loading Basis Set <=

    Name: AUG-CC-PVTZ
    Role: ORBITAL
    Keyword: BASIS
    atoms 1                                   entry CL         line   988 file /ddmfs1b/softs/psi4conda/share/psi4/basis/aug-cc-pvtz.gbs 
    atoms 2, 5, 8, 11, 14, 17                 entry O          line   331 file /ddmfs1b/softs/psi4conda/share/psi4/basis/aug-cc-pvtz.gbs 
    atoms 3-4, 6-7, 9-10, 12-13, 15-16, 18-19 entry H          line    40 file /ddmfs1b/softs/psi4conda/share/psi4/basis/aug-cc-pvtz.gbs 


         ---------------------------------------------------------
                                   SCF
               by Justin Turney, Rob Parrish, Andy Simmonett
                          and Daniel G. A. Smith
                              RHF Reference
                       20 Threads,  57220 MiB Core
         ---------------------------------------------------------

  ==> Geometry <==

    Molecular point group: c1
    Full point group: C1

    Geometry (in Angstrom), charge = 0, multiplicity = 1:

       Center              X                  Y                   Z               Mass       
    ------------   -----------------  -----------------  -----------------  -----------------
      Gh(CL)          0.000000000000     0.000000000000     0.000000000000    34.968852682000
         O            1.742297000000    -2.654047000000     1.118768000000    15.994914619570
         H            1.260670000000    -2.008429000000     0.613643000000     1.007825032230
         H            2.683510000000    -2.425408000000     0.973453000000     1.007825032230
         O           -0.878321000000    -2.549464000000    -2.008334000000    15.994914619570
         H           -0.081928000000    -2.939664000000    -2.323798000000     1.007825032230
         H           -0.714875000000    -1.691467000000    -1.528138000000     1.007825032230
         O            1.749563000000    -0.102248000000     3.018640000000    15.994914619570
         H            2.471494000000    -0.737311000000     3.082986000000     1.007825032230
         H            1.443373000000    -0.105267000000     2.081928000000     1.007825032230
         O           -0.979852000000     2.756798000000     1.607170000000    15.994914619570
         H           -1.662922000000     2.629789000000     2.250272000000     1.007825032230
         H           -0.638372000000     1.968890000000     1.221055000000     1.007825032230
         O            1.578888000000     0.765967000000    -2.773134000000    15.994914619570
         H            1.498143000000     0.657890000000    -1.802469000000     1.007825032230
         H            1.511288000000     1.750790000000    -2.889389000000     1.007825032230
         O           -1.085832000000     2.723152000000    -1.612034000000    15.994914619570
         H           -1.583392000000     2.750532000000    -2.453881000000     1.007825032230
         H           -0.723114000000     1.794176000000    -1.507763000000     1.007825032230

  Running in c1 symmetry.

  Rotational constants: A =      0.02664  B =      0.02323  C =      0.01582 [cm^-1]
  Rotational constants: A =    798.60521  B =    696.27435  C =    474.32536 [MHz]
  Nuclear repulsion =  224.545432644595707

  Charge       = 0
  Multiplicity = 1
  Electrons    = 60
  Nalpha       = 30
  Nbeta        = 30

  ==> Algorithm <==

  SCF Algorithm Type is DF.
  DIIS enabled.
  MOM disabled.
  Fractional occupation disabled.
  Guess Type is SAD.
  Energy threshold   = 1.00e-08
  Density threshold  = 1.00e-08
  Integral threshold = 1.00e-12

  ==> Primary Basis <==

  Basis Set: AUG-CC-PVTZ
    Blend: AUG-CC-PVTZ
    Number of shells: 208
    Number of basis functions: 602
    Number of Cartesian functions: 689
    Spherical Harmonics?: true
    Max angular momentum: 3

   => Loading Basis Set <=

    Name: (AUG-CC-PVTZ AUX)
    Role: JKFIT
    Keyword: DF_BASIS_SCF
    atoms 1                                   entry CL         line   816 file /ddmfs1b/softs/psi4conda/share/psi4/basis/aug-cc-pvtz-jkfit.gbs 
    atoms 2, 5, 8, 11, 14, 17                 entry O          line   286 file /ddmfs1b/softs/psi4conda/share/psi4/basis/aug-cc-pvtz-jkfit.gbs 
    atoms 3-4, 6-7, 9-10, 12-13, 15-16, 18-19 entry H          line    70 file /ddmfs1b/softs/psi4conda/share/psi4/basis/aug-cc-pvtz-jkfit.gbs 

  ==> Integral Setup <==

  ==> DiskDFJK: Density-Fitted J/K Matrices <==

    J tasked:                  Yes
    K tasked:                  Yes
    wK tasked:                  No
    OpenMP threads:             20
    Integrals threads:          20
    Memory [MiB]:            42915
    Algorithm:                Core
    Integral Cache:           LOAD
    Schwarz Cutoff:          1E-12
    Fitting Condition:       1E-10

   => Auxiliary Basis Set <=

  Basis Set: (AUG-CC-PVTZ AUX)
    Blend: AUG-CC-PVTZ-JKFIT
    Number of shells: 390
    Number of basis functions: 1322
    Number of Cartesian functions: 1626
    Spherical Harmonics?: true
    Max angular momentum: 4

  Minimum eigenvalue in the overlap matrix is 1.3481976233E-04.
  Reciprocal condition number of the overlap matrix is 1.0675707343E-05.
    Using symmetric orthogonalization.

  ==> Pre-Iterations <==

  SCF Guess: Superposition of Atomic Densities via on-the-fly atomic UHF (no occupation information).

   -------------------------
    Irrep   Nso     Nmo    
   -------------------------
     A        602     602 
   -------------------------
    Total     602     602
   -------------------------

  ==> Iterations <==

                           Total Energy        Delta E     RMS |[F,P]|

   @DF-RHF iter SAD:  -452.86904787734022   -4.52869e+02   0.00000e+00 
   @DF-RHF iter   1:  -455.82417392802824   -2.95513e+00   1.89835e-03 DIIS/ADIIS
   @DF-RHF iter   2:  -456.13848643003314   -3.14313e-01   1.30449e-03 DIIS/ADIIS
   @DF-RHF iter   3:  -456.33061725433981   -1.92131e-01   9.22423e-05 DIIS
   @DF-RHF iter   4:  -456.33329206345036   -2.67481e-03   2.39406e-05 DIIS
   @DF-RHF iter   5:  -456.33347557086961   -1.83507e-04   7.55674e-06 DIIS
   @DF-RHF iter   6:  -456.33349395486562   -1.83840e-05   3.28633e-06 DIIS
   @DF-RHF iter   7:  -456.33349671529004   -2.76042e-06   6.98680e-07 DIIS
   @DF-RHF iter   8:  -456.33349697858898   -2.63299e-07   1.38371e-07 DIIS
   @DF-RHF iter   9:  -456.33349698736561   -8.77662e-09   5.06627e-08 DIIS
   @DF-RHF iter  10:  -456.33349698795115   -5.85544e-10   1.58284e-08 DIIS
   @DF-RHF iter  11:  -456.33349698804005   -8.89031e-11   4.53984e-09 DIIS
  Energy and wave function converged.


  ==> Post-Iterations <==

    Orbital Energies [Eh]
    ---------------------

    Doubly Occupied:                                                      

       1A    -20.600670     2A    -20.596717     3A    -20.584474  
       4A    -20.578832     5A    -20.576860     6A    -20.557162  
       7A     -1.379001     8A     -1.368237     9A     -1.356097  
      10A     -1.351163    11A     -1.350807    12A     -1.348144  
      13A     -0.744059    14A     -0.742916    15A     -0.738819  
      16A     -0.726652    17A     -0.721487    18A     -0.719154  
      19A     -0.611304    20A     -0.610646    21A     -0.587545  
      22A     -0.585778    23A     -0.580101    24A     -0.562615  
      25A     -0.537409    26A     -0.537074    27A     -0.520470  
      28A     -0.519649    29A     -0.513778    30A     -0.503165  

    Virtual:                                                              

      31A      0.001378    32A      0.025391    33A      0.033218  
      34A      0.038595    35A      0.041251    36A      0.048660  
      37A      0.055844    38A      0.063601    39A      0.072043  
      40A      0.079856    41A      0.083885    42A      0.096191  
      43A      0.101592    44A      0.110146    45A      0.122191  
      46A      0.128738    47A      0.136892    48A      0.147784  
      49A      0.152533    50A      0.159534    51A      0.163863  
      52A      0.165206    53A      0.170248    54A      0.173596  
      55A      0.177227    56A      0.178727    57A      0.184229  
      58A      0.190243    59A      0.193533    60A      0.203906  
      61A      0.209572    62A      0.213268    63A      0.217104  
      64A      0.223688    65A      0.228491    66A      0.230381  
      67A      0.239140    68A      0.244783    69A      0.246624  
      70A      0.253469    71A      0.259073    72A      0.267184  
      73A      0.273470    74A      0.278666    75A      0.279963  
      76A      0.286097    77A      0.287664    78A      0.297027  
      79A      0.305832    80A      0.311420    81A      0.314986  
      82A      0.326355    83A      0.328381    84A      0.335727  
      85A      0.343283    86A      0.345579    87A      0.355214  
      88A      0.355874    89A      0.363885    90A      0.371453  
      91A      0.375435    92A      0.378620    93A      0.381904  
      94A      0.397463    95A      0.405424    96A      0.407945  
      97A      0.415585    98A      0.419042    99A      0.428025  
     100A      0.432781   101A      0.445623   102A      0.451232  
     103A      0.455922   104A      0.456636   105A      0.461082  
     106A      0.463696   107A      0.467482   108A      0.478417  
     109A      0.483215   110A      0.491424   111A      0.493439  
     112A      0.510026   113A      0.522794   114A      0.541991  
     115A      0.562538   116A      0.569249   117A      0.571915  
     118A      0.584263   119A      0.598211   120A      0.600391  
     121A      0.612770   122A      0.617828   123A      0.634051  
     124A      0.637348   125A      0.647326   126A      0.650884  
     127A      0.662818   128A      0.667748   129A      0.675304  
     130A      0.684633   131A      0.688079   132A      0.699719  
     133A      0.710812   134A      0.712404   135A      0.718178  
     136A      0.725082   137A      0.725625   138A      0.729749  
     139A      0.740531   140A      0.749403   141A      0.755741  
     142A      0.762648   143A      0.763684   144A      0.770563  
     145A      0.773249   146A      0.776682   147A      0.788814  
     148A      0.794462   149A      0.797540   150A      0.801532  
     151A      0.807357   152A      0.818312   153A      0.822081  
     154A      0.835994   155A      0.839920   156A      0.849942  
     157A      0.857340   158A      0.863359   159A      0.870437  
     160A      0.879930   161A      0.882732   162A      0.885003  
     163A      0.894295   164A      0.901109   165A      0.903977  
     166A      0.912874   167A      0.917387   168A      0.927808  
     169A      0.929773   170A      0.934717   171A      0.940028  
     172A      0.942061   173A      0.949448   174A      0.956349  
     175A      0.961944   176A      0.968998   177A      0.972490  
     178A      0.982523   179A      0.989578   180A      0.990456  
     181A      0.995788   182A      1.000346   183A      1.011542  
     184A      1.019920   185A      1.022263   186A      1.024275  
     187A      1.032076   188A      1.041310   189A      1.042489  
     190A      1.045844   191A      1.051932   192A      1.054889  
     193A      1.059361   194A      1.066638   195A      1.069834  
     196A      1.082679   197A      1.086271   198A      1.087313  
     199A      1.096106   200A      1.099459   201A      1.107781  
     202A      1.118502   203A      1.124918   204A      1.134850  
     205A      1.138175   206A      1.147716   207A      1.161408  
     208A      1.166490   209A      1.170499   210A      1.180993  
     211A      1.191050   212A      1.201860   213A      1.212235  
     214A      1.222605   215A      1.229097   216A      1.238000  
     217A      1.243211   218A      1.246614   219A      1.251878  
     220A      1.259751   221A      1.271706   222A      1.275095  
     223A      1.281991   224A      1.296012   225A      1.304078  
     226A      1.310715   227A      1.320003   228A      1.322608  
     229A      1.336364   230A      1.340029   231A      1.348806  
     232A      1.356510   233A      1.359348   234A      1.380154  
     235A      1.385442   236A      1.392730   237A      1.399665  
     238A      1.432714   239A      1.437632   240A      1.459822  
     241A      1.465084   242A      1.475676   243A      1.483496  
     244A      1.498150   245A      1.505422   246A      1.518710  
     247A      1.523447   248A      1.540589   249A      1.547100  
     250A      1.559473   251A      1.569129   252A      1.574749  
     253A      1.588637   254A      1.594680   255A      1.608014  
     256A      1.614347   257A      1.620278   258A      1.631218  
     259A      1.641416   260A      1.648357   261A      1.660456  
     262A      1.674053   263A      1.687393   264A      1.701267  
     265A      1.708816   266A      1.723510   267A      1.731038  
     268A      1.735547   269A      1.761835   270A      1.765265  
     271A      1.777808   272A      1.791251   273A      1.792618  
     274A      1.809015   275A      1.820941   276A      1.828274  
     277A      1.843833   278A      1.860444   279A      1.863800  
     280A      1.893255   281A      1.898602   282A      1.918719  
     283A      1.938105   284A      1.941910   285A      1.963593  
     286A      1.971209   287A      1.974899   288A      1.998510  
     289A      2.002151   290A      2.012003   291A      2.035087  
     292A      2.048729   293A      2.062108   294A      2.080121  
     295A      2.100052   296A      2.128599   297A      2.155665  
     298A      2.176884   299A      2.187477   300A      2.264779  
     301A      2.275522   302A      2.307213   303A      2.313335  
     304A      2.318739   305A      2.335997   306A      2.354968  
     307A      2.359795   308A      2.375351   309A      2.382336  
     310A      2.395190   311A      2.403330   312A      2.413865  
     313A      2.425695   314A      2.432508   315A      2.435471  
     316A      2.438962   317A      2.449072   318A      2.458397  
     319A      2.468394   320A      2.475333   321A      2.478012  
     322A      2.487194   323A      2.495532   324A      2.500669  
     325A      2.508274   326A      2.510307   327A      2.513039  
     328A      2.521607   329A      2.531751   330A      2.550133  
     331A      2.551932   332A      2.563624   333A      2.571514  
     334A      2.572710   335A      2.585355   336A      2.596126  
     337A      2.608802   338A      2.621792   339A      2.634457  
     340A      2.648606   341A      2.659327   342A      2.680334  
     343A      2.691121   344A      2.706120   345A      2.718094  
     346A      2.729078   347A      2.736148   348A      2.739394  
     349A      2.758069   350A      2.766241   351A      2.779356  
     352A      2.792169   353A      2.795300   354A      2.808724  
     355A      2.814753   356A      2.825138   357A      2.832751  
     358A      2.840848   359A      2.851651   360A      2.866168  
     361A      2.895039   362A      2.906301   363A      2.910719  
     364A      2.916363   365A      2.933153   366A      2.938865  
     367A      2.961738   368A      2.969749   369A      2.983370  
     370A      2.992131   371A      3.014443   372A      3.026944  
     373A      3.031002   374A      3.051370   375A      3.066662  
     376A      3.077332   377A      3.116382   378A      3.682538  
     379A      3.698640   380A      3.703421   381A      3.721244  
     382A      3.756044   383A      3.774264   384A      3.834625  
     385A      3.864479   386A      3.887412   387A      3.893470  
     388A      3.910938   389A      3.963736   390A      4.031216  
     391A      4.044734   392A      4.055707   393A      4.064487  
     394A      4.073824   395A      4.081640   396A      4.102222  
     397A      4.109409   398A      4.139854   399A      4.150775  
     400A      4.185683   401A      4.190068   402A      4.202204  
     403A      4.212301   404A      4.216289   405A      4.225465  
     406A      4.229182   407A      4.237766   408A      4.243305  
     409A      4.251775   410A      4.253358   411A      4.258517  
     412A      4.264778   413A      4.276725   414A      4.286010  
     415A      4.290649   416A      4.294833   417A      4.310720  
     418A      4.321045   419A      4.339265   420A      4.342306  
     421A      4.349561   422A      4.365268   423A      4.368750  
     424A      4.372810   425A      4.376082   426A      4.390612  
     427A      4.398235   428A      4.406566   429A      4.407978  
     430A      4.414264   431A      4.426943   432A      4.430398  
     433A      4.446351   434A      4.452423   435A      4.459897  
     436A      4.463419   437A      4.479072   438A      4.500270  
     439A      4.505583   440A      4.514531   441A      4.523162  
     442A      4.531353   443A      4.546807   444A      4.558899  
     445A      4.568684   446A      4.569452   447A      4.580154  
     448A      4.596871   449A      4.612408   450A      4.626022  
     451A      4.637451   452A      4.658313   453A      4.684791  
     454A      4.730911   455A      4.751057   456A      4.753456  
     457A      4.769670   458A      4.773745   459A      4.783006  
     460A      4.788709   461A      4.811180   462A      4.846016  
     463A      4.886527   464A      4.908195   465A      4.919830  
     466A      4.934061   467A      4.973434   468A      4.981916  
     469A      5.042552   470A      5.057242   471A      5.081763  
     472A      5.093112   473A      5.102123   474A      5.119213  
     475A      5.133165   476A      5.141271   477A      5.155076  
     478A      5.161096   479A      5.181370   480A      5.201170  
     481A      5.232505   482A      5.257179   483A      5.279026  
     484A      5.294840   485A      5.301069   486A      5.306148  
     487A      5.314670   488A      5.354625   489A      5.366192  
     490A      5.372298   491A      5.382205   492A      5.417234  
     493A      5.428673   494A      5.456979   495A      5.476759  
     496A      5.481901   497A      5.486445   498A      5.513235  
     499A      5.538090   500A      5.560602   501A      5.576989  
     502A      5.652147   503A      5.720688   504A      5.733627  
     505A      5.761455   506A      5.813503   507A      5.934233  
     508A      6.120825   509A      6.135064   510A      6.194679  
     511A      6.212522   512A      6.261219   513A      6.277238  
     514A      6.541221   515A      6.562609   516A      6.579329  
     517A      6.593619   518A      6.603661   519A      6.615975  
     520A      6.745952   521A      6.755847   522A      6.760131  
     523A      6.772927   524A      6.795891   525A      6.800852  
     526A      6.837056   527A      6.846487   528A      6.891092  
     529A      6.915003   530A      6.935435   531A      6.939029  
     532A      7.123325   533A      7.129123   534A      7.131041  
     535A      7.163030   536A      7.199504   537A      7.200904  
     538A      7.233391   539A      7.256510   540A      7.258461  
     541A      7.272618   542A      7.276051   543A      7.287856  
     544A      7.288490   545A      7.289722   546A      7.298273  
     547A      7.310876   548A      7.315608   549A      7.328633  
     550A      7.329071   551A      7.333807   552A      7.341153  
     553A      7.356262   554A      7.369896   555A      7.376591  
     556A      7.399018   557A      7.406015   558A      7.414926  
     559A      7.430147   560A      7.436231   561A      7.454252  
     562A      7.464387   563A      7.474890   564A      7.484449  
     565A      7.497918   566A      7.531570   567A      7.571600  
     568A      7.602495   569A      7.624371   570A      7.685901  
     571A      7.729456   572A      7.760133   573A      7.846630  
     574A      7.858747   575A      7.875040   576A      7.897545  
     577A      7.906142   578A      7.916535   579A      7.927589  
     580A      7.940439   581A      7.970408   582A      7.982968  
     583A      8.005542   584A      8.047172   585A      8.144929  
     586A      8.639200   587A      8.685543   588A      8.716786  
     589A      8.734201   590A      8.794022   591A      8.861039  
     592A     15.285644   593A     15.491299   594A     15.615077  
     595A     16.047341   596A     16.431605   597A     16.713219  
     598A     17.452002   599A     28.061816   600A     28.305021  
     601A     28.405287   602A    160.908010  

    Final Occupation by Irrep:
              A 
    DOCC [    30 ]
    NA   [    30 ]
    NB   [    30 ]

  @DF-RHF Final Energy:  -456.33349698804005

   => Energetics <=

    Nuclear Repulsion Energy =            224.5454326445957065
    One-Electron Energy =               -1076.3362830223022684
    Two-Electron Energy =                 395.4573533896664799
    Total Energy =                       -456.3334969880400536

Computation Completed


Properties will be evaluated at   0.000000,   0.000000,   0.000000 [a0]

Properties computed using the SCF density matrix


 Multipole Moments:

 ------------------------------------------------------------------------------------
     Multipole            Electronic (a.u.)      Nuclear  (a.u.)        Total (a.u.)
 ------------------------------------------------------------------------------------

 L = 1.  Multiply by 2.5417464519 to convert [e a0] to [Debye]
 Dipole X            :        -41.7080748           42.4769218            0.7688470
 Dipole Y            :        -17.5060196           17.3208234           -0.1851962
 Dipole Z            :         13.4393117          -14.1228550           -0.6835433
 Magnitude           :                                                    1.0453013

 ------------------------------------------------------------------------------------

*** tstop() called on ddmfs1 at Sat Jan 13 20:34:13 2024
Module time:
	user time   =     228.83 seconds =       3.81 minutes
	system time =       6.89 seconds =       0.11 minutes
	total time  =         14 seconds =       0.23 minutes
Total time:
	user time   =     648.32 seconds =      10.81 minutes
	system time =      31.78 seconds =       0.53 minutes
	total time  =         41 seconds =       0.68 minutes
  Constructing Basis Sets for SAPT...

   => Loading Basis Set <=

    Name: (AUG-CC-PVTZ AUX)
    Role: RIFIT
    Keyword: DF_BASIS_SAPT
    atoms 1                                   entry CL         line   742 file /ddmfs1b/softs/psi4conda/share/psi4/basis/aug-cc-pvtz-ri.gbs 
    atoms 2, 5, 8, 11, 14, 17                 entry O          line   264 file /ddmfs1b/softs/psi4conda/share/psi4/basis/aug-cc-pvtz-ri.gbs 
    atoms 3-4, 6-7, 9-10, 12-13, 15-16, 18-19 entry H          line    30 file /ddmfs1b/softs/psi4conda/share/psi4/basis/aug-cc-pvtz-ri.gbs 

   => Loading Basis Set <=

    Name: (AUG-CC-PVTZ AUX)
    Role: JKFIT
    Keyword: DF_BASIS_ELST
    atoms 1                                   entry CL         line   816 file /ddmfs1b/softs/psi4conda/share/psi4/basis/aug-cc-pvtz-jkfit.gbs 
    atoms 2, 5, 8, 11, 14, 17                 entry O          line   286 file /ddmfs1b/softs/psi4conda/share/psi4/basis/aug-cc-pvtz-jkfit.gbs 
    atoms 3-4, 6-7, 9-10, 12-13, 15-16, 18-19 entry H          line    70 file /ddmfs1b/softs/psi4conda/share/psi4/basis/aug-cc-pvtz-jkfit.gbs 


  //>>>>>>>>>>>>>>>>>>>>>>>>>>>>>>>>>>>//
  //               SAPT2+              //
  //<<<<<<<<<<<<<<<<<<<<<<<<<<<<<<<<<<<//


*** tstart() called on ddmfs1
*** at Sat Jan 13 20:34:13 2024

        SAPT2+  
    Ed Hohenstein
     6 June 2009

      Orbital Information
  --------------------------
    NSO        =       602
    NMO        =       602
    NRI        =      1335
    NOCC A     =         9
    NOCC B     =        30
    FOCC A     =         0
    FOCC B     =         0
    NVIR A     =       593
    NVIR B     =       572

    Estimated memory usage: 11351.2 MB

    Natural Orbital Cutoff:   1.000E-06
    Disp(T3) Truncation:            Yes
    CCD (vv|vv) Truncation:         Yes
    MBPT T2 Truncation:             Yes

    Monomer A: 502 virtual orbitals dropped
    Monomer B: 93 virtual orbitals dropped

    Elst10,r            =    -0.106221922878 [Eh]
    Exch10 (S^2)        =     0.055193580054 [Eh]
    Exch10              =     0.055473059685 [Eh]
    Ind20,r (A<-B)      =    -0.026921267726 [Eh]
    Ind20,r (B<-A)      =    -0.020843135510 [Eh]
    Ind20,r             =    -0.047764403236 [Eh]
    Exch-Ind20,r (A<-B) =     0.019316107900 [Eh]
    Exch-Ind20,r (B<-A) =     0.003793524407 [Eh]
    Exch-Ind20,r        =     0.023109632306 [Eh]
    Disp20              =    -0.029351301553 [Eh]
    Disp20 (NO)         =    -0.025427333180 [Eh]
    Exch-Disp20         =     0.006362654782 [Eh]
    Elst12,r            =     0.000069475501 [Eh]
    Exch11              =     0.002912896098 [Eh]
    Exch12              =     0.005770727790 [Eh]
    Ind22               =    -0.006464218685 [Eh]
    Disp21              =     0.001782599491 [Eh]
    Disp22 (SDQ)        =    -0.000056272554 [Eh]

    (i =   1 of  30)          5 seconds
    (i =   2 of  30)         10 seconds
    (i =   3 of  30)         16 seconds
    (i =   4 of  30)         21 seconds
    (i =   5 of  30)         26 seconds
    (i =   6 of  30)         31 seconds
    (i =   7 of  30)         36 seconds
    (i =   8 of  30)         41 seconds
    (i =   9 of  30)         46 seconds
    (i =  10 of  30)         51 seconds
    (i =  11 of  30)         56 seconds
    (i =  12 of  30)         61 seconds
    (i =  13 of  30)         66 seconds
    (i =  14 of  30)         71 seconds
    (i =  15 of  30)         76 seconds
    (i =  16 of  30)         81 seconds
    (i =  17 of  30)         86 seconds
    (i =  18 of  30)         91 seconds
    (i =  19 of  30)         96 seconds
    (i =  20 of  30)        101 seconds
    (i =  21 of  30)        106 seconds
    (i =  22 of  30)        111 seconds
    (i =  23 of  30)        116 seconds
    (i =  24 of  30)        121 seconds
    (i =  25 of  30)        126 seconds
    (i =  26 of  30)        131 seconds
    (i =  27 of  30)        137 seconds
    (i =  28 of  30)        142 seconds
    (i =  29 of  30)        147 seconds
    (i =  30 of  30)        152 seconds

    Disp220 (T)         =    -0.002139422794 [Eh]

    (i =   1 of   9)        455 seconds
    (i =   2 of   9)        911 seconds
    (i =   3 of   9)       1368 seconds
    (i =   4 of   9)       1824 seconds
    (i =   5 of   9)       2280 seconds
    (i =   6 of   9)       2736 seconds
    (i =   7 of   9)       3194 seconds
    (i =   8 of   9)       3650 seconds
    (i =   9 of   9)       4105 seconds

    Disp202 (T)         =    -0.002661960205 [Eh]

    Disp22 (T)          =    -0.004801382998 [Eh]

    Est. Disp220 (T)    =    -0.002469580397 [Eh]
    Est. Disp202 (T)    =    -0.003072756240 [Eh]

    Est. Disp22 (T)     =    -0.005542336637 [Eh]

    SAPT Results 
  --------------------------------------------------------------------------------------------------------
    Electrostatics               -106.15244738 [mEh]     -66.61166639 [kcal/mol]    -278.70321219 [kJ/mol]
      Elst10,r                   -106.22192288 [mEh]     -66.65526293 [kcal/mol]    -278.88562009 [kJ/mol]
      Elst12,r                      0.06947550 [mEh]       0.04359654 [kcal/mol]       0.18240790 [kJ/mol]

    Exchange                       64.15668357 [mEh]      40.25892675 [kcal/mol]     168.44334951 [kJ/mol]
      Exch10                       55.47305969 [mEh]      34.80987049 [kcal/mol]     145.64449814 [kJ/mol]
      Exch10(S^2)                  55.19358005 [mEh]      34.63449438 [kcal/mol]     144.91072447 [kJ/mol]
      Exch11(S^2)                   2.91289610 [mEh]       1.82786990 [kcal/mol]       7.64780765 [kJ/mol]
      Exch12(S^2)                   5.77072779 [mEh]       3.62118636 [kcal/mol]      15.15104372 [kJ/mol]

    Induction                     -34.08117072 [mEh]     -21.38625750 [kcal/mol]     -89.48010139 [kJ/mol]
      Ind20,r                     -47.76440324 [mEh]     -29.97261554 [kcal/mol]    -125.40542342 [kJ/mol]
      Ind22                        -6.46421868 [mEh]      -4.05635847 [kcal/mol]     -16.97180382 [kJ/mol]
      Exch-Ind20,r                 23.10963231 [mEh]      14.50151321 [kcal/mol]      60.67433126 [kJ/mol]
      Exch-Ind22                    3.12755330 [mEh]       1.96256933 [kcal/mol]       8.21139006 [kJ/mol]
      delta HF,r (2)               -6.08973440 [mEh]      -3.82136603 [kcal/mol]     -15.98859547 [kJ/mol]

    Dispersion                    -26.80465647 [mEh]     -16.82017588 [kcal/mol]     -70.37561587 [kJ/mol]
      Disp20                      -29.35130155 [mEh]     -18.41821979 [kcal/mol]     -77.06183161 [kJ/mol]
      Disp21                        1.78259949 [mEh]       1.11859807 [kcal/mol]       4.68021432 [kJ/mol]
      Disp22 (SDQ)                 -0.05627255 [mEh]      -0.03531156 [kcal/mol]      -0.14774357 [kJ/mol]
      Disp22 (T)                   -4.80138300 [mEh]      -3.01291332 [kcal/mol]     -12.60602933 [kJ/mol]
      Est. Disp22 (T)              -5.54233664 [mEh]      -3.47786875 [kcal/mol]     -14.55140283 [kJ/mol]
      Exch-Disp20                   6.36265478 [mEh]       3.99262615 [kcal/mol]      16.70514783 [kJ/mol]

  Total HF                        -81.49336853 [mEh]     -51.13786080 [kcal/mol]    -213.96080959 [kJ/mol]
  Total SAPT0                    -104.48201530 [mEh]     -65.56345444 [kcal/mol]    -274.31749337 [kJ/mol]
  Total SAPT2                     -99.06558129 [mEh]     -62.16459079 [kcal/mol]    -260.09664785 [kJ/mol]
  Total SAPT2+                   -102.88159099 [mEh]     -64.55917302 [kcal/mol]    -270.11557994 [kJ/mol]

  Special recipe for scaled SAPT0 (see Manual):
    Electrostatics sSAPT0        -106.22192288 [mEh]     -66.65526293 [kcal/mol]    -278.88562009 [kJ/mol]
    Exchange sSAPT0                55.47305969 [mEh]      34.80987049 [kcal/mol]     145.64449814 [kJ/mol]
    Induction sSAPT0              -30.39166913 [mEh]     -19.07106031 [kcal/mol]     -79.79331632 [kJ/mol]
    Dispersion sSAPT0             -22.89150222 [mEh]     -14.36463451 [kcal/mol]     -60.10163079 [kJ/mol]
  Total sSAPT0                   -104.03203454 [mEh]     -65.28108725 [kcal/mol]    -273.13606906 [kJ/mol]
  --------------------------------------------------------------------------------------------------------

*** tstop() called on ddmfs1 at Sat Jan 13 21:59:51 2024
Module time:
	user time   =   23932.92 seconds =     398.88 minutes
	system time =     410.08 seconds =       6.83 minutes
	total time  =       5138 seconds =      85.63 minutes
Total time:
	user time   =   24583.97 seconds =     409.73 minutes
	system time =     441.99 seconds =       7.37 minutes
	total time  =       5179 seconds =      86.32 minutes

    Psi4 stopped on: Saturday, 13 January 2024 09:59PM
    Psi4 wall time for execution: 1:26:19.48

*** Psi4 exiting successfully. Buy a developer a beer!
