
    -----------------------------------------------------------------------
          Psi4: An Open-Source Ab Initio Electronic Structure Package
                               Psi4 1.8.2 release

                         Git: Rev {} zzzzzzz 


    D. G. A. Smith, L. A. Burns, A. C. Simmonett, R. M. Parrish,
    M. C. Schieber, R. Galvelis, P. Kraus, H. Kruse, R. Di Remigio,
    A. Alenaizan, A. M. James, S. Lehtola, J. P. Misiewicz, M. Scheurer,
    R. A. Shaw, J. B. Schriber, Y. Xie, Z. L. Glick, D. A. Sirianni,
    J. S. O'Brien, J. M. Waldrop, A. Kumar, E. G. Hohenstein,
    B. P. Pritchard, B. R. Brooks, H. F. Schaefer III, A. Yu. Sokolov,
    K. Patkowski, A. E. DePrince III, U. Bozkaya, R. A. King,
    F. A. Evangelista, J. M. Turney, T. D. Crawford, C. D. Sherrill,
    J. Chem. Phys. 152(18) 184108 (2020). https://doi.org/10.1063/5.0006002

                            Additional Code Authors
    E. T. Seidl, C. L. Janssen, E. F. Valeev, M. L. Leininger,
    J. F. Gonthier, R. M. Richard, H. R. McAlexander, M. Saitow, X. Wang,
    P. Verma, M. H. Lechner, A. Jiang, S. Behnle, A. G. Heide,
    M. F. Herbst, and D. L. Poole

             Previous Authors, Complete List of Code Contributors,
                       and Citations for Specific Modules
    https://github.com/psi4/psi4/blob/master/codemeta.json
    https://github.com/psi4/psi4/graphs/contributors
    http://psicode.org/psi4manual/master/introduction.html#citing-psifour

    -----------------------------------------------------------------------


    Psi4 started on: Friday, 12 January 2024 07:28PM

    Process ID: 281866
    Host:       ddmfs1
    PSIDATADIR: /ddmfs1b/softs/psi4conda/share/psi4
    Memory:     500.0 MiB
    Threads:    20
    
  ==> Input File <==

--------------------------------------------------------------------------
MEMORY 60 GB

molecule dimer {
-1 1
Cl     0.000000     0.000000     0.000000
--
0 1
O      1.697875     2.812156    -0.064854
H      1.661557     3.150216     0.885145
H      1.369173     1.911949    -0.005570
O      2.612789    -0.037192     1.821798
H      1.866734    -0.055376     1.210788
H      3.305740     0.353047     1.299827
O     -0.939614    -2.784060    -1.739328
H     -1.213754    -3.715577    -1.660327
H     -0.254384    -2.702145    -1.078967
O     -0.798589     1.117862     3.058410
H     -0.409022     0.795271     3.907486
H     -0.301269     0.718251     2.313142
O     -3.076715     0.941408     0.114922
H     -2.926424     0.271835    -0.596134
H     -2.124851     1.261653     0.395401

units ang
no_reorient
no_com
symmetry c1
}

set {
basis        aug-cc-pVTZ
scf_type     df
}

energy("sapt2+")
--------------------------------------------------------------------------

  Memory set to  55.879 GiB by Python driver.

Scratch directory: /ddmfs1a/scratch/
   => Loading Basis Set <=

    Name: AUG-CC-PVTZ
    Role: ORBITAL
    Keyword: BASIS
    atoms 1                            entry CL         line   988 file /ddmfs1b/softs/psi4conda/share/psi4/basis/aug-cc-pvtz.gbs 
    atoms 2, 5, 8, 11, 14              entry O          line   331 file /ddmfs1b/softs/psi4conda/share/psi4/basis/aug-cc-pvtz.gbs 
    atoms 3-4, 6-7, 9-10, 12-13, 15-16 entry H          line    40 file /ddmfs1b/softs/psi4conda/share/psi4/basis/aug-cc-pvtz.gbs 

   => Loading Basis Set <=

    Name: AUG-CC-PVTZ
    Role: ORBITAL
    Keyword: BASIS
    atoms 1                            entry CL         line   988 file /ddmfs1b/softs/psi4conda/share/psi4/basis/aug-cc-pvtz.gbs 
    atoms 2, 5, 8, 11, 14              entry O          line   331 file /ddmfs1b/softs/psi4conda/share/psi4/basis/aug-cc-pvtz.gbs 
    atoms 3-4, 6-7, 9-10, 12-13, 15-16 entry H          line    40 file /ddmfs1b/softs/psi4conda/share/psi4/basis/aug-cc-pvtz.gbs 


  //>>>>>>>>>>>>>>>>>>>>>>>>>>>>>>>>>>>//
  //              Dimer HF             //
  //<<<<<<<<<<<<<<<<<<<<<<<<<<<<<<<<<<<//

   => Libint2 <=

    Primary   basis highest AM E, G, H:  5, 4, 3
    Auxiliary basis highest AM E, G, H:  6, 5, 4
    Onebody   basis highest AM E, G, H:  6, 5, 4
    Solid Harmonics ordering:            gaussian

*** tstart() called on ddmfs1
*** at Fri Jan 12 19:28:02 2024

   => Loading Basis Set <=

    Name: AUG-CC-PVTZ
    Role: ORBITAL
    Keyword: BASIS
    atoms 1                            entry CL         line   988 file /ddmfs1b/softs/psi4conda/share/psi4/basis/aug-cc-pvtz.gbs 
    atoms 2, 5, 8, 11, 14              entry O          line   331 file /ddmfs1b/softs/psi4conda/share/psi4/basis/aug-cc-pvtz.gbs 
    atoms 3-4, 6-7, 9-10, 12-13, 15-16 entry H          line    40 file /ddmfs1b/softs/psi4conda/share/psi4/basis/aug-cc-pvtz.gbs 


         ---------------------------------------------------------
                                   SCF
               by Justin Turney, Rob Parrish, Andy Simmonett
                          and Daniel G. A. Smith
                              RHF Reference
                       20 Threads,  57220 MiB Core
         ---------------------------------------------------------

  ==> Geometry <==

    Molecular point group: c1
    Full point group: C1

    Geometry (in Angstrom), charge = -1, multiplicity = 1:

       Center              X                  Y                   Z               Mass       
    ------------   -----------------  -----------------  -----------------  -----------------
         CL           0.000000000000     0.000000000000     0.000000000000    34.968852682000
         O            1.697875000000     2.812156000000    -0.064854000000    15.994914619570
         H            1.661557000000     3.150216000000     0.885145000000     1.007825032230
         H            1.369173000000     1.911949000000    -0.005570000000     1.007825032230
         O            2.612789000000    -0.037192000000     1.821798000000    15.994914619570
         H            1.866734000000    -0.055376000000     1.210788000000     1.007825032230
         H            3.305740000000     0.353047000000     1.299827000000     1.007825032230
         O           -0.939614000000    -2.784060000000    -1.739328000000    15.994914619570
         H           -1.213754000000    -3.715577000000    -1.660327000000     1.007825032230
         H           -0.254384000000    -2.702145000000    -1.078967000000     1.007825032230
         O           -0.798589000000     1.117862000000     3.058410000000    15.994914619570
         H           -0.409022000000     0.795271000000     3.907486000000     1.007825032230
         H           -0.301269000000     0.718251000000     2.313142000000     1.007825032230
         O           -3.076715000000     0.941408000000     0.114922000000    15.994914619570
         H           -2.926424000000     0.271835000000    -0.596134000000     1.007825032230
         H           -2.124851000000     1.261653000000     0.395401000000     1.007825032230

  Running in c1 symmetry.

  Rotational constants: A =      0.03675  B =      0.02546  C =      0.02066 [cm^-1]
  Rotational constants: A =   1101.73223  B =    763.14337  C =    619.47243 [MHz]
  Nuclear repulsion =  298.703884430370806

  Charge       = -1
  Multiplicity = 1
  Electrons    = 68
  Nalpha       = 34
  Nbeta        = 34

  ==> Algorithm <==

  SCF Algorithm Type is DF.
  DIIS enabled.
  MOM disabled.
  Fractional occupation disabled.
  Guess Type is SAD.
  Energy threshold   = 1.00e-08
  Density threshold  = 1.00e-08
  Integral threshold = 1.00e-12

  ==> Primary Basis <==

  Basis Set: AUG-CC-PVTZ
    Blend: AUG-CC-PVTZ
    Number of shells: 176
    Number of basis functions: 510
    Number of Cartesian functions: 584
    Spherical Harmonics?: true
    Max angular momentum: 3

   => Loading Basis Set <=

    Name: (AUG-CC-PVTZ AUX)
    Role: JKFIT
    Keyword: DF_BASIS_SCF
    atoms 1                            entry CL         line   816 file /ddmfs1b/softs/psi4conda/share/psi4/basis/aug-cc-pvtz-jkfit.gbs 
    atoms 2, 5, 8, 11, 14              entry O          line   286 file /ddmfs1b/softs/psi4conda/share/psi4/basis/aug-cc-pvtz-jkfit.gbs 
    atoms 3-4, 6-7, 9-10, 12-13, 15-16 entry H          line    70 file /ddmfs1b/softs/psi4conda/share/psi4/basis/aug-cc-pvtz-jkfit.gbs 

  ==> Integral Setup <==

  ==> DiskDFJK: Density-Fitted J/K Matrices <==

    J tasked:                  Yes
    K tasked:                  Yes
    wK tasked:                  No
    OpenMP threads:             20
    Integrals threads:          20
    Memory [MiB]:            42915
    Algorithm:                Core
    Integral Cache:           SAVE
    Schwarz Cutoff:          1E-12
    Fitting Condition:       1E-10

   => Auxiliary Basis Set <=

  Basis Set: (AUG-CC-PVTZ AUX)
    Blend: AUG-CC-PVTZ-JKFIT
    Number of shells: 332
    Number of basis functions: 1126
    Number of Cartesian functions: 1385
    Spherical Harmonics?: true
    Max angular momentum: 4

  Minimum eigenvalue in the overlap matrix is 1.5856800010E-04.
  Reciprocal condition number of the overlap matrix is 1.3008200202E-05.
    Using symmetric orthogonalization.

  ==> Pre-Iterations <==

  SCF Guess: Superposition of Atomic Densities via on-the-fly atomic UHF (no occupation information).

   -------------------------
    Irrep   Nso     Nmo    
   -------------------------
     A        510     510 
   -------------------------
    Total     510     510
   -------------------------

  ==> Iterations <==

                           Total Energy        Delta E     RMS |[F,P]|

   @DF-RHF iter SAD:  -836.68150161955145   -8.36682e+02   0.00000e+00 
   @DF-RHF iter   1:  -839.47180066416695   -2.79030e+00   2.08289e-03 DIIS/ADIIS
   @DF-RHF iter   2:  -839.74624856712342   -2.74448e-01   1.42650e-03 DIIS/ADIIS
   @DF-RHF iter   3:  -839.91003795943675   -1.63789e-01   1.04475e-04 DIIS/ADIIS
   @DF-RHF iter   4:  -839.91229109675623   -2.25314e-03   3.71743e-05 DIIS
   @DF-RHF iter   5:  -839.91252384499523   -2.32748e-04   9.34682e-06 DIIS
   @DF-RHF iter   6:  -839.91254692937127   -2.30844e-05   3.36968e-06 DIIS
   @DF-RHF iter   7:  -839.91254947994946   -2.55058e-06   1.24640e-06 DIIS
   @DF-RHF iter   8:  -839.91254985015235   -3.70203e-07   3.00105e-07 DIIS
   @DF-RHF iter   9:  -839.91254988049968   -3.03473e-08   5.86272e-08 DIIS
   @DF-RHF iter  10:  -839.91254988154947   -1.04978e-09   2.03474e-08 DIIS
   @DF-RHF iter  11:  -839.91254988161586   -6.63931e-11   6.87109e-09 DIIS
  Energy and wave function converged.


  ==> Post-Iterations <==

    Orbital Energies [Eh]
    ---------------------

    Doubly Occupied:                                                      

       1A   -104.580525     2A    -20.447204     3A    -20.422701  
       4A    -20.421333     5A    -20.418703     6A    -20.405292  
       7A    -10.305697     8A     -7.771797     9A     -7.771756  
      10A     -7.771710    11A     -1.228747    12A     -1.210190  
      13A     -1.193004    14A     -1.192257    15A     -1.158281  
      16A     -0.823864    17A     -0.588576    18A     -0.572211  
      19A     -0.566150    20A     -0.556289    21A     -0.522200  
      22A     -0.464404    23A     -0.450220    24A     -0.436451  
      25A     -0.429661    26A     -0.411737    27A     -0.388518  
      28A     -0.369193    29A     -0.363063    30A     -0.359681  
      31A     -0.339399    32A     -0.237060    33A     -0.233995  
      34A     -0.232921  

    Virtual:                                                              

      35A      0.110242    36A      0.118086    37A      0.128058  
      38A      0.139126    39A      0.150165    40A      0.157496  
      41A      0.168485    42A      0.177009    43A      0.189815  
      44A      0.199430    45A      0.235294    46A      0.243183  
      47A      0.253307    48A      0.259542    49A      0.267003  
      50A      0.273521    51A      0.278651    52A      0.284045  
      53A      0.285634    54A      0.294743    55A      0.300729  
      56A      0.302818    57A      0.309753    58A      0.315231  
      59A      0.332494    60A      0.333321    61A      0.336882  
      62A      0.339355    63A      0.346329    64A      0.349232  
      65A      0.356307    66A      0.366624    67A      0.373584  
      68A      0.380665    69A      0.386704    70A      0.399686  
      71A      0.404703    72A      0.412498    73A      0.420076  
      74A      0.421867    75A      0.431703    76A      0.443591  
      77A      0.451522    78A      0.457227    79A      0.461808  
      80A      0.471060    81A      0.474295    82A      0.478778  
      83A      0.487849    84A      0.501716    85A      0.509573  
      86A      0.512388    87A      0.519376    88A      0.526666  
      89A      0.535333    90A      0.542911    91A      0.549860  
      92A      0.557952    93A      0.566363    94A      0.571916  
      95A      0.575349    96A      0.577884    97A      0.597685  
      98A      0.606521    99A      0.608839   100A      0.624818  
     101A      0.627757   102A      0.639693   103A      0.649058  
     104A      0.657729   105A      0.689322   106A      0.697737  
     107A      0.701657   108A      0.715736   109A      0.730227  
     110A      0.734084   111A      0.742413   112A      0.757346  
     113A      0.769211   114A      0.784643   115A      0.798446  
     116A      0.813637   117A      0.818966   118A      0.825635  
     119A      0.837542   120A      0.843363   121A      0.846103  
     122A      0.858655   123A      0.868351   124A      0.869842  
     125A      0.878752   126A      0.883401   127A      0.885472  
     128A      0.894152   129A      0.899239   130A      0.904379  
     131A      0.915303   132A      0.919999   133A      0.923361  
     134A      0.934399   135A      0.938126   136A      0.954477  
     137A      0.968428   138A      0.970852   139A      0.978297  
     140A      0.992373   141A      1.002494   142A      1.008525  
     143A      1.016189   144A      1.018968   145A      1.031129  
     146A      1.034682   147A      1.042271   148A      1.046817  
     149A      1.050642   150A      1.054555   151A      1.060343  
     152A      1.072032   153A      1.078883   154A      1.089396  
     155A      1.092787   156A      1.099060   157A      1.105607  
     158A      1.110578   159A      1.113613   160A      1.114597  
     161A      1.120961   162A      1.126140   163A      1.136384  
     164A      1.146593   165A      1.154776   166A      1.157229  
     167A      1.162887   168A      1.165258   169A      1.172032  
     170A      1.176469   171A      1.188628   172A      1.193252  
     173A      1.196943   174A      1.197773   175A      1.210641  
     176A      1.219133   177A      1.223767   178A      1.234057  
     179A      1.247876   180A      1.252192   181A      1.259913  
     182A      1.263403   183A      1.271382   184A      1.275213  
     185A      1.291750   186A      1.302933   187A      1.307774  
     188A      1.313221   189A      1.324563   190A      1.329073  
     191A      1.339365   192A      1.355063   193A      1.360933  
     194A      1.374597   195A      1.393291   196A      1.402014  
     197A      1.404501   198A      1.408388   199A      1.428943  
     200A      1.437041   201A      1.448231   202A      1.461350  
     203A      1.472213   204A      1.475244   205A      1.483460  
     206A      1.492344   207A      1.495267   208A      1.518780  
     209A      1.521416   210A      1.531670   211A      1.561806  
     212A      1.577645   213A      1.590683   214A      1.602533  
     215A      1.626552   216A      1.633210   217A      1.646022  
     218A      1.653377   219A      1.656603   220A      1.681182  
     221A      1.685099   222A      1.702240   223A      1.713624  
     224A      1.730260   225A      1.733070   226A      1.747535  
     227A      1.757515   228A      1.767948   229A      1.771936  
     230A      1.800021   231A      1.805663   232A      1.823808  
     233A      1.839269   234A      1.853949   235A      1.859731  
     236A      1.881725   237A      1.892883   238A      1.910641  
     239A      1.924459   240A      1.940733   241A      1.963987  
     242A      1.973635   243A      1.989187   244A      2.010600  
     245A      2.025750   246A      2.044168   247A      2.053577  
     248A      2.073338   249A      2.089672   250A      2.095170  
     251A      2.119202   252A      2.136274   253A      2.145605  
     254A      2.150139   255A      2.162850   256A      2.194771  
     257A      2.217836   258A      2.281833   259A      2.284684  
     260A      2.292721   261A      2.349838   262A      2.426073  
     263A      2.446922   264A      2.458130   265A      2.462881  
     266A      2.505678   267A      2.511231   268A      2.521139  
     269A      2.525883   270A      2.537920   271A      2.556387  
     272A      2.564274   273A      2.572461   274A      2.581513  
     275A      2.587519   276A      2.594104   277A      2.601520  
     278A      2.602914   279A      2.607105   280A      2.616913  
     281A      2.627690   282A      2.632222   283A      2.641485  
     284A      2.645925   285A      2.657852   286A      2.676159  
     287A      2.685400   288A      2.689767   289A      2.703533  
     290A      2.708652   291A      2.727172   292A      2.744946  
     293A      2.754998   294A      2.779326   295A      2.791539  
     296A      2.796531   297A      2.817442   298A      2.824398  
     299A      2.843291   300A      2.870070   301A      2.882436  
     302A      2.891147   303A      2.894914   304A      2.909119  
     305A      2.923437   306A      2.930741   307A      2.941596  
     308A      2.951246   309A      2.963395   310A      2.970091  
     311A      2.977376   312A      2.983930   313A      3.009493  
     314A      3.015018   315A      3.026184   316A      3.031848  
     317A      3.050007   318A      3.055909   319A      3.087438  
     320A      3.113586   321A      3.120342   322A      3.141438  
     323A      3.154562   324A      3.156599   325A      3.190648  
     326A      3.210516   327A      3.228776   328A      3.255265  
     329A      3.307614   330A      3.435026   331A      3.445681  
     332A      3.473311   333A      3.538660   334A      3.602342  
     335A      3.644037   336A      3.681107   337A      3.720954  
     338A      3.779639   339A      3.794903   340A      3.819251  
     341A      3.835902   342A      3.852014   343A      3.893541  
     344A      3.921493   345A      3.959088   346A      3.986440  
     347A      4.097150   348A      4.133180   349A      4.188885  
     350A      4.200897   351A      4.218502   352A      4.224122  
     353A      4.230552   354A      4.257673   355A      4.289959  
     356A      4.311419   357A      4.342067   358A      4.364776  
     359A      4.375966   360A      4.381670   361A      4.400162  
     362A      4.403157   363A      4.416246   364A      4.422684  
     365A      4.435403   366A      4.440373   367A      4.443760  
     368A      4.464111   369A      4.477863   370A      4.484188  
     371A      4.501928   372A      4.517079   373A      4.521941  
     374A      4.529239   375A      4.544962   376A      4.550402  
     377A      4.555158   378A      4.560608   379A      4.569784  
     380A      4.578081   381A      4.588976   382A      4.598847  
     383A      4.608782   384A      4.618606   385A      4.647252  
     386A      4.664985   387A      4.675990   388A      4.683506  
     389A      4.697872   390A      4.712626   391A      4.748482  
     392A      4.767245   393A      4.796587   394A      4.800721  
     395A      4.866400   396A      4.876532   397A      4.886592  
     398A      4.913611   399A      4.944012   400A      4.984767  
     401A      4.993050   402A      5.041632   403A      5.091944  
     404A      5.150917   405A      5.178960   406A      5.196023  
     407A      5.246308   408A      5.262599   409A      5.265634  
     410A      5.278179   411A      5.291627   412A      5.300156  
     413A      5.347570   414A      5.365959   415A      5.378580  
     416A      5.391506   417A      5.418513   418A      5.446220  
     419A      5.467712   420A      5.479152   421A      5.483317  
     422A      5.517951   423A      5.538965   424A      5.545464  
     425A      5.593489   426A      5.605014   427A      5.644221  
     428A      5.658610   429A      5.730025   430A      5.794687  
     431A      5.820140   432A      5.853811   433A      5.870549  
     434A      5.914243   435A      6.321211   436A      6.339176  
     437A      6.346191   438A      6.392545   439A      6.475187  
     440A      6.661268   441A      6.698370   442A      6.709363  
     443A      6.735873   444A      6.759426   445A      6.878743  
     446A      6.930218   447A      6.948134   448A      6.952928  
     449A      6.990518   450A      7.020019   451A      7.034975  
     452A      7.045530   453A      7.080222   454A      7.134382  
     455A      7.235244   456A      7.258314   457A      7.262930  
     458A      7.285818   459A      7.313191   460A      7.355029  
     461A      7.388456   462A      7.395649   463A      7.405983  
     464A      7.413657   465A      7.419021   466A      7.439106  
     467A      7.448212   468A      7.459622   469A      7.460657  
     470A      7.473711   471A      7.477365   472A      7.485383  
     473A      7.497612   474A      7.499638   475A      7.507360  
     476A      7.512472   477A      7.524005   478A      7.533735  
     479A      7.556368   480A      7.558304   481A      7.580310  
     482A      7.617652   483A      7.638875   484A      7.654355  
     485A      7.658291   486A      7.692903   487A      7.707816  
     488A      7.835950   489A      7.884922   490A      7.942427  
     491A      8.014015   492A      8.019092   493A      8.044145  
     494A      8.063970   495A      8.066758   496A      8.084156  
     497A      8.119463   498A      8.155987   499A      8.171582  
     500A      8.201572   501A      8.680766   502A      8.827956  
     503A      8.854957   504A      8.928095   505A      9.042642  
     506A     14.688372   507A     15.778581   508A     15.877098  
     509A     16.314296   510A     16.991198  

    Final Occupation by Irrep:
              A 
    DOCC [    34 ]
    NA   [    34 ]
    NB   [    34 ]

  @DF-RHF Final Energy:  -839.91254988161586

   => Energetics <=

    Nuclear Repulsion Energy =            298.7038844303708061
    One-Electron Energy =               -1767.9432794857154931
    Two-Electron Energy =                 629.3268451737287705
    Total Energy =                       -839.9125498816158597

Computation Completed


Properties will be evaluated at   0.000000,   0.000000,   0.000000 [a0]

Properties computed using the SCF density matrix


 Multipole Moments:

 ------------------------------------------------------------------------------------
     Multipole            Electronic (a.u.)      Nuclear  (a.u.)        Total (a.u.)
 ------------------------------------------------------------------------------------

 L = 1.  Multiply by 2.5417464519 to convert [e a0] to [Debye]
 Dipole X            :          6.8405220           -5.7835673            1.0569547
 Dipole Y            :        -36.4827040           34.7530385           -1.7296654
 Dipole Z            :        -61.1528169           60.8461104           -0.3067064
 Magnitude           :                                                    2.0501133

 ------------------------------------------------------------------------------------

*** tstop() called on ddmfs1 at Fri Jan 12 19:28:13 2024
Module time:
	user time   =     171.86 seconds =       2.86 minutes
	system time =      16.48 seconds =       0.27 minutes
	total time  =         11 seconds =       0.18 minutes
Total time:
	user time   =     171.86 seconds =       2.86 minutes
	system time =      16.48 seconds =       0.27 minutes
	total time  =         11 seconds =       0.18 minutes

  //>>>>>>>>>>>>>>>>>>>>>>>>>>>>>>>>>>>//
  //            Monomer A HF           //
  //<<<<<<<<<<<<<<<<<<<<<<<<<<<<<<<<<<<//

   => Libint2 <=

    Primary   basis highest AM E, G, H:  5, 4, 3
    Auxiliary basis highest AM E, G, H:  6, 5, 4
    Onebody   basis highest AM E, G, H:  6, 5, 4
    Solid Harmonics ordering:            gaussian

*** tstart() called on ddmfs1
*** at Fri Jan 12 19:28:13 2024

   => Loading Basis Set <=

    Name: AUG-CC-PVTZ
    Role: ORBITAL
    Keyword: BASIS
    atoms 1                            entry CL         line   988 file /ddmfs1b/softs/psi4conda/share/psi4/basis/aug-cc-pvtz.gbs 
    atoms 2, 5, 8, 11, 14              entry O          line   331 file /ddmfs1b/softs/psi4conda/share/psi4/basis/aug-cc-pvtz.gbs 
    atoms 3-4, 6-7, 9-10, 12-13, 15-16 entry H          line    40 file /ddmfs1b/softs/psi4conda/share/psi4/basis/aug-cc-pvtz.gbs 


         ---------------------------------------------------------
                                   SCF
               by Justin Turney, Rob Parrish, Andy Simmonett
                          and Daniel G. A. Smith
                              RHF Reference
                       20 Threads,  57220 MiB Core
         ---------------------------------------------------------

  ==> Geometry <==

    Molecular point group: c1
    Full point group: C1

    Geometry (in Angstrom), charge = -1, multiplicity = 1:

       Center              X                  Y                   Z               Mass       
    ------------   -----------------  -----------------  -----------------  -----------------
         CL           0.000000000000     0.000000000000     0.000000000000    34.968852682000
      Gh(O)           1.697875000000     2.812156000000    -0.064854000000    15.994914619570
      Gh(H)           1.661557000000     3.150216000000     0.885145000000     1.007825032230
      Gh(H)           1.369173000000     1.911949000000    -0.005570000000     1.007825032230
      Gh(O)           2.612789000000    -0.037192000000     1.821798000000    15.994914619570
      Gh(H)           1.866734000000    -0.055376000000     1.210788000000     1.007825032230
      Gh(H)           3.305740000000     0.353047000000     1.299827000000     1.007825032230
      Gh(O)          -0.939614000000    -2.784060000000    -1.739328000000    15.994914619570
      Gh(H)          -1.213754000000    -3.715577000000    -1.660327000000     1.007825032230
      Gh(H)          -0.254384000000    -2.702145000000    -1.078967000000     1.007825032230
      Gh(O)          -0.798589000000     1.117862000000     3.058410000000    15.994914619570
      Gh(H)          -0.409022000000     0.795271000000     3.907486000000     1.007825032230
      Gh(H)          -0.301269000000     0.718251000000     2.313142000000     1.007825032230
      Gh(O)          -3.076715000000     0.941408000000     0.114922000000    15.994914619570
      Gh(H)          -2.926424000000     0.271835000000    -0.596134000000     1.007825032230
      Gh(H)          -2.124851000000     1.261653000000     0.395401000000     1.007825032230

  Running in c1 symmetry.

  Rotational constants: A =      0.03675  B =      0.02546  C =      0.02066 [cm^-1]
  Rotational constants: A =   1101.73223  B =    763.14337  C =    619.47243 [MHz]
  Nuclear repulsion =    0.000000000000000

  Charge       = -1
  Multiplicity = 1
  Electrons    = 18
  Nalpha       = 9
  Nbeta        = 9

  ==> Algorithm <==

  SCF Algorithm Type is DF.
  DIIS enabled.
  MOM disabled.
  Fractional occupation disabled.
  Guess Type is SAD.
  Energy threshold   = 1.00e-08
  Density threshold  = 1.00e-08
  Integral threshold = 1.00e-12

  ==> Primary Basis <==

  Basis Set: AUG-CC-PVTZ
    Blend: AUG-CC-PVTZ
    Number of shells: 176
    Number of basis functions: 510
    Number of Cartesian functions: 584
    Spherical Harmonics?: true
    Max angular momentum: 3

   => Loading Basis Set <=

    Name: (AUG-CC-PVTZ AUX)
    Role: JKFIT
    Keyword: DF_BASIS_SCF
    atoms 1                            entry CL         line   816 file /ddmfs1b/softs/psi4conda/share/psi4/basis/aug-cc-pvtz-jkfit.gbs 
    atoms 2, 5, 8, 11, 14              entry O          line   286 file /ddmfs1b/softs/psi4conda/share/psi4/basis/aug-cc-pvtz-jkfit.gbs 
    atoms 3-4, 6-7, 9-10, 12-13, 15-16 entry H          line    70 file /ddmfs1b/softs/psi4conda/share/psi4/basis/aug-cc-pvtz-jkfit.gbs 

  ==> Integral Setup <==

  ==> DiskDFJK: Density-Fitted J/K Matrices <==

    J tasked:                  Yes
    K tasked:                  Yes
    wK tasked:                  No
    OpenMP threads:             20
    Integrals threads:          20
    Memory [MiB]:            42915
    Algorithm:                Core
    Integral Cache:           LOAD
    Schwarz Cutoff:          1E-12
    Fitting Condition:       1E-10

   => Auxiliary Basis Set <=

  Basis Set: (AUG-CC-PVTZ AUX)
    Blend: AUG-CC-PVTZ-JKFIT
    Number of shells: 332
    Number of basis functions: 1126
    Number of Cartesian functions: 1385
    Spherical Harmonics?: true
    Max angular momentum: 4

  Minimum eigenvalue in the overlap matrix is 1.5856800010E-04.
  Reciprocal condition number of the overlap matrix is 1.3008200202E-05.
    Using symmetric orthogonalization.

  ==> Pre-Iterations <==

  SCF Guess: Superposition of Atomic Densities via on-the-fly atomic UHF (no occupation information).

   -------------------------
    Irrep   Nso     Nmo    
   -------------------------
     A        510     510 
   -------------------------
    Total     510     510
   -------------------------

  ==> Iterations <==

                           Total Energy        Delta E     RMS |[F,P]|

   @DF-RHF iter SAD:  -459.11248998670982   -4.59112e+02   0.00000e+00 
   @DF-RHF iter   1:  -459.51389447897287   -4.01404e-01   5.85773e-04 DIIS/ADIIS
   @DF-RHF iter   2:  -459.56480763351345   -5.09132e-02   3.00232e-04 DIIS/ADIIS
   @DF-RHF iter   3:  -459.57350699834478   -8.69936e-03   2.09718e-05 DIIS
   @DF-RHF iter   4:  -459.57356476741001   -5.77691e-05   4.10663e-06 DIIS
   @DF-RHF iter   5:  -459.57356839078926   -3.62338e-06   4.21841e-07 DIIS
   @DF-RHF iter   6:  -459.57356847386808   -8.30788e-08   3.82627e-08 DIIS
   @DF-RHF iter   7:  -459.57356847489825   -1.03017e-09   4.46341e-09 DIIS
  Energy and wave function converged.


  ==> Post-Iterations <==

    Orbital Energies [Eh]
    ---------------------

    Doubly Occupied:                                                      

       1A   -104.507142     2A    -10.230030     3A     -7.696101  
       4A     -7.696087     5A     -7.696068     6A     -0.733469  
       7A     -0.150314     8A     -0.150308     9A     -0.150301  

    Virtual:                                                              

      10A      0.117140    11A      0.121035    12A      0.129991  
      13A      0.137772    14A      0.144724    15A      0.162366  
      16A      0.164834    17A      0.172749    18A      0.186200  
      19A      0.194053    20A      0.222149    21A      0.242833  
      22A      0.247908    23A      0.254034    24A      0.255674  
      25A      0.260316    26A      0.263608    27A      0.270290  
      28A      0.272339    29A      0.279071    30A      0.286063  
      31A      0.287758    32A      0.298413    33A      0.310788  
      34A      0.312543    35A      0.317676    36A      0.331097  
      37A      0.341404    38A      0.345112    39A      0.350637  
      40A      0.351148    41A      0.359740    42A      0.376709  
      43A      0.397309    44A      0.409427    45A      0.418211  
      46A      0.425298    47A      0.437538    48A      0.440394  
      49A      0.442115    50A      0.451816    51A      0.455542  
      52A      0.464322    53A      0.468436    54A      0.475255  
      55A      0.479541    56A      0.483946    57A      0.493842  
      58A      0.500161    59A      0.501886    60A      0.510716  
      61A      0.512341    62A      0.518222    63A      0.523364  
      64A      0.536618    65A      0.543154    66A      0.545775  
      67A      0.548288    68A      0.554927    69A      0.563395  
      70A      0.570527    71A      0.576973    72A      0.585293  
      73A      0.601863    74A      0.616589    75A      0.625375  
      76A      0.634982    77A      0.648509    78A      0.661007  
      79A      0.685132    80A      0.691870    81A      0.704532  
      82A      0.711918    83A      0.727096    84A      0.761250  
      85A      0.772540    86A      0.779756    87A      0.788250  
      88A      0.794086    89A      0.812696    90A      0.822025  
      91A      0.834508    92A      0.843937    93A      0.857055  
      94A      0.860656    95A      0.867686    96A      0.890036  
      97A      0.904847    98A      0.915794    99A      0.926480  
     100A      0.928270   101A      0.930247   102A      0.943785  
     103A      0.946092   104A      0.947439   105A      0.955210  
     106A      0.956018   107A      0.959548   108A      0.968322  
     109A      0.973044   110A      0.978422   111A      0.986711  
     112A      0.995867   113A      1.000312   114A      1.001242  
     115A      1.007824   116A      1.012368   117A      1.019298  
     118A      1.025870   119A      1.035126   120A      1.036501  
     121A      1.045211   122A      1.051950   123A      1.058863  
     124A      1.063998   125A      1.071352   126A      1.072801  
     127A      1.081011   128A      1.085726   129A      1.095249  
     130A      1.098729   131A      1.107870   132A      1.110323  
     133A      1.118998   134A      1.127065   135A      1.134200  
     136A      1.137818   137A      1.148539   138A      1.152584  
     139A      1.157015   140A      1.168089   141A      1.169067  
     142A      1.178328   143A      1.181728   144A      1.185552  
     145A      1.196833   146A      1.200266   147A      1.208356  
     148A      1.217283   149A      1.229292   150A      1.233379  
     151A      1.243326   152A      1.244813   153A      1.258630  
     154A      1.275430   155A      1.280374   156A      1.286133  
     157A      1.288999   158A      1.297055   159A      1.310545  
     160A      1.320659   161A      1.339623   162A      1.342215  
     163A      1.349232   164A      1.367478   165A      1.376388  
     166A      1.382394   167A      1.401461   168A      1.412466  
     169A      1.413826   170A      1.426164   171A      1.439066  
     172A      1.446274   173A      1.456020   174A      1.464465  
     175A      1.465848   176A      1.485562   177A      1.499422  
     178A      1.518457   179A      1.528563   180A      1.543495  
     181A      1.564255   182A      1.574673   183A      1.585533  
     184A      1.590996   185A      1.604197   186A      1.623153  
     187A      1.633886   188A      1.645362   189A      1.653175  
     190A      1.654600   191A      1.680596   192A      1.693956  
     193A      1.714694   194A      1.729861   195A      1.741279  
     196A      1.780674   197A      1.789587   198A      1.809671  
     199A      1.816653   200A      1.844640   201A      1.855956  
     202A      1.865293   203A      1.871786   204A      1.893802  
     205A      1.897893   206A      1.911560   207A      1.921055  
     208A      1.927734   209A      1.932248   210A      1.939550  
     211A      1.955904   212A      1.959365   213A      1.967525  
     214A      1.977536   215A      1.984876   216A      1.993002  
     217A      2.002138   218A      2.020845   219A      2.026789  
     220A      2.035429   221A      2.051380   222A      2.069253  
     223A      2.078213   224A      2.088249   225A      2.089273  
     226A      2.105058   227A      2.122100   228A      2.140280  
     229A      2.162129   230A      2.196411   231A      2.203200  
     232A      2.222616   233A      2.232544   234A      2.275909  
     235A      2.292999   236A      2.321767   237A      2.342574  
     238A      2.389523   239A      2.415586   240A      2.551734  
     241A      2.573737   242A      2.600343   243A      2.616301  
     244A      2.632512   245A      2.646310   246A      2.664664  
     247A      2.666754   248A      2.674302   249A      2.677718  
     250A      2.685771   251A      2.689022   252A      2.698789  
     253A      2.711523   254A      2.722891   255A      2.739475  
     256A      2.749517   257A      2.759963   258A      2.767163  
     259A      2.779924   260A      2.787528   261A      2.790151  
     262A      2.799008   263A      2.811717   264A      2.820036  
     265A      2.826299   266A      2.841239   267A      2.845380  
     268A      2.849943   269A      2.864742   270A      2.869859  
     271A      2.873922   272A      2.898109   273A      2.912401  
     274A      2.935459   275A      2.938301   276A      2.962482  
     277A      3.007471   278A      3.028048   279A      3.041495  
     280A      3.061562   281A      3.071600   282A      3.092717  
     283A      3.125970   284A      3.137517   285A      3.147764  
     286A      3.160177   287A      3.185352   288A      3.218990  
     289A      3.295647   290A      3.307917   291A      3.321775  
     292A      3.325539   293A      3.330281   294A      3.333145  
     295A      3.352740   296A      3.360912   297A      3.367903  
     298A      3.379917   299A      3.393997   300A      3.412795  
     301A      3.422649   302A      3.428066   303A      3.432768  
     304A      3.461166   305A      3.471316   306A      3.490920  
     307A      3.502778   308A      3.529594   309A      3.539790  
     310A      3.555471   311A      3.592245   312A      3.604254  
     313A      3.615167   314A      3.657947   315A      3.673437  
     316A      3.678181   317A      3.690205   318A      3.704155  
     319A      3.738368   320A      3.748924   321A      3.759887  
     322A      3.774699   323A      3.784884   324A      3.800832  
     325A      3.844214   326A      3.851547   327A      3.875208  
     328A      3.911093   329A      3.919231   330A      3.929837  
     331A      3.973547   332A      4.026390   333A      4.078982  
     334A      4.103819   335A      4.541406   336A      4.544665  
     337A      4.563030   338A      4.572131   339A      4.582659  
     340A      4.593789   341A      4.620525   342A      4.636389  
     343A      4.644175   344A      4.650369   345A      4.660046  
     346A      4.699644   347A      4.742231   348A      4.758709  
     349A      4.759793   350A      4.768309   351A      4.787183  
     352A      4.811365   353A      4.814484   354A      4.832393  
     355A      4.837179   356A      4.852233   357A      4.863253  
     358A      4.871694   359A      4.876962   360A      4.917727  
     361A      4.949871   362A      5.018966   363A      5.036779  
     364A      5.041287   365A      5.054095   366A      5.056999  
     367A      5.065011   368A      5.076576   369A      5.084282  
     370A      5.098214   371A      5.106513   372A      5.130534  
     373A      5.170541   374A      5.178515   375A      5.201470  
     376A      5.206796   377A      5.259054   378A      5.302769  
     379A      5.318864   380A      5.387308   381A      5.414218  
     382A      5.417757   383A      5.455622   384A      5.492152  
     385A      5.529478   386A      5.606044   387A      5.621384  
     388A      5.635376   389A      5.659701   390A      5.703407  
     391A      5.706410   392A      5.727169   393A      5.728565  
     394A      5.795271   395A      5.799030   396A      5.825230  
     397A      5.842707   398A      5.873947   399A      5.901205  
     400A      5.907597   401A      5.966068   402A      5.986612  
     403A      6.011580   404A      6.131692   405A      6.272204  
     406A      6.303647   407A      6.325461   408A      6.344669  
     409A      6.368139   410A      6.414831   411A      6.517081  
     412A      6.533482   413A      6.568295   414A      6.630799  
     415A      6.659147   416A      6.720557   417A      6.761576  
     418A      6.873514   419A      6.898797   420A      7.025625  
     421A      7.174796   422A      7.207414   423A      7.231057  
     424A      7.307717   425A      7.479252   426A      7.858219  
     427A      7.882439   428A      7.888793   429A      7.899624  
     430A      7.940472   431A      7.950879   432A      7.963335  
     433A      7.985189   434A      8.009932   435A      8.060555  
     436A      8.178612   437A      8.196059   438A      8.199776  
     439A      8.224860   440A      8.297218   441A      8.297675  
     442A      8.319423   443A      8.338061   444A      8.353134  
     445A      8.377730   446A      8.388979   447A      8.401510  
     448A      8.441333   449A      8.445881   450A      8.508329  
     451A      8.697401   452A      8.777708   453A      8.853654  
     454A      8.858027   455A      8.890611   456A      8.978096  
     457A      9.011808   458A      9.036211   459A      9.128617  
     460A      9.222247   461A      9.778733   462A      9.815796  
     463A      9.847388   464A      9.875192   465A      9.945808  
     466A     10.012517   467A     10.025220   468A     10.032465  
     469A     10.056854   470A     10.098114   471A     10.159763  
     472A     10.208347   473A     10.234730   474A     10.252800  
     475A     10.267154   476A     10.399274   477A     10.411413  
     478A     10.469195   479A     10.494182   480A     10.506356  
     481A     11.016432   482A     11.194664   483A     11.215087  
     484A     11.360534   485A     11.456439   486A     11.752892  
     487A     11.773815   488A     11.782625   489A     11.853418  
     490A     11.936825   491A     11.979707   492A     12.081968  
     493A     12.206554   494A     12.235705   495A     12.426339  
     496A     13.444837   497A     13.631202   498A     13.657295  
     499A     13.681069   500A     13.905876   501A     13.968171  
     502A     14.071000   503A     14.148791   504A     14.169668  
     505A     14.191552   506A     62.580347   507A     64.690207  
     508A     64.718816   509A     65.875956   510A     67.082969  

    Final Occupation by Irrep:
              A 
    DOCC [     9 ]
    NA   [     9 ]
    NB   [     9 ]

  @DF-RHF Final Energy:  -459.57356847489825

   => Energetics <=

    Nuclear Repulsion Energy =              0.0000000000000000
    One-Electron Energy =                -641.1275094454414329
    Two-Electron Energy =                 181.5539409705431808
    Total Energy =                       -459.5735684748982521

Computation Completed


Properties will be evaluated at   0.000000,   0.000000,   0.000000 [a0]

Properties computed using the SCF density matrix


 Multipole Moments:

 ------------------------------------------------------------------------------------
     Multipole            Electronic (a.u.)      Nuclear  (a.u.)        Total (a.u.)
 ------------------------------------------------------------------------------------

 L = 1.  Multiply by 2.5417464519 to convert [e a0] to [Debye]
 Dipole X            :          0.0000983            0.0000000            0.0000983
 Dipole Y            :          0.0000941            0.0000000            0.0000941
 Dipole Z            :          0.0001928            0.0000000            0.0001928
 Magnitude           :                                                    0.0002360

 ------------------------------------------------------------------------------------

*** tstop() called on ddmfs1 at Fri Jan 12 19:28:20 2024
Module time:
	user time   =      96.55 seconds =       1.61 minutes
	system time =       3.04 seconds =       0.05 minutes
	total time  =          7 seconds =       0.12 minutes
Total time:
	user time   =     268.52 seconds =       4.48 minutes
	system time =      19.53 seconds =       0.33 minutes
	total time  =         18 seconds =       0.30 minutes

  //>>>>>>>>>>>>>>>>>>>>>>>>>>>>>>>>>>>//
  //            Monomer B HF           //
  //<<<<<<<<<<<<<<<<<<<<<<<<<<<<<<<<<<<//

   => Libint2 <=

    Primary   basis highest AM E, G, H:  5, 4, 3
    Auxiliary basis highest AM E, G, H:  6, 5, 4
    Onebody   basis highest AM E, G, H:  6, 5, 4
    Solid Harmonics ordering:            gaussian

*** tstart() called on ddmfs1
*** at Fri Jan 12 19:28:20 2024

   => Loading Basis Set <=

    Name: AUG-CC-PVTZ
    Role: ORBITAL
    Keyword: BASIS
    atoms 1                            entry CL         line   988 file /ddmfs1b/softs/psi4conda/share/psi4/basis/aug-cc-pvtz.gbs 
    atoms 2, 5, 8, 11, 14              entry O          line   331 file /ddmfs1b/softs/psi4conda/share/psi4/basis/aug-cc-pvtz.gbs 
    atoms 3-4, 6-7, 9-10, 12-13, 15-16 entry H          line    40 file /ddmfs1b/softs/psi4conda/share/psi4/basis/aug-cc-pvtz.gbs 


         ---------------------------------------------------------
                                   SCF
               by Justin Turney, Rob Parrish, Andy Simmonett
                          and Daniel G. A. Smith
                              RHF Reference
                       20 Threads,  57220 MiB Core
         ---------------------------------------------------------

  ==> Geometry <==

    Molecular point group: c1
    Full point group: C1

    Geometry (in Angstrom), charge = 0, multiplicity = 1:

       Center              X                  Y                   Z               Mass       
    ------------   -----------------  -----------------  -----------------  -----------------
      Gh(CL)          0.000000000000     0.000000000000     0.000000000000    34.968852682000
         O            1.697875000000     2.812156000000    -0.064854000000    15.994914619570
         H            1.661557000000     3.150216000000     0.885145000000     1.007825032230
         H            1.369173000000     1.911949000000    -0.005570000000     1.007825032230
         O            2.612789000000    -0.037192000000     1.821798000000    15.994914619570
         H            1.866734000000    -0.055376000000     1.210788000000     1.007825032230
         H            3.305740000000     0.353047000000     1.299827000000     1.007825032230
         O           -0.939614000000    -2.784060000000    -1.739328000000    15.994914619570
         H           -1.213754000000    -3.715577000000    -1.660327000000     1.007825032230
         H           -0.254384000000    -2.702145000000    -1.078967000000     1.007825032230
         O           -0.798589000000     1.117862000000     3.058410000000    15.994914619570
         H           -0.409022000000     0.795271000000     3.907486000000     1.007825032230
         H           -0.301269000000     0.718251000000     2.313142000000     1.007825032230
         O           -3.076715000000     0.941408000000     0.114922000000    15.994914619570
         H           -2.926424000000     0.271835000000    -0.596134000000     1.007825032230
         H           -2.124851000000     1.261653000000     0.395401000000     1.007825032230

  Running in c1 symmetry.

  Rotational constants: A =      0.03675  B =      0.02546  C =      0.02066 [cm^-1]
  Rotational constants: A =   1101.73223  B =    763.14337  C =    619.47243 [MHz]
  Nuclear repulsion =  158.750051290411363

  Charge       = 0
  Multiplicity = 1
  Electrons    = 50
  Nalpha       = 25
  Nbeta        = 25

  ==> Algorithm <==

  SCF Algorithm Type is DF.
  DIIS enabled.
  MOM disabled.
  Fractional occupation disabled.
  Guess Type is SAD.
  Energy threshold   = 1.00e-08
  Density threshold  = 1.00e-08
  Integral threshold = 1.00e-12

  ==> Primary Basis <==

  Basis Set: AUG-CC-PVTZ
    Blend: AUG-CC-PVTZ
    Number of shells: 176
    Number of basis functions: 510
    Number of Cartesian functions: 584
    Spherical Harmonics?: true
    Max angular momentum: 3

   => Loading Basis Set <=

    Name: (AUG-CC-PVTZ AUX)
    Role: JKFIT
    Keyword: DF_BASIS_SCF
    atoms 1                            entry CL         line   816 file /ddmfs1b/softs/psi4conda/share/psi4/basis/aug-cc-pvtz-jkfit.gbs 
    atoms 2, 5, 8, 11, 14              entry O          line   286 file /ddmfs1b/softs/psi4conda/share/psi4/basis/aug-cc-pvtz-jkfit.gbs 
    atoms 3-4, 6-7, 9-10, 12-13, 15-16 entry H          line    70 file /ddmfs1b/softs/psi4conda/share/psi4/basis/aug-cc-pvtz-jkfit.gbs 

  ==> Integral Setup <==

  ==> DiskDFJK: Density-Fitted J/K Matrices <==

    J tasked:                  Yes
    K tasked:                  Yes
    wK tasked:                  No
    OpenMP threads:             20
    Integrals threads:          20
    Memory [MiB]:            42915
    Algorithm:                Core
    Integral Cache:           LOAD
    Schwarz Cutoff:          1E-12
    Fitting Condition:       1E-10

   => Auxiliary Basis Set <=

  Basis Set: (AUG-CC-PVTZ AUX)
    Blend: AUG-CC-PVTZ-JKFIT
    Number of shells: 332
    Number of basis functions: 1126
    Number of Cartesian functions: 1385
    Spherical Harmonics?: true
    Max angular momentum: 4

  Minimum eigenvalue in the overlap matrix is 1.5856800010E-04.
  Reciprocal condition number of the overlap matrix is 1.3008200202E-05.
    Using symmetric orthogonalization.

  ==> Pre-Iterations <==

  SCF Guess: Superposition of Atomic Densities via on-the-fly atomic UHF (no occupation information).

   -------------------------
    Irrep   Nso     Nmo    
   -------------------------
     A        510     510 
   -------------------------
    Total     510     510
   -------------------------

  ==> Iterations <==

                           Total Energy        Delta E     RMS |[F,P]|

   @DF-RHF iter SAD:  -377.32277675360513   -3.77323e+02   0.00000e+00 
   @DF-RHF iter   1:  -379.85489463307920   -2.53212e+00   2.03747e-03 DIIS/ADIIS
   @DF-RHF iter   2:  -380.11305111347235   -2.58156e-01   1.41925e-03 DIIS/ADIIS
   @DF-RHF iter   3:  -380.27682402502035   -1.63773e-01   1.00179e-04 DIIS/ADIIS
   @DF-RHF iter   4:  -380.27903635520619   -2.21233e-03   2.89759e-05 DIIS
   @DF-RHF iter   5:  -380.27919986822121   -1.63513e-04   1.11262e-05 DIIS
   @DF-RHF iter   6:  -380.27922126172848   -2.13935e-05   3.69143e-06 DIIS
   @DF-RHF iter   7:  -380.27922454167879   -3.27995e-06   7.45572e-07 DIIS
   @DF-RHF iter   8:  -380.27922476493757   -2.23259e-07   1.68112e-07 DIIS
   @DF-RHF iter   9:  -380.27922477180499   -6.86742e-09   7.80734e-08 DIIS
   @DF-RHF iter  10:  -380.27922477276047   -9.55481e-10   1.53377e-08 DIIS
   @DF-RHF iter  11:  -380.27922477283306   -7.25890e-11   4.64031e-09 DIIS
  Energy and wave function converged.


  ==> Post-Iterations <==

    Orbital Energies [Eh]
    ---------------------

    Doubly Occupied:                                                      

       1A    -20.597526     2A    -20.589167     3A    -20.584526  
       4A    -20.582822     5A    -20.569563     6A     -1.384428  
       7A     -1.366369     8A     -1.358114     9A     -1.350163  
      10A     -1.318604    11A     -0.745241    12A     -0.726877  
      13A     -0.724314    14A     -0.719962    15A     -0.681076  
      16A     -0.618358    17A     -0.601963    18A     -0.596632  
      19A     -0.584432    20A     -0.564779    21A     -0.540946  
      22A     -0.525773    23A     -0.524709    24A     -0.519553  
      25A     -0.498349  

    Virtual:                                                              

      26A      0.008230    27A      0.027011    28A      0.037150  
      29A      0.042073    30A      0.044292    31A      0.055950  
      32A      0.064563    33A      0.069807    34A      0.080660  
      35A      0.090279    36A      0.097746    37A      0.114396  
      38A      0.121907    39A      0.125463    40A      0.143926  
      41A      0.144611    42A      0.154488    43A      0.161079  
      44A      0.168243    45A      0.170742    46A      0.174127  
      47A      0.177548    48A      0.183707    49A      0.188170  
      50A      0.192664    51A      0.202579    52A      0.204841  
      53A      0.212054    54A      0.219315    55A      0.224025  
      56A      0.226826    57A      0.235467    58A      0.238558  
      59A      0.248625    60A      0.255526    61A      0.259368  
      62A      0.272248    63A      0.278203    64A      0.281550  
      65A      0.284787    66A      0.292423    67A      0.298932  
      68A      0.307364    69A      0.314538    70A      0.320011  
      71A      0.322528    72A      0.329389    73A      0.334923  
      74A      0.344413    75A      0.349966    76A      0.354326  
      77A      0.368213    78A      0.376163    79A      0.390092  
      80A      0.394115    81A      0.400206    82A      0.414505  
      83A      0.420692    84A      0.425208    85A      0.430547  
      86A      0.437239    87A      0.442725    88A      0.445649  
      89A      0.457848    90A      0.462026    91A      0.469789  
      92A      0.471654    93A      0.482147    94A      0.490731  
      95A      0.502866    96A      0.511837    97A      0.517834  
      98A      0.536971    99A      0.552177   100A      0.565178  
     101A      0.580877   102A      0.593473   103A      0.607753  
     104A      0.616686   105A      0.629235   106A      0.636196  
     107A      0.646476   108A      0.657670   109A      0.664741  
     110A      0.673399   111A      0.677968   112A      0.694771  
     113A      0.698507   114A      0.706735   115A      0.715355  
     116A      0.726922   117A      0.730746   118A      0.732991  
     119A      0.737602   120A      0.741025   121A      0.746383  
     122A      0.752150   123A      0.757546   124A      0.772347  
     125A      0.777525   126A      0.780095   127A      0.795407  
     128A      0.801400   129A      0.803868   130A      0.811280  
     131A      0.818194   132A      0.837496   133A      0.843213  
     134A      0.857854   135A      0.861505   136A      0.876288  
     137A      0.879624   138A      0.890970   139A      0.893802  
     140A      0.903405   141A      0.908859   142A      0.913421  
     143A      0.919157   144A      0.923591   145A      0.931794  
     146A      0.943490   147A      0.947539   148A      0.951840  
     149A      0.963330   150A      0.964091   151A      0.967589  
     152A      0.974480   153A      0.977409   154A      0.990178  
     155A      0.999368   156A      1.004437   157A      1.007714  
     158A      1.014917   159A      1.022642   160A      1.023520  
     161A      1.030402   162A      1.035371   163A      1.037132  
     164A      1.045111   165A      1.051790   166A      1.058996  
     167A      1.068688   168A      1.074204   169A      1.085773  
     170A      1.094556   171A      1.097013   172A      1.105303  
     173A      1.116545   174A      1.124363   175A      1.127429  
     176A      1.141544   177A      1.145985   178A      1.154552  
     179A      1.160689   180A      1.174213   181A      1.180446  
     182A      1.187171   183A      1.191604   184A      1.194786  
     185A      1.224712   186A      1.235329   187A      1.243118  
     188A      1.259364   189A      1.267838   190A      1.277170  
     191A      1.285159   192A      1.293548   193A      1.303456  
     194A      1.312571   195A      1.323019   196A      1.342537  
     197A      1.347873   198A      1.360155   199A      1.371648  
     200A      1.380679   201A      1.388119   202A      1.404513  
     203A      1.421725   204A      1.444973   205A      1.460592  
     206A      1.484767   207A      1.492665   208A      1.505734  
     209A      1.509331   210A      1.531277   211A      1.533589  
     212A      1.538731   213A      1.551713   214A      1.563100  
     215A      1.577840   216A      1.587153   217A      1.596363  
     218A      1.608685   219A      1.614134   220A      1.624182  
     221A      1.639621   222A      1.651563   223A      1.660601  
     224A      1.676482   225A      1.682411   226A      1.707317  
     227A      1.722163   228A      1.734656   229A      1.762311  
     230A      1.773645   231A      1.783426   232A      1.797822  
     233A      1.806068   234A      1.808569   235A      1.826734  
     236A      1.843288   237A      1.853687   238A      1.868413  
     239A      1.895439   240A      1.905459   241A      1.908603  
     242A      1.948781   243A      1.950909   244A      1.957809  
     245A      1.968631   246A      1.984631   247A      2.006233  
     248A      2.013521   249A      2.032907   250A      2.043005  
     251A      2.063227   252A      2.141550   253A      2.158687  
     254A      2.181419   255A      2.189835   256A      2.204096  
     257A      2.288545   258A      2.293981   259A      2.309829  
     260A      2.325975   261A      2.360847   262A      2.374924  
     263A      2.381081   264A      2.384853   265A      2.392009  
     266A      2.414088   267A      2.417853   268A      2.433663  
     269A      2.442576   270A      2.445756   271A      2.455869  
     272A      2.457314   273A      2.465675   274A      2.471592  
     275A      2.478973   276A      2.484194   277A      2.489357  
     278A      2.494409   279A      2.516694   280A      2.525977  
     281A      2.537668   282A      2.543230   283A      2.564255  
     284A      2.570544   285A      2.593239   286A      2.599974  
     287A      2.612159   288A      2.620923   289A      2.638207  
     290A      2.651552   291A      2.666705   292A      2.690369  
     293A      2.706973   294A      2.711176   295A      2.733833  
     296A      2.744781   297A      2.754302   298A      2.761442  
     299A      2.790294   300A      2.793166   301A      2.801186  
     302A      2.808276   303A      2.822129   304A      2.831007  
     305A      2.835788   306A      2.842673   307A      2.870227  
     308A      2.877706   309A      2.895972   310A      2.896137  
     311A      2.915398   312A      2.935878   313A      2.964267  
     314A      2.978643   315A      2.993788   316A      3.026500  
     317A      3.048846   318A      3.079094   319A      3.121382  
     320A      3.645813   321A      3.667996   322A      3.679661  
     323A      3.706085   324A      3.742556   325A      3.774735  
     326A      3.804700   327A      3.868811   328A      3.872628  
     329A      3.915128   330A      4.022946   331A      4.035617  
     332A      4.040854   333A      4.045876   334A      4.058509  
     335A      4.062142   336A      4.093716   337A      4.099788  
     338A      4.120964   339A      4.141931   340A      4.151268  
     341A      4.166102   342A      4.174449   343A      4.193922  
     344A      4.201240   345A      4.204886   346A      4.222243  
     347A      4.230126   348A      4.240859   349A      4.245146  
     350A      4.247380   351A      4.259179   352A      4.266701  
     353A      4.271586   354A      4.288549   355A      4.294483  
     356A      4.307255   357A      4.321448   358A      4.338313  
     359A      4.344385   360A      4.353391   361A      4.365909  
     362A      4.376346   363A      4.383479   364A      4.386291  
     365A      4.394096   366A      4.400557   367A      4.404924  
     368A      4.414151   369A      4.422071   370A      4.426815  
     371A      4.454654   372A      4.463190   373A      4.470886  
     374A      4.482619   375A      4.501477   376A      4.515623  
     377A      4.532368   378A      4.536226   379A      4.544084  
     380A      4.554148   381A      4.589327   382A      4.596550  
     383A      4.612686   384A      4.636293   385A      4.695127  
     386A      4.720785   387A      4.740967   388A      4.744596  
     389A      4.755880   390A      4.795828   391A      4.814683  
     392A      4.837535   393A      4.853655   394A      4.870356  
     395A      4.886906   396A      4.928036   397A      4.970039  
     398A      4.999058   399A      5.030868   400A      5.036393  
     401A      5.050631   402A      5.086121   403A      5.108711  
     404A      5.119505   405A      5.128589   406A      5.136511  
     407A      5.157054   408A      5.171680   409A      5.204118  
     410A      5.212251   411A      5.233385   412A      5.244022  
     413A      5.282783   414A      5.296318   415A      5.318069  
     416A      5.326771   417A      5.336012   418A      5.373405  
     419A      5.385760   420A      5.424237   421A      5.437464  
     422A      5.447850   423A      5.496996   424A      5.506975  
     425A      5.579003   426A      5.640274   427A      5.677680  
     428A      5.694866   429A      5.715806   430A      5.756519  
     431A      6.165670   432A      6.185525   433A      6.206778  
     434A      6.229013   435A      6.305318   436A      6.523523  
     437A      6.529394   438A      6.549727   439A      6.585996  
     440A      6.604497   441A      6.743664   442A      6.778505  
     443A      6.787257   444A      6.797693   445A      6.820486  
     446A      6.866500   447A      6.879320   448A      6.909000  
     449A      6.923376   450A      6.962256   451A      7.094990  
     452A      7.097542   453A      7.124830   454A      7.133290  
     455A      7.186511   456A      7.232151   457A      7.246639  
     458A      7.253605   459A      7.257935   460A      7.274567  
     461A      7.280550   462A      7.286137   463A      7.292556  
     464A      7.304592   465A      7.311944   466A      7.314825  
     467A      7.321919   468A      7.331047   469A      7.342809  
     470A      7.350423   471A      7.358177   472A      7.364573  
     473A      7.374022   474A      7.387738   475A      7.389529  
     476A      7.416214   477A      7.458186   478A      7.476808  
     479A      7.479914   480A      7.489815   481A      7.532729  
     482A      7.562348   483A      7.674247   484A      7.694175  
     485A      7.736914   486A      7.853320   487A      7.875205  
     488A      7.884530   489A      7.901193   490A      7.920565  
     491A      7.925523   492A      7.950735   493A      7.973353  
     494A      7.998187   495A      8.025839   496A      8.517808  
     497A      8.666413   498A      8.687394   499A      8.790123  
     500A      8.865224   501A     14.523886   502A     15.465342  
     503A     15.630985   504A     15.740703   505A     16.347293  
     506A     16.894240   507A     28.092296   508A     28.207743  
     509A     28.372192   510A    160.910145  

    Final Occupation by Irrep:
              A 
    DOCC [    25 ]
    NA   [    25 ]
    NB   [    25 ]

  @DF-RHF Final Energy:  -380.27922477283306

   => Energetics <=

    Nuclear Repulsion Energy =            158.7500512904113634
    One-Electron Energy =                -840.3100531839747873
    Two-Electron Energy =                 301.2807771207303063
    Total Energy =                       -380.2792247728330608

Computation Completed


Properties will be evaluated at   0.000000,   0.000000,   0.000000 [a0]

Properties computed using the SCF density matrix


 Multipole Moments:

 ------------------------------------------------------------------------------------
     Multipole            Electronic (a.u.)      Nuclear  (a.u.)        Total (a.u.)
 ------------------------------------------------------------------------------------

 L = 1.  Multiply by 2.5417464519 to convert [e a0] to [Debye]
 Dipole X            :          7.1126350           -5.7835673            1.3290677
 Dipole Y            :        -36.1262833           34.7530385           -1.3732447
 Dipole Z            :        -60.5880915           60.8461104            0.2580190
 Magnitude           :                                                    1.9284179

 ------------------------------------------------------------------------------------

*** tstop() called on ddmfs1 at Fri Jan 12 19:28:28 2024
Module time:
	user time   =     142.48 seconds =       2.37 minutes
	system time =       4.07 seconds =       0.07 minutes
	total time  =          8 seconds =       0.13 minutes
Total time:
	user time   =     411.11 seconds =       6.85 minutes
	system time =      23.61 seconds =       0.39 minutes
	total time  =         26 seconds =       0.43 minutes
  Constructing Basis Sets for SAPT...

   => Loading Basis Set <=

    Name: (AUG-CC-PVTZ AUX)
    Role: RIFIT
    Keyword: DF_BASIS_SAPT
    atoms 1                            entry CL         line   742 file /ddmfs1b/softs/psi4conda/share/psi4/basis/aug-cc-pvtz-ri.gbs 
    atoms 2, 5, 8, 11, 14              entry O          line   264 file /ddmfs1b/softs/psi4conda/share/psi4/basis/aug-cc-pvtz-ri.gbs 
    atoms 3-4, 6-7, 9-10, 12-13, 15-16 entry H          line    30 file /ddmfs1b/softs/psi4conda/share/psi4/basis/aug-cc-pvtz-ri.gbs 

   => Loading Basis Set <=

    Name: (AUG-CC-PVTZ AUX)
    Role: JKFIT
    Keyword: DF_BASIS_ELST
    atoms 1                            entry CL         line   816 file /ddmfs1b/softs/psi4conda/share/psi4/basis/aug-cc-pvtz-jkfit.gbs 
    atoms 2, 5, 8, 11, 14              entry O          line   286 file /ddmfs1b/softs/psi4conda/share/psi4/basis/aug-cc-pvtz-jkfit.gbs 
    atoms 3-4, 6-7, 9-10, 12-13, 15-16 entry H          line    70 file /ddmfs1b/softs/psi4conda/share/psi4/basis/aug-cc-pvtz-jkfit.gbs 


  //>>>>>>>>>>>>>>>>>>>>>>>>>>>>>>>>>>>//
  //               SAPT2+              //
  //<<<<<<<<<<<<<<<<<<<<<<<<<<<<<<<<<<<//


*** tstart() called on ddmfs1
*** at Fri Jan 12 19:28:29 2024

        SAPT2+  
    Ed Hohenstein
     6 June 2009

      Orbital Information
  --------------------------
    NSO        =       510
    NMO        =       510
    NRI        =      1137
    NOCC A     =         9
    NOCC B     =        25
    FOCC A     =         0
    FOCC B     =         0
    NVIR A     =       501
    NVIR B     =       485

    Estimated memory usage: 6048.1 MB

    Natural Orbital Cutoff:   1.000E-06
    Disp(T3) Truncation:            Yes
    CCD (vv|vv) Truncation:         Yes
    MBPT T2 Truncation:             Yes

    Monomer A: 416 virtual orbitals dropped
    Monomer B: 86 virtual orbitals dropped

    Elst10,r            =    -0.085923991591 [Eh]
    Exch10 (S^2)        =     0.055632639589 [Eh]
    Exch10              =     0.056102898079 [Eh]
    Ind20,r (A<-B)      =    -0.029903455498 [Eh]
    Ind20,r (B<-A)      =    -0.018685839222 [Eh]
    Ind20,r             =    -0.048589294721 [Eh]
    Exch-Ind20,r (A<-B) =     0.021522440996 [Eh]
    Exch-Ind20,r (B<-A) =     0.004176129223 [Eh]
    Exch-Ind20,r        =     0.025698570219 [Eh]
    Disp20              =    -0.027152342312 [Eh]
    Disp20 (NO)         =    -0.023478029481 [Eh]
    Exch-Disp20         =     0.006146226626 [Eh]
    Elst12,r            =    -0.000700921695 [Eh]
    Exch11              =     0.002496961514 [Eh]
    Exch12              =     0.005548835976 [Eh]
    Ind22               =    -0.006440808603 [Eh]
    Disp21              =     0.001776726870 [Eh]
    Disp22 (SDQ)        =    -0.000076217206 [Eh]

    (i =   1 of  25)          3 seconds
    (i =   2 of  25)          6 seconds
    (i =   3 of  25)          9 seconds
    (i =   4 of  25)         13 seconds
    (i =   5 of  25)         16 seconds
    (i =   6 of  25)         19 seconds
    (i =   7 of  25)         22 seconds
    (i =   8 of  25)         26 seconds
    (i =   9 of  25)         29 seconds
    (i =  10 of  25)         32 seconds
    (i =  11 of  25)         35 seconds
    (i =  12 of  25)         39 seconds
    (i =  13 of  25)         42 seconds
    (i =  14 of  25)         45 seconds
    (i =  15 of  25)         48 seconds
    (i =  16 of  25)         51 seconds
    (i =  17 of  25)         55 seconds
    (i =  18 of  25)         58 seconds
    (i =  19 of  25)         61 seconds
    (i =  20 of  25)         64 seconds
    (i =  21 of  25)         68 seconds
    (i =  22 of  25)         71 seconds
    (i =  23 of  25)         74 seconds
    (i =  24 of  25)         77 seconds
    (i =  25 of  25)         81 seconds

    Disp220 (T)         =    -0.001948918326 [Eh]

    (i =   1 of   9)        189 seconds
    (i =   2 of   9)        378 seconds
    (i =   3 of   9)        567 seconds
    (i =   4 of   9)        756 seconds
    (i =   5 of   9)        945 seconds
    (i =   6 of   9)       1133 seconds
    (i =   7 of   9)       1322 seconds
    (i =   8 of   9)       1511 seconds
    (i =   9 of   9)       1699 seconds

    Disp202 (T)         =    -0.002447014153 [Eh]

    Disp22 (T)          =    -0.004395932479 [Eh]

    Est. Disp220 (T)    =    -0.002253924145 [Eh]
    Est. Disp202 (T)    =    -0.002829971995 [Eh]

    Est. Disp22 (T)     =    -0.005083896140 [Eh]

    SAPT Results 
  --------------------------------------------------------------------------------------------------------
    Electrostatics                -86.62491329 [mEh]     -54.35795375 [kcal/mol]    -227.43367850 [kJ/mol]
      Elst10,r                    -85.92399159 [mEh]     -53.91811875 [kcal/mol]    -225.59340884 [kJ/mol]
      Elst12,r                     -0.70092170 [mEh]      -0.43983500 [kcal/mol]      -1.84026966 [kJ/mol]

    Exchange                       64.14869557 [mEh]      40.25391420 [kcal/mol]     168.42237701 [kJ/mol]
      Exch10                       56.10289808 [mEh]      35.20510005 [kcal/mol]     147.29813861 [kJ/mol]
      Exch10(S^2)                  55.63263959 [mEh]      34.91000839 [kcal/mol]     146.06347512 [kJ/mol]
      Exch11(S^2)                   2.49696151 [mEh]       1.56686701 [kcal/mol]       6.55577155 [kJ/mol]
      Exch12(S^2)                   5.54883598 [mEh]       3.48194714 [kcal/mol]      14.56846685 [kJ/mol]

    Induction                     -32.96984610 [mEh]     -20.68889078 [kcal/mol]     -86.56231901 [kJ/mol]
      Ind20,r                     -48.58929472 [mEh]     -30.49024276 [kcal/mol]    -127.57117571 [kJ/mol]
      Ind22                        -6.44080860 [mEh]      -4.04166842 [kcal/mol]     -16.91034066 [kJ/mol]
      Exch-Ind20,r                 25.69857022 [mEh]      16.12609628 [kcal/mol]      67.47158682 [kJ/mol]
      Exch-Ind22                    3.40650288 [mEh]       2.13761283 [kcal/mol]       8.94377207 [kJ/mol]
      delta HF,r (2)               -7.04481587 [mEh]      -4.42068870 [kcal/mol]     -18.49616152 [kJ/mol]

    Dispersion                    -24.38950216 [mEh]     -15.30464367 [kcal/mol]     -64.03462910 [kJ/mol]
      Disp20                      -27.15234231 [mEh]     -17.03835204 [kcal/mol]     -71.28846492 [kJ/mol]
      Disp21                        1.77672687 [mEh]       1.11491294 [kcal/mol]       4.66479575 [kJ/mol]
      Disp22 (SDQ)                 -0.07621721 [mEh]      -0.04782702 [kcal/mol]      -0.20010825 [kJ/mol]
      Disp22 (T)                   -4.39593248 [mEh]      -2.75848928 [kcal/mol]     -11.54151913 [kJ/mol]
      Est. Disp22 (T)              -5.08389614 [mEh]      -3.19019299 [kcal/mol]     -13.34776748 [kJ/mol]
      Exch-Disp20                   6.14622663 [mEh]       3.85681544 [kcal/mol]      16.13691578 [kJ/mol]

  Total HF                        -59.75663388 [mEh]     -37.49785388 [kcal/mol]    -156.89102065 [kJ/mol]
  Total SAPT0                     -80.76274957 [mEh]     -50.67939048 [kcal/mol]    -212.04256978 [kJ/mol]
  Total SAPT2                     -76.45217950 [mEh]     -47.97446693 [kcal/mol]    -200.72516963 [kJ/mol]
  Total SAPT2+                    -79.83556598 [mEh]     -50.09757400 [kcal/mol]    -209.60824960 [kJ/mol]

  Special recipe for scaled SAPT0 (see Manual):
    Electrostatics sSAPT0         -85.92399159 [mEh]     -53.91811875 [kcal/mol]    -225.59340884 [kJ/mol]
    Exchange sSAPT0                56.10289808 [mEh]      35.20510005 [kcal/mol]     147.29813861 [kJ/mol]
    Induction sSAPT0              -29.27833201 [mEh]     -18.37243071 [kcal/mol]     -76.87025010 [kJ/mol]
    Dispersion sSAPT0             -20.84893373 [mEh]     -13.08290343 [kcal/mol]     -54.73886797 [kJ/mol]
  Total sSAPT0                    -79.94835925 [mEh]     -50.16835284 [kcal/mol]    -209.90438830 [kJ/mol]
  --------------------------------------------------------------------------------------------------------

*** tstop() called on ddmfs1 at Fri Jan 12 20:05:01 2024
Module time:
	user time   =   10903.50 seconds =     181.72 minutes
	system time =     169.98 seconds =       2.83 minutes
	total time  =       2192 seconds =      36.53 minutes
Total time:
	user time   =   11317.66 seconds =     188.63 minutes
	system time =     193.69 seconds =       3.23 minutes
	total time  =       2219 seconds =      36.98 minutes

    Psi4 stopped on: Friday, 12 January 2024 08:05PM
    Psi4 wall time for execution: 0:36:59.41

*** Psi4 exiting successfully. Buy a developer a beer!
