
    -----------------------------------------------------------------------
          Psi4: An Open-Source Ab Initio Electronic Structure Package
                               Psi4 1.8.2 release

                         Git: Rev {} zzzzzzz 


    D. G. A. Smith, L. A. Burns, A. C. Simmonett, R. M. Parrish,
    M. C. Schieber, R. Galvelis, P. Kraus, H. Kruse, R. Di Remigio,
    A. Alenaizan, A. M. James, S. Lehtola, J. P. Misiewicz, M. Scheurer,
    R. A. Shaw, J. B. Schriber, Y. Xie, Z. L. Glick, D. A. Sirianni,
    J. S. O'Brien, J. M. Waldrop, A. Kumar, E. G. Hohenstein,
    B. P. Pritchard, B. R. Brooks, H. F. Schaefer III, A. Yu. Sokolov,
    K. Patkowski, A. E. DePrince III, U. Bozkaya, R. A. King,
    F. A. Evangelista, J. M. Turney, T. D. Crawford, C. D. Sherrill,
    J. Chem. Phys. 152(18) 184108 (2020). https://doi.org/10.1063/5.0006002

                            Additional Code Authors
    E. T. Seidl, C. L. Janssen, E. F. Valeev, M. L. Leininger,
    J. F. Gonthier, R. M. Richard, H. R. McAlexander, M. Saitow, X. Wang,
    P. Verma, M. H. Lechner, A. Jiang, S. Behnle, A. G. Heide,
    M. F. Herbst, and D. L. Poole

             Previous Authors, Complete List of Code Contributors,
                       and Citations for Specific Modules
    https://github.com/psi4/psi4/blob/master/codemeta.json
    https://github.com/psi4/psi4/graphs/contributors
    http://psicode.org/psi4manual/master/introduction.html#citing-psifour

    -----------------------------------------------------------------------


    Psi4 started on: Saturday, 13 January 2024 06:35AM

    Process ID: 282969
    Host:       ddmfs1
    PSIDATADIR: /ddmfs1b/softs/psi4conda/share/psi4
    Memory:     500.0 MiB
    Threads:    20
    
  ==> Input File <==

--------------------------------------------------------------------------
MEMORY 60 GB

molecule dimer {
-1 1
Cl     0.000000     0.000000     0.000000
--
0 1
O      1.279422     1.813072     2.395684
H      0.682919     1.310388     1.792513
H      1.966367     1.174297     2.713761
O      0.654636     0.433879    -3.071352
H      0.416601     0.627639    -2.150429
H      1.079299    -0.421006    -3.057450
O     -2.751681    -1.662134    -0.715478
H     -1.767176    -1.405085    -0.782986
H     -2.615721    -2.522329    -0.314722
O     -0.054526    -2.456372     1.915545
H     -0.644121    -2.325736     2.724853
H     -0.025853    -1.607846     1.466047

units ang
no_reorient
no_com
symmetry c1
}

set {
basis        aug-cc-pVTZ
scf_type     df
}

energy("sapt2+")
--------------------------------------------------------------------------

  Memory set to  55.879 GiB by Python driver.

Scratch directory: /ddmfs1a/scratch/
   => Loading Basis Set <=

    Name: AUG-CC-PVTZ
    Role: ORBITAL
    Keyword: BASIS
    atoms 1                     entry CL         line   988 file /ddmfs1b/softs/psi4conda/share/psi4/basis/aug-cc-pvtz.gbs 
    atoms 2, 5, 8, 11           entry O          line   331 file /ddmfs1b/softs/psi4conda/share/psi4/basis/aug-cc-pvtz.gbs 
    atoms 3-4, 6-7, 9-10, 12-13 entry H          line    40 file /ddmfs1b/softs/psi4conda/share/psi4/basis/aug-cc-pvtz.gbs 

   => Loading Basis Set <=

    Name: AUG-CC-PVTZ
    Role: ORBITAL
    Keyword: BASIS
    atoms 1                     entry CL         line   988 file /ddmfs1b/softs/psi4conda/share/psi4/basis/aug-cc-pvtz.gbs 
    atoms 2, 5, 8, 11           entry O          line   331 file /ddmfs1b/softs/psi4conda/share/psi4/basis/aug-cc-pvtz.gbs 
    atoms 3-4, 6-7, 9-10, 12-13 entry H          line    40 file /ddmfs1b/softs/psi4conda/share/psi4/basis/aug-cc-pvtz.gbs 


  //>>>>>>>>>>>>>>>>>>>>>>>>>>>>>>>>>>>//
  //              Dimer HF             //
  //<<<<<<<<<<<<<<<<<<<<<<<<<<<<<<<<<<<//

   => Libint2 <=

    Primary   basis highest AM E, G, H:  5, 4, 3
    Auxiliary basis highest AM E, G, H:  6, 5, 4
    Onebody   basis highest AM E, G, H:  6, 5, 4
    Solid Harmonics ordering:            gaussian

*** tstart() called on ddmfs1
*** at Sat Jan 13 06:35:27 2024

   => Loading Basis Set <=

    Name: AUG-CC-PVTZ
    Role: ORBITAL
    Keyword: BASIS
    atoms 1                     entry CL         line   988 file /ddmfs1b/softs/psi4conda/share/psi4/basis/aug-cc-pvtz.gbs 
    atoms 2, 5, 8, 11           entry O          line   331 file /ddmfs1b/softs/psi4conda/share/psi4/basis/aug-cc-pvtz.gbs 
    atoms 3-4, 6-7, 9-10, 12-13 entry H          line    40 file /ddmfs1b/softs/psi4conda/share/psi4/basis/aug-cc-pvtz.gbs 


         ---------------------------------------------------------
                                   SCF
               by Justin Turney, Rob Parrish, Andy Simmonett
                          and Daniel G. A. Smith
                              RHF Reference
                       20 Threads,  57220 MiB Core
         ---------------------------------------------------------

  ==> Geometry <==

    Molecular point group: c1
    Full point group: C1

    Geometry (in Angstrom), charge = -1, multiplicity = 1:

       Center              X                  Y                   Z               Mass       
    ------------   -----------------  -----------------  -----------------  -----------------
         CL           0.000000000000     0.000000000000     0.000000000000    34.968852682000
         O            1.279422000000     1.813072000000     2.395684000000    15.994914619570
         H            0.682919000000     1.310388000000     1.792513000000     1.007825032230
         H            1.966367000000     1.174297000000     2.713761000000     1.007825032230
         O            0.654636000000     0.433879000000    -3.071352000000    15.994914619570
         H            0.416601000000     0.627639000000    -2.150429000000     1.007825032230
         H            1.079299000000    -0.421006000000    -3.057450000000     1.007825032230
         O           -2.751681000000    -1.662134000000    -0.715478000000    15.994914619570
         H           -1.767176000000    -1.405085000000    -0.782986000000     1.007825032230
         H           -2.615721000000    -2.522329000000    -0.314722000000     1.007825032230
         O           -0.054526000000    -2.456372000000     1.915545000000    15.994914619570
         H           -0.644121000000    -2.325736000000     2.724853000000     1.007825032230
         H           -0.025853000000    -1.607846000000     1.466047000000     1.007825032230

  Running in c1 symmetry.

  Rotational constants: A =      0.04614  B =      0.04013  C =      0.02488 [cm^-1]
  Rotational constants: A =   1383.20878  B =   1202.91791  C =    745.97541 [MHz]
  Nuclear repulsion =  217.308981068990732

  Charge       = -1
  Multiplicity = 1
  Electrons    = 58
  Nalpha       = 29
  Nbeta        = 29

  ==> Algorithm <==

  SCF Algorithm Type is DF.
  DIIS enabled.
  MOM disabled.
  Fractional occupation disabled.
  Guess Type is SAD.
  Energy threshold   = 1.00e-08
  Density threshold  = 1.00e-08
  Integral threshold = 1.00e-12

  ==> Primary Basis <==

  Basis Set: AUG-CC-PVTZ
    Blend: AUG-CC-PVTZ
    Number of shells: 144
    Number of basis functions: 418
    Number of Cartesian functions: 479
    Spherical Harmonics?: true
    Max angular momentum: 3

   => Loading Basis Set <=

    Name: (AUG-CC-PVTZ AUX)
    Role: JKFIT
    Keyword: DF_BASIS_SCF
    atoms 1                     entry CL         line   816 file /ddmfs1b/softs/psi4conda/share/psi4/basis/aug-cc-pvtz-jkfit.gbs 
    atoms 2, 5, 8, 11           entry O          line   286 file /ddmfs1b/softs/psi4conda/share/psi4/basis/aug-cc-pvtz-jkfit.gbs 
    atoms 3-4, 6-7, 9-10, 12-13 entry H          line    70 file /ddmfs1b/softs/psi4conda/share/psi4/basis/aug-cc-pvtz-jkfit.gbs 

  ==> Integral Setup <==

  ==> DiskDFJK: Density-Fitted J/K Matrices <==

    J tasked:                  Yes
    K tasked:                  Yes
    wK tasked:                  No
    OpenMP threads:             20
    Integrals threads:          20
    Memory [MiB]:            42915
    Algorithm:                Core
    Integral Cache:           SAVE
    Schwarz Cutoff:          1E-12
    Fitting Condition:       1E-10

   => Auxiliary Basis Set <=

  Basis Set: (AUG-CC-PVTZ AUX)
    Blend: AUG-CC-PVTZ-JKFIT
    Number of shells: 274
    Number of basis functions: 930
    Number of Cartesian functions: 1144
    Spherical Harmonics?: true
    Max angular momentum: 4

  Minimum eigenvalue in the overlap matrix is 2.1131683105E-04.
  Reciprocal condition number of the overlap matrix is 2.0203770594E-05.
    Using symmetric orthogonalization.

  ==> Pre-Iterations <==

  SCF Guess: Superposition of Atomic Densities via on-the-fly atomic UHF (no occupation information).

   -------------------------
    Irrep   Nso     Nmo    
   -------------------------
     A        418     418 
   -------------------------
    Total     418     418
   -------------------------

  ==> Iterations <==

                           Total Energy        Delta E     RMS |[F,P]|

   @DF-RHF iter SAD:  -761.20982109741658   -7.61210e+02   0.00000e+00 
   @DF-RHF iter   1:  -763.49986759118178   -2.29005e+00   2.29499e-03 ADIIS/DIIS
   @DF-RHF iter   2:  -763.72164459131614   -2.21777e-01   1.57549e-03 ADIIS/DIIS
   @DF-RHF iter   3:  -763.85579014971461   -1.34146e-01   1.15026e-04 ADIIS/DIIS
   @DF-RHF iter   4:  -763.85757937628023   -1.78923e-03   4.16456e-05 DIIS
   @DF-RHF iter   5:  -763.85777724338641   -1.97867e-04   9.50073e-06 DIIS
   @DF-RHF iter   6:  -763.85779519268772   -1.79493e-05   3.01107e-06 DIIS
   @DF-RHF iter   7:  -763.85779679479708   -1.60211e-06   1.25110e-06 DIIS
   @DF-RHF iter   8:  -763.85779701642457   -2.21627e-07   3.17080e-07 DIIS
   @DF-RHF iter   9:  -763.85779703681226   -2.03877e-08   5.82084e-08 DIIS
   @DF-RHF iter  10:  -763.85779703759260   -7.80346e-10   1.21011e-08 DIIS
   @DF-RHF iter  11:  -763.85779703762375   -3.11502e-11   5.16697e-09 DIIS
  Energy and wave function converged.


  ==> Post-Iterations <==

    Orbital Energies [Eh]
    ---------------------

    Doubly Occupied:                                                      

       1A   -104.583391     2A    -20.421851     3A    -20.419344  
       4A    -20.419173     5A    -20.407300     6A    -10.308993  
       7A     -7.775127     8A     -7.775071     9A     -7.774984  
      10A     -1.193733    11A     -1.193482    12A     -1.191026  
      13A     -1.187933    14A     -0.828804    15A     -0.564686  
      16A     -0.560874    17A     -0.557270    18A     -0.534320  
      19A     -0.445060    20A     -0.436595    21A     -0.431890  
      22A     -0.429859    23A     -0.364504    24A     -0.359634  
      25A     -0.357298    26A     -0.354362    27A     -0.241881  
      28A     -0.239340    29A     -0.234219  

    Virtual:                                                              

      30A      0.118384    31A      0.129062    32A      0.132600  
      33A      0.142012    34A      0.159141    35A      0.172130  
      36A      0.179706    37A      0.181200    38A      0.241217  
      39A      0.253351    40A      0.259337    41A      0.265952  
      42A      0.270861    43A      0.279149    44A      0.284132  
      45A      0.289819    46A      0.293382    47A      0.298961  
      48A      0.306787    49A      0.318677    50A      0.328396  
      51A      0.330723    52A      0.338550    53A      0.341138  
      54A      0.343588    55A      0.349143    56A      0.357189  
      57A      0.364524    58A      0.372153    59A      0.376786  
      60A      0.403954    61A      0.406213    62A      0.408549  
      63A      0.418959    64A      0.428175    65A      0.442624  
      66A      0.451851    67A      0.462282    68A      0.471021  
      69A      0.478025    70A      0.488099    71A      0.505201  
      72A      0.519568    73A      0.520003    74A      0.527475  
      75A      0.531836    76A      0.544564    77A      0.558714  
      78A      0.568362    79A      0.575420    80A      0.584470  
      81A      0.587010    82A      0.588238    83A      0.607868  
      84A      0.624400    85A      0.637051    86A      0.660748  
      87A      0.673993    88A      0.700329    89A      0.702883  
      90A      0.709613    91A      0.715270    92A      0.746120  
      93A      0.751406    94A      0.763752    95A      0.780563  
      96A      0.801720    97A      0.806460    98A      0.822097  
      99A      0.832353   100A      0.840800   101A      0.855220  
     102A      0.857903   103A      0.865367   104A      0.865854  
     105A      0.876261   106A      0.879917   107A      0.882057  
     108A      0.892331   109A      0.900577   110A      0.903949  
     111A      0.911775   112A      0.924793   113A      0.937500  
     114A      0.964577   115A      0.968363   116A      0.977994  
     117A      0.999048   118A      1.009136   119A      1.017539  
     120A      1.024831   121A      1.031500   122A      1.035031  
     123A      1.043420   124A      1.052582   125A      1.056188  
     126A      1.061141   127A      1.064525   128A      1.077244  
     129A      1.084408   130A      1.088865   131A      1.096136  
     132A      1.099088   133A      1.110185   134A      1.115372  
     135A      1.119552   136A      1.126885   137A      1.137376  
     138A      1.141392   139A      1.151111   140A      1.153308  
     141A      1.161968   142A      1.168319   143A      1.173627  
     144A      1.174879   145A      1.182409   146A      1.203364  
     147A      1.212877   148A      1.224577   149A      1.244932  
     150A      1.248702   151A      1.259522   152A      1.266826  
     153A      1.274405   154A      1.283415   155A      1.308192  
     156A      1.319954   157A      1.329802   158A      1.330707  
     159A      1.353297   160A      1.355590   161A      1.377605  
     162A      1.380973   163A      1.389506   164A      1.400696  
     165A      1.401262   166A      1.414485   167A      1.422475  
     168A      1.428442   169A      1.440209   170A      1.446531  
     171A      1.463664   172A      1.483528   173A      1.492238  
     174A      1.514832   175A      1.521634   176A      1.545874  
     177A      1.564091   178A      1.582725   179A      1.607978  
     180A      1.627418   181A      1.661877   182A      1.672226  
     183A      1.673023   184A      1.693286   185A      1.695121  
     186A      1.705550   187A      1.714137   188A      1.738188  
     189A      1.739753   190A      1.773735   191A      1.782185  
     192A      1.787821   193A      1.807100   194A      1.814467  
     195A      1.837059   196A      1.851650   197A      1.887645  
     198A      1.906752   199A      1.915318   200A      1.944835  
     201A      1.966957   202A      2.014298   203A      2.016313  
     204A      2.038021   205A      2.069541   206A      2.075853  
     207A      2.096931   208A      2.104230   209A      2.136973  
     210A      2.175500   211A      2.191711   212A      2.214691  
     213A      2.266183   214A      2.282223   215A      2.423007  
     216A      2.429413   217A      2.436636   218A      2.459298  
     219A      2.470832   220A      2.476696   221A      2.502798  
     222A      2.519782   223A      2.530108   224A      2.535462  
     225A      2.554719   226A      2.563415   227A      2.580565  
     228A      2.590181   229A      2.592122   230A      2.596314  
     231A      2.612283   232A      2.616713   233A      2.628535  
     234A      2.634352   235A      2.639327   236A      2.653403  
     237A      2.657564   238A      2.670893   239A      2.681842  
     240A      2.701449   241A      2.716498   242A      2.735775  
     243A      2.767870   244A      2.778453   245A      2.788991  
     246A      2.845359   247A      2.855997   248A      2.876167  
     249A      2.885650   250A      2.899513   251A      2.909406  
     252A      2.915509   253A      2.919879   254A      2.928355  
     255A      2.954950   256A      2.960333   257A      2.964128  
     258A      2.980808   259A      3.020570   260A      3.025382  
     261A      3.035507   262A      3.048948   263A      3.060937  
     264A      3.095744   265A      3.113010   266A      3.125350  
     267A      3.149806   268A      3.159025   269A      3.171722  
     270A      3.214191   271A      3.259476   272A      3.358927  
     273A      3.401943   274A      3.462822   275A      3.551970  
     276A      3.578565   277A      3.615445   278A      3.651231  
     279A      3.703939   280A      3.795663   281A      3.820618  
     282A      3.837973   283A      3.869645   284A      3.878485  
     285A      3.894295   286A      4.030989   287A      4.078615  
     288A      4.121593   289A      4.169049   290A      4.182831  
     291A      4.197879   292A      4.209238   293A      4.267389  
     294A      4.281080   295A      4.334722   296A      4.345152  
     297A      4.364789   298A      4.377508   299A      4.382494  
     300A      4.402720   301A      4.412026   302A      4.418518  
     303A      4.430083   304A      4.431742   305A      4.442786  
     306A      4.475614   307A      4.484930   308A      4.493415  
     309A      4.502563   310A      4.526859   311A      4.531228  
     312A      4.546311   313A      4.554033   314A      4.574651  
     315A      4.586702   316A      4.590688   317A      4.615682  
     318A      4.620987   319A      4.630659   320A      4.639147  
     321A      4.656300   322A      4.706169   323A      4.742828  
     324A      4.757761   325A      4.766268   326A      4.872018  
     327A      4.886430   328A      4.939040   329A      4.962594  
     330A      5.003126   331A      5.034081   332A      5.059661  
     333A      5.078284   334A      5.220217   335A      5.239943  
     336A      5.245147   337A      5.262397   338A      5.268343  
     339A      5.298924   340A      5.324242   341A      5.351520  
     342A      5.421817   343A      5.428785   344A      5.445617  
     345A      5.461811   346A      5.481832   347A      5.496683  
     348A      5.525035   349A      5.534799   350A      5.591441  
     351A      5.638509   352A      5.651465   353A      5.689528  
     354A      5.727200   355A      5.829882   356A      5.863197  
     357A      5.886534   358A      6.295129   359A      6.323725  
     360A      6.361790   361A      6.436360   362A      6.674925  
     363A      6.694057   364A      6.718303   365A      6.723502  
     366A      6.898758   367A      6.919035   368A      6.928856  
     369A      6.937893   370A      7.008618   371A      7.034895  
     372A      7.058345   373A      7.124210   374A      7.210506  
     375A      7.255260   376A      7.261573   377A      7.275926  
     378A      7.306994   379A      7.348130   380A      7.398030  
     381A      7.402613   382A      7.438446   383A      7.447298  
     384A      7.454238   385A      7.462340   386A      7.465955  
     387A      7.471134   388A      7.481917   389A      7.492618  
     390A      7.507775   391A      7.525005   392A      7.538829  
     393A      7.558724   394A      7.568955   395A      7.590130  
     396A      7.605399   397A      7.636096   398A      7.660967  
     399A      7.704070   400A      7.776378   401A      7.835228  
     402A      7.844031   403A      7.973947   404A      8.030907  
     405A      8.068517   406A      8.105631   407A      8.108747  
     408A      8.122438   409A      8.130136   410A      8.172493  
     411A      8.818776   412A      8.832193   413A      8.877565  
     414A      8.976596   415A     15.403654   416A     15.734080  
     417A     16.157708   418A     16.535473  

    Final Occupation by Irrep:
              A 
    DOCC [    29 ]
    NA   [    29 ]
    NB   [    29 ]

  @DF-RHF Final Energy:  -763.85779703762375

   => Energetics <=

    Nuclear Repulsion Energy =            217.3089810689907324
    One-Electron Energy =               -1499.1495404975707970
    Two-Electron Energy =                 517.9827623909562817
    Total Energy =                       -763.8577970376237545

Computation Completed


Properties will be evaluated at   0.000000,   0.000000,   0.000000 [a0]

Properties computed using the SCF density matrix


 Multipole Moments:

 ------------------------------------------------------------------------------------
     Multipole            Electronic (a.u.)      Nuclear  (a.u.)        Total (a.u.)
 ------------------------------------------------------------------------------------

 L = 1.  Multiply by 2.5417464519 to convert [e a0] to [Debye]
 Dipole X            :         15.4716278          -14.9002581            0.5713698
 Dipole Y            :         37.4309918          -38.0630866           -0.6320948
 Dipole Z            :        -11.7235866           12.4472084            0.7236217
 Magnitude           :                                                    1.1178710

 ------------------------------------------------------------------------------------

*** tstop() called on ddmfs1 at Sat Jan 13 06:35:35 2024
Module time:
	user time   =     106.34 seconds =       1.77 minutes
	system time =      10.55 seconds =       0.18 minutes
	total time  =          8 seconds =       0.13 minutes
Total time:
	user time   =     106.34 seconds =       1.77 minutes
	system time =      10.55 seconds =       0.18 minutes
	total time  =          8 seconds =       0.13 minutes

  //>>>>>>>>>>>>>>>>>>>>>>>>>>>>>>>>>>>//
  //            Monomer A HF           //
  //<<<<<<<<<<<<<<<<<<<<<<<<<<<<<<<<<<<//

   => Libint2 <=

    Primary   basis highest AM E, G, H:  5, 4, 3
    Auxiliary basis highest AM E, G, H:  6, 5, 4
    Onebody   basis highest AM E, G, H:  6, 5, 4
    Solid Harmonics ordering:            gaussian

*** tstart() called on ddmfs1
*** at Sat Jan 13 06:35:35 2024

   => Loading Basis Set <=

    Name: AUG-CC-PVTZ
    Role: ORBITAL
    Keyword: BASIS
    atoms 1                     entry CL         line   988 file /ddmfs1b/softs/psi4conda/share/psi4/basis/aug-cc-pvtz.gbs 
    atoms 2, 5, 8, 11           entry O          line   331 file /ddmfs1b/softs/psi4conda/share/psi4/basis/aug-cc-pvtz.gbs 
    atoms 3-4, 6-7, 9-10, 12-13 entry H          line    40 file /ddmfs1b/softs/psi4conda/share/psi4/basis/aug-cc-pvtz.gbs 


         ---------------------------------------------------------
                                   SCF
               by Justin Turney, Rob Parrish, Andy Simmonett
                          and Daniel G. A. Smith
                              RHF Reference
                       20 Threads,  57220 MiB Core
         ---------------------------------------------------------

  ==> Geometry <==

    Molecular point group: c1
    Full point group: C1

    Geometry (in Angstrom), charge = -1, multiplicity = 1:

       Center              X                  Y                   Z               Mass       
    ------------   -----------------  -----------------  -----------------  -----------------
         CL           0.000000000000     0.000000000000     0.000000000000    34.968852682000
      Gh(O)           1.279422000000     1.813072000000     2.395684000000    15.994914619570
      Gh(H)           0.682919000000     1.310388000000     1.792513000000     1.007825032230
      Gh(H)           1.966367000000     1.174297000000     2.713761000000     1.007825032230
      Gh(O)           0.654636000000     0.433879000000    -3.071352000000    15.994914619570
      Gh(H)           0.416601000000     0.627639000000    -2.150429000000     1.007825032230
      Gh(H)           1.079299000000    -0.421006000000    -3.057450000000     1.007825032230
      Gh(O)          -2.751681000000    -1.662134000000    -0.715478000000    15.994914619570
      Gh(H)          -1.767176000000    -1.405085000000    -0.782986000000     1.007825032230
      Gh(H)          -2.615721000000    -2.522329000000    -0.314722000000     1.007825032230
      Gh(O)          -0.054526000000    -2.456372000000     1.915545000000    15.994914619570
      Gh(H)          -0.644121000000    -2.325736000000     2.724853000000     1.007825032230
      Gh(H)          -0.025853000000    -1.607846000000     1.466047000000     1.007825032230

  Running in c1 symmetry.

  Rotational constants: A =      0.04614  B =      0.04013  C =      0.02488 [cm^-1]
  Rotational constants: A =   1383.20878  B =   1202.91791  C =    745.97541 [MHz]
  Nuclear repulsion =    0.000000000000000

  Charge       = -1
  Multiplicity = 1
  Electrons    = 18
  Nalpha       = 9
  Nbeta        = 9

  ==> Algorithm <==

  SCF Algorithm Type is DF.
  DIIS enabled.
  MOM disabled.
  Fractional occupation disabled.
  Guess Type is SAD.
  Energy threshold   = 1.00e-08
  Density threshold  = 1.00e-08
  Integral threshold = 1.00e-12

  ==> Primary Basis <==

  Basis Set: AUG-CC-PVTZ
    Blend: AUG-CC-PVTZ
    Number of shells: 144
    Number of basis functions: 418
    Number of Cartesian functions: 479
    Spherical Harmonics?: true
    Max angular momentum: 3

   => Loading Basis Set <=

    Name: (AUG-CC-PVTZ AUX)
    Role: JKFIT
    Keyword: DF_BASIS_SCF
    atoms 1                     entry CL         line   816 file /ddmfs1b/softs/psi4conda/share/psi4/basis/aug-cc-pvtz-jkfit.gbs 
    atoms 2, 5, 8, 11           entry O          line   286 file /ddmfs1b/softs/psi4conda/share/psi4/basis/aug-cc-pvtz-jkfit.gbs 
    atoms 3-4, 6-7, 9-10, 12-13 entry H          line    70 file /ddmfs1b/softs/psi4conda/share/psi4/basis/aug-cc-pvtz-jkfit.gbs 

  ==> Integral Setup <==

  ==> DiskDFJK: Density-Fitted J/K Matrices <==

    J tasked:                  Yes
    K tasked:                  Yes
    wK tasked:                  No
    OpenMP threads:             20
    Integrals threads:          20
    Memory [MiB]:            42915
    Algorithm:                Core
    Integral Cache:           LOAD
    Schwarz Cutoff:          1E-12
    Fitting Condition:       1E-10

   => Auxiliary Basis Set <=

  Basis Set: (AUG-CC-PVTZ AUX)
    Blend: AUG-CC-PVTZ-JKFIT
    Number of shells: 274
    Number of basis functions: 930
    Number of Cartesian functions: 1144
    Spherical Harmonics?: true
    Max angular momentum: 4

  Minimum eigenvalue in the overlap matrix is 2.1131683105E-04.
  Reciprocal condition number of the overlap matrix is 2.0203770594E-05.
    Using symmetric orthogonalization.

  ==> Pre-Iterations <==

  SCF Guess: Superposition of Atomic Densities via on-the-fly atomic UHF (no occupation information).

   -------------------------
    Irrep   Nso     Nmo    
   -------------------------
     A        418     418 
   -------------------------
    Total     418     418
   -------------------------

  ==> Iterations <==

                           Total Energy        Delta E     RMS |[F,P]|

   @DF-RHF iter SAD:  -459.11248998030334   -4.59112e+02   0.00000e+00 
   @DF-RHF iter   1:  -459.51389220634263   -4.01402e-01   7.14451e-04 ADIIS/DIIS
   @DF-RHF iter   2:  -459.56480092983446   -5.09087e-02   3.66002e-04 ADIIS/DIIS
   @DF-RHF iter   3:  -459.57350000860293   -8.69908e-03   2.54097e-05 DIIS
   @DF-RHF iter   4:  -459.57355733580471   -5.73272e-05   4.99910e-06 DIIS
   @DF-RHF iter   5:  -459.57356096633117   -3.63053e-06   5.14554e-07 DIIS
   @DF-RHF iter   6:  -459.57356104940675   -8.30756e-08   4.55483e-08 DIIS
   @DF-RHF iter   7:  -459.57356105038212   -9.75376e-10   5.34933e-09 DIIS
  Energy and wave function converged.


  ==> Post-Iterations <==

    Orbital Energies [Eh]
    ---------------------

    Doubly Occupied:                                                      

       1A   -104.506952     2A    -10.229978     3A     -7.696065  
       4A     -7.696023     5A     -7.696006     6A     -0.733472  
       7A     -0.150315     8A     -0.150312     9A     -0.150303  

    Virtual:                                                              

      10A      0.123229    11A      0.131485    12A      0.137528  
      13A      0.144024    14A      0.157396    15A      0.166501  
      16A      0.173126    17A      0.184453    18A      0.233920  
      19A      0.243963    20A      0.251663    21A      0.258834  
      22A      0.262071    23A      0.265845    24A      0.269801  
      25A      0.273223    26A      0.277203    27A      0.296241  
      28A      0.298447    29A      0.311705    30A      0.314399  
      31A      0.320537    32A      0.327737    33A      0.330394  
      34A      0.345099    35A      0.359945    36A      0.366135  
      37A      0.390015    38A      0.396597    39A      0.402132  
      40A      0.424869    41A      0.431529    42A      0.435472  
      43A      0.439379    44A      0.448032    45A      0.455969  
      46A      0.467647    47A      0.478023    48A      0.492127  
      49A      0.492821    50A      0.501566    51A      0.509629  
      52A      0.512230    53A      0.516079    54A      0.531951  
      55A      0.536519    56A      0.544650    57A      0.552897  
      58A      0.560364    59A      0.565720    60A      0.581112  
      61A      0.590032    62A      0.610118    63A      0.616580  
      64A      0.629992    65A      0.639735    66A      0.655318  
      67A      0.664914    68A      0.692926    69A      0.703466  
      70A      0.731154    71A      0.752840    72A      0.770623  
      73A      0.790287    74A      0.803578    75A      0.830931  
      76A      0.838441    77A      0.851978    78A      0.865514  
      79A      0.868771    80A      0.874610    81A      0.882877  
      82A      0.899205    83A      0.921340    84A      0.925401  
      85A      0.933486    86A      0.941738    87A      0.944256  
      88A      0.949961    89A      0.954862    90A      0.961082  
      91A      0.967782    92A      0.973227    93A      0.976887  
      94A      0.987372    95A      0.993633    96A      0.995634  
      97A      1.006746    98A      1.010209    99A      1.019327  
     100A      1.031818   101A      1.039528   102A      1.047740  
     103A      1.050755   104A      1.055691   105A      1.063941  
     106A      1.074032   107A      1.079071   108A      1.089681  
     109A      1.097579   110A      1.102609   111A      1.106254  
     112A      1.116161   113A      1.128014   114A      1.134801  
     115A      1.138917   116A      1.145437   117A      1.152044  
     118A      1.155487   119A      1.168923   120A      1.172486  
     121A      1.181822   122A      1.189186   123A      1.199356  
     124A      1.209190   125A      1.210685   126A      1.234506  
     127A      1.237808   128A      1.245503   129A      1.251459  
     130A      1.265532   131A      1.288290   132A      1.297336  
     133A      1.304771   134A      1.317500   135A      1.333932  
     136A      1.350227   137A      1.356399   138A      1.358555  
     139A      1.384586   140A      1.392994   141A      1.412755  
     142A      1.420373   143A      1.428543   144A      1.444295  
     145A      1.455111   146A      1.480544   147A      1.480956  
     148A      1.492215   149A      1.502610   150A      1.514799  
     151A      1.517372   152A      1.557319   153A      1.573233  
     154A      1.586004   155A      1.590431   156A      1.617777  
     157A      1.625497   158A      1.647426   159A      1.667485  
     160A      1.684800   161A      1.696990   162A      1.719233  
     163A      1.750389   164A      1.779995   165A      1.807427  
     166A      1.820137   167A      1.837601   168A      1.853472  
     169A      1.870916   170A      1.879349   171A      1.883683  
     172A      1.895030   173A      1.906085   174A      1.921271  
     175A      1.922060   176A      1.938840   177A      1.944711  
     178A      1.963971   179A      1.978131   180A      1.983374  
     181A      1.996587   182A      2.002041   183A      2.019850  
     184A      2.042806   185A      2.058325   186A      2.060704  
     187A      2.082201   188A      2.098718   189A      2.125145  
     190A      2.167527   191A      2.190322   192A      2.213710  
     193A      2.262293   194A      2.267078   195A      2.294296  
     196A      2.326946   197A      2.395196   198A      2.419010  
     199A      2.598392   200A      2.605690   201A      2.611755  
     202A      2.625871   203A      2.636477   204A      2.642681  
     205A      2.645981   206A      2.665575   207A      2.684365  
     208A      2.692346   209A      2.704206   210A      2.728212  
     211A      2.731202   212A      2.738567   213A      2.758140  
     214A      2.762778   215A      2.783204   216A      2.785881  
     217A      2.792263   218A      2.801830   219A      2.814251  
     220A      2.825645   221A      2.826698   222A      2.830759  
     223A      2.858035   224A      2.868528   225A      2.886104  
     226A      2.890516   227A      2.924248   228A      2.931541  
     229A      2.952872   230A      2.999200   231A      3.021386  
     232A      3.033207   233A      3.052727   234A      3.104260  
     235A      3.114229   236A      3.129231   237A      3.160321  
     238A      3.182146   239A      3.233780   240A      3.280957  
     241A      3.310066   242A      3.318426   243A      3.332842  
     244A      3.339676   245A      3.357320   246A      3.361693  
     247A      3.383173   248A      3.391420   249A      3.417453  
     250A      3.429411   251A      3.453626   252A      3.472189  
     253A      3.508815   254A      3.523247   255A      3.547295  
     256A      3.556299   257A      3.572912   258A      3.592908  
     259A      3.599534   260A      3.609550   261A      3.624931  
     262A      3.679434   263A      3.685955   264A      3.700053  
     265A      3.727140   266A      3.739915   267A      3.754055  
     268A      3.773133   269A      3.805033   270A      3.818019  
     271A      3.899113   272A      3.931777   273A      3.946556  
     274A      3.986904   275A      3.990394   276A      4.037992  
     277A      4.099740   278A      4.525462   279A      4.545297  
     280A      4.562573   281A      4.587276   282A      4.599062  
     283A      4.602396   284A      4.635465   285A      4.639499  
     286A      4.659317   287A      4.694805   288A      4.720691  
     289A      4.745564   290A      4.779482   291A      4.789233  
     292A      4.796051   293A      4.803332   294A      4.822881  
     295A      4.832891   296A      4.859893   297A      4.874550  
     298A      4.990386   299A      4.999011   300A      5.008764  
     301A      5.020754   302A      5.035510   303A      5.044300  
     304A      5.054279   305A      5.076106   306A      5.107882  
     307A      5.155713   308A      5.159523   309A      5.164643  
     310A      5.181875   311A      5.219171   312A      5.226196  
     313A      5.243274   314A      5.385523   315A      5.409414  
     316A      5.452734   317A      5.477674   318A      5.605807  
     319A      5.630138   320A      5.632567   321A      5.674922  
     322A      5.690448   323A      5.723605   324A      5.726647  
     325A      5.782926   326A      5.790359   327A      5.806341  
     328A      5.843998   329A      5.880893   330A      5.937852  
     331A      5.980045   332A      6.024185   333A      6.056504  
     334A      6.313881   335A      6.317955   336A      6.328690  
     337A      6.353843   338A      6.392790   339A      6.482140  
     340A      6.538879   341A      6.612899   342A      6.699528  
     343A      6.747757   344A      6.769036   345A      6.841167  
     346A      7.134351   347A      7.142969   348A      7.190279  
     349A      7.255722   350A      7.402992   351A      7.853485  
     352A      7.878143   353A      7.883726   354A      7.902830  
     355A      7.948201   356A      7.966655   357A      8.010082  
     358A      8.060964   359A      8.159843   360A      8.190427  
     361A      8.196808   362A      8.211577   363A      8.243929  
     364A      8.332821   365A      8.360617   366A      8.389815  
     367A      8.425784   368A      8.430483   369A      8.441584  
     370A      8.459070   371A      8.775765   372A      8.823776  
     373A      8.872984   374A      8.948648   375A      8.972672  
     376A      8.973256   377A      9.096187   378A      9.109018  
     379A      9.767498   380A      9.844340   381A      9.881320  
     382A      9.892219   383A     10.007214   384A     10.029127  
     385A     10.045173   386A     10.057131   387A     10.206920  
     388A     10.209573   389A     10.226827   390A     10.252703  
     391A     10.429108   392A     10.443829   393A     10.477955  
     394A     10.490412   395A     11.185591   396A     11.207247  
     397A     11.211120   398A     11.386647   399A     11.841296  
     400A     11.866782   401A     11.874282   402A     11.906387  
     403A     12.027040   404A     12.072093   405A     12.208549  
     406A     12.311866   407A     13.573050   408A     13.642263  
     409A     13.650266   410A     13.750101   411A     14.025857  
     412A     14.066156   413A     14.106738   414A     14.176854  
     415A     63.904840   416A     64.628924   417A     65.526371  
     418A     66.092590  

    Final Occupation by Irrep:
              A 
    DOCC [     9 ]
    NA   [     9 ]
    NB   [     9 ]

  @DF-RHF Final Energy:  -459.57356105038212

   => Energetics <=

    Nuclear Repulsion Energy =              0.0000000000000000
    One-Electron Energy =                -641.1282844347091441
    Two-Electron Energy =                 181.5547233843270192
    Total Energy =                       -459.5735610503821249

Computation Completed


Properties will be evaluated at   0.000000,   0.000000,   0.000000 [a0]

Properties computed using the SCF density matrix


 Multipole Moments:

 ------------------------------------------------------------------------------------
     Multipole            Electronic (a.u.)      Nuclear  (a.u.)        Total (a.u.)
 ------------------------------------------------------------------------------------

 L = 1.  Multiply by 2.5417464519 to convert [e a0] to [Debye]
 Dipole X            :          0.0000284            0.0000000            0.0000284
 Dipole Y            :         -0.0000730            0.0000000           -0.0000730
 Dipole Z            :          0.0000065            0.0000000            0.0000065
 Magnitude           :                                                    0.0000786

 ------------------------------------------------------------------------------------

*** tstop() called on ddmfs1 at Sat Jan 13 06:35:39 2024
Module time:
	user time   =      61.74 seconds =       1.03 minutes
	system time =       2.53 seconds =       0.04 minutes
	total time  =          4 seconds =       0.07 minutes
Total time:
	user time   =     168.18 seconds =       2.80 minutes
	system time =      13.09 seconds =       0.22 minutes
	total time  =         12 seconds =       0.20 minutes

  //>>>>>>>>>>>>>>>>>>>>>>>>>>>>>>>>>>>//
  //            Monomer B HF           //
  //<<<<<<<<<<<<<<<<<<<<<<<<<<<<<<<<<<<//

   => Libint2 <=

    Primary   basis highest AM E, G, H:  5, 4, 3
    Auxiliary basis highest AM E, G, H:  6, 5, 4
    Onebody   basis highest AM E, G, H:  6, 5, 4
    Solid Harmonics ordering:            gaussian

*** tstart() called on ddmfs1
*** at Sat Jan 13 06:35:39 2024

   => Loading Basis Set <=

    Name: AUG-CC-PVTZ
    Role: ORBITAL
    Keyword: BASIS
    atoms 1                     entry CL         line   988 file /ddmfs1b/softs/psi4conda/share/psi4/basis/aug-cc-pvtz.gbs 
    atoms 2, 5, 8, 11           entry O          line   331 file /ddmfs1b/softs/psi4conda/share/psi4/basis/aug-cc-pvtz.gbs 
    atoms 3-4, 6-7, 9-10, 12-13 entry H          line    40 file /ddmfs1b/softs/psi4conda/share/psi4/basis/aug-cc-pvtz.gbs 


         ---------------------------------------------------------
                                   SCF
               by Justin Turney, Rob Parrish, Andy Simmonett
                          and Daniel G. A. Smith
                              RHF Reference
                       20 Threads,  57220 MiB Core
         ---------------------------------------------------------

  ==> Geometry <==

    Molecular point group: c1
    Full point group: C1

    Geometry (in Angstrom), charge = 0, multiplicity = 1:

       Center              X                  Y                   Z               Mass       
    ------------   -----------------  -----------------  -----------------  -----------------
      Gh(CL)          0.000000000000     0.000000000000     0.000000000000    34.968852682000
         O            1.279422000000     1.813072000000     2.395684000000    15.994914619570
         H            0.682919000000     1.310388000000     1.792513000000     1.007825032230
         H            1.966367000000     1.174297000000     2.713761000000     1.007825032230
         O            0.654636000000     0.433879000000    -3.071352000000    15.994914619570
         H            0.416601000000     0.627639000000    -2.150429000000     1.007825032230
         H            1.079299000000    -0.421006000000    -3.057450000000     1.007825032230
         O           -2.751681000000    -1.662134000000    -0.715478000000    15.994914619570
         H           -1.767176000000    -1.405085000000    -0.782986000000     1.007825032230
         H           -2.615721000000    -2.522329000000    -0.314722000000     1.007825032230
         O           -0.054526000000    -2.456372000000     1.915545000000    15.994914619570
         H           -0.644121000000    -2.325736000000     2.724853000000     1.007825032230
         H           -0.025853000000    -1.607846000000     1.466047000000     1.007825032230

  Running in c1 symmetry.

  Rotational constants: A =      0.04614  B =      0.04013  C =      0.02488 [cm^-1]
  Rotational constants: A =   1383.20878  B =   1202.91791  C =    745.97541 [MHz]
  Nuclear repulsion =  101.673591488922995

  Charge       = 0
  Multiplicity = 1
  Electrons    = 40
  Nalpha       = 20
  Nbeta        = 20

  ==> Algorithm <==

  SCF Algorithm Type is DF.
  DIIS enabled.
  MOM disabled.
  Fractional occupation disabled.
  Guess Type is SAD.
  Energy threshold   = 1.00e-08
  Density threshold  = 1.00e-08
  Integral threshold = 1.00e-12

  ==> Primary Basis <==

  Basis Set: AUG-CC-PVTZ
    Blend: AUG-CC-PVTZ
    Number of shells: 144
    Number of basis functions: 418
    Number of Cartesian functions: 479
    Spherical Harmonics?: true
    Max angular momentum: 3

   => Loading Basis Set <=

    Name: (AUG-CC-PVTZ AUX)
    Role: JKFIT
    Keyword: DF_BASIS_SCF
    atoms 1                     entry CL         line   816 file /ddmfs1b/softs/psi4conda/share/psi4/basis/aug-cc-pvtz-jkfit.gbs 
    atoms 2, 5, 8, 11           entry O          line   286 file /ddmfs1b/softs/psi4conda/share/psi4/basis/aug-cc-pvtz-jkfit.gbs 
    atoms 3-4, 6-7, 9-10, 12-13 entry H          line    70 file /ddmfs1b/softs/psi4conda/share/psi4/basis/aug-cc-pvtz-jkfit.gbs 

  ==> Integral Setup <==

  ==> DiskDFJK: Density-Fitted J/K Matrices <==

    J tasked:                  Yes
    K tasked:                  Yes
    wK tasked:                  No
    OpenMP threads:             20
    Integrals threads:          20
    Memory [MiB]:            42915
    Algorithm:                Core
    Integral Cache:           LOAD
    Schwarz Cutoff:          1E-12
    Fitting Condition:       1E-10

   => Auxiliary Basis Set <=

  Basis Set: (AUG-CC-PVTZ AUX)
    Blend: AUG-CC-PVTZ-JKFIT
    Number of shells: 274
    Number of basis functions: 930
    Number of Cartesian functions: 1144
    Spherical Harmonics?: true
    Max angular momentum: 4

  Minimum eigenvalue in the overlap matrix is 2.1131683105E-04.
  Reciprocal condition number of the overlap matrix is 2.0203770594E-05.
    Using symmetric orthogonalization.

  ==> Pre-Iterations <==

  SCF Guess: Superposition of Atomic Densities via on-the-fly atomic UHF (no occupation information).

   -------------------------
    Irrep   Nso     Nmo    
   -------------------------
     A        418     418 
   -------------------------
    Total     418     418
   -------------------------

  ==> Iterations <==

                           Total Energy        Delta E     RMS |[F,P]|

   @DF-RHF iter SAD:  -301.82759301780823   -3.01828e+02   0.00000e+00 
   @DF-RHF iter   1:  -303.87901747715335   -2.05142e+00   2.23794e-03 ADIIS/DIIS
   @DF-RHF iter   2:  -304.08673822802626   -2.07721e-01   1.57083e-03 ADIIS/DIIS
   @DF-RHF iter   3:  -304.22176148673236   -1.35023e-01   1.08111e-04 ADIIS/DIIS
   @DF-RHF iter   4:  -304.22350829863217   -1.74681e-03   2.81523e-05 DIIS
   @DF-RHF iter   5:  -304.22363291700202   -1.24618e-04   8.34144e-06 DIIS
   @DF-RHF iter   6:  -304.22364458585156   -1.16688e-05   3.83687e-06 DIIS
   @DF-RHF iter   7:  -304.22364626515179   -1.67930e-06   8.18360e-07 DIIS
   @DF-RHF iter   8:  -304.22364643053203   -1.65380e-07   1.40767e-07 DIIS
   @DF-RHF iter   9:  -304.22364643496104   -4.42901e-09   4.14407e-08 DIIS
   @DF-RHF iter  10:  -304.22364643514464   -1.83604e-10   1.55687e-08 DIIS
   @DF-RHF iter  11:  -304.22364643517750   -3.28555e-11   4.12535e-09 DIIS
  Energy and wave function converged.


  ==> Post-Iterations <==

    Orbital Energies [Eh]
    ---------------------

    Doubly Occupied:                                                      

       1A    -20.597531     2A    -20.587006     3A    -20.584416  
       4A    -20.578285     5A     -1.365642     6A     -1.360454  
       7A     -1.352313     8A     -1.351928     9A     -0.732648  
      10A     -0.727964    11A     -0.720215    12A     -0.694784  
      13A     -0.602834    14A     -0.601570    15A     -0.591090  
      16A     -0.589364    17A     -0.534539    18A     -0.522194  
      19A     -0.519833    20A     -0.518212  

    Virtual:                                                              

      21A      0.007224    22A      0.029913    23A      0.034343  
      24A      0.040753    25A      0.052994    26A      0.057393  
      27A      0.069173    28A      0.075443    29A      0.092819  
      30A      0.105750    31A      0.119037    32A      0.122410  
      33A      0.140608    34A      0.144364    35A      0.152348  
      36A      0.166367    37A      0.169818    38A      0.172686  
      39A      0.177362    40A      0.183938    41A      0.187991  
      42A      0.199612    43A      0.204568    44A      0.206624  
      45A      0.214486    46A      0.219105    47A      0.222228  
      48A      0.227862    49A      0.238778    50A      0.239574  
      51A      0.265088    52A      0.267508    53A      0.273183  
      54A      0.282155    55A      0.288802    56A      0.296038  
      57A      0.299304    58A      0.305935    59A      0.311507  
      60A      0.321568    61A      0.324123    62A      0.331324  
      63A      0.343162    64A      0.357748    65A      0.373416  
      66A      0.382241    67A      0.391457    68A      0.400499  
      69A      0.411695    70A      0.423276    71A      0.425900  
      72A      0.432468    73A      0.448838    74A      0.454948  
      75A      0.467062    76A      0.472488    77A      0.488405  
      78A      0.503186    79A      0.518421    80A      0.522638  
      81A      0.563882    82A      0.568695    83A      0.576566  
      84A      0.599896    85A      0.611398    86A      0.614162  
      87A      0.628919    88A      0.639853    89A      0.643397  
      90A      0.653401    91A      0.662871    92A      0.674924  
      93A      0.688991    94A      0.697462    95A      0.708015  
      96A      0.709505    97A      0.712091    98A      0.721575  
      99A      0.734540   100A      0.738624   101A      0.750771  
     102A      0.754394   103A      0.762863   104A      0.768554  
     105A      0.777916   106A      0.788110   107A      0.806134  
     108A      0.813358   109A      0.829485   110A      0.852458  
     111A      0.858540   112A      0.868250   113A      0.880634  
     114A      0.888021   115A      0.892502   116A      0.902294  
     117A      0.911932   118A      0.914327   119A      0.918387  
     120A      0.929070   121A      0.930668   122A      0.937173  
     123A      0.947257   124A      0.948518   125A      0.954226  
     126A      0.961942   127A      0.967234   128A      0.976636  
     129A      0.992259   130A      0.994669   131A      1.002616  
     132A      1.005221   133A      1.019626   134A      1.020889  
     135A      1.024933   136A      1.037652   137A      1.046196  
     138A      1.052202   139A      1.059816   140A      1.063936  
     141A      1.074178   142A      1.096678   143A      1.104388  
     144A      1.113172   145A      1.127285   146A      1.136868  
     147A      1.158053   148A      1.166419   149A      1.175512  
     150A      1.187046   151A      1.199055   152A      1.210090  
     153A      1.223027   154A      1.233757   155A      1.248485  
     156A      1.258194   157A      1.264313   158A      1.280856  
     159A      1.294385   160A      1.310932   161A      1.313738  
     162A      1.329490   163A      1.350537   164A      1.353879  
     165A      1.363360   166A      1.371327   167A      1.385381  
     168A      1.403388   169A      1.434194   170A      1.463327  
     171A      1.483035   172A      1.497156   173A      1.519252  
     174A      1.534232   175A      1.535135   176A      1.547221  
     177A      1.562224   178A      1.574281   179A      1.584984  
     180A      1.593530   181A      1.597368   182A      1.620343  
     183A      1.631438   184A      1.644624   185A      1.653860  
     186A      1.680573   187A      1.701301   188A      1.704064  
     189A      1.730946   190A      1.741135   191A      1.763583  
     192A      1.783973   193A      1.789401   194A      1.810915  
     195A      1.841707   196A      1.852890   197A      1.872575  
     198A      1.907320   199A      1.922673   200A      1.934225  
     201A      1.955714   202A      1.986077   203A      1.994165  
     204A      2.031722   205A      2.035289   206A      2.059698  
     207A      2.090074   208A      2.150231   209A      2.199440  
     210A      2.271555   211A      2.277080   212A      2.281433  
     213A      2.306218   214A      2.321772   215A      2.342499  
     216A      2.366655   217A      2.375398   218A      2.386999  
     219A      2.388639   220A      2.414742   221A      2.420622  
     222A      2.438744   223A      2.445130   224A      2.452401  
     225A      2.465690   226A      2.470980   227A      2.480010  
     228A      2.484630   229A      2.492371   230A      2.493830  
     231A      2.511690   232A      2.520536   233A      2.532515  
     234A      2.554758   235A      2.561298   236A      2.590504  
     237A      2.617038   238A      2.634863   239A      2.669106  
     240A      2.700459   241A      2.719782   242A      2.730521  
     243A      2.743486   244A      2.752206   245A      2.758827  
     246A      2.763398   247A      2.771948   248A      2.777902  
     249A      2.788151   250A      2.820935   251A      2.829668  
     252A      2.836313   253A      2.864608   254A      2.883469  
     255A      2.925687   256A      2.945651   257A      2.956468  
     258A      2.963365   259A      3.002036   260A      3.023060  
     261A      3.095070   262A      3.653704   263A      3.655784  
     264A      3.702172   265A      3.728138   266A      3.759954  
     267A      3.823547   268A      3.870373   269A      3.876670  
     270A      3.987879   271A      4.001004   272A      4.007994  
     273A      4.020584   274A      4.057986   275A      4.068523  
     276A      4.082424   277A      4.091761   278A      4.110302  
     279A      4.141554   280A      4.151613   281A      4.166485  
     282A      4.185332   283A      4.189253   284A      4.208595  
     285A      4.223887   286A      4.227167   287A      4.242918  
     288A      4.246754   289A      4.250790   290A      4.254375  
     291A      4.260668   292A      4.285383   293A      4.307111  
     294A      4.310548   295A      4.321727   296A      4.329365  
     297A      4.345095   298A      4.354918   299A      4.373844  
     300A      4.376617   301A      4.389587   302A      4.403973  
     303A      4.415915   304A      4.432689   305A      4.440384  
     306A      4.443925   307A      4.456446   308A      4.468153  
     309A      4.474512   310A      4.485556   311A      4.495499  
     312A      4.555012   313A      4.580564   314A      4.593018  
     315A      4.602656   316A      4.693967   317A      4.704853  
     318A      4.713081   319A      4.752666   320A      4.757288  
     321A      4.771662   322A      4.813550   323A      4.827961  
     324A      4.852192   325A      4.875763   326A      4.887784  
     327A      4.957817   328A      5.026734   329A      5.062381  
     330A      5.075568   331A      5.090860   332A      5.097209  
     333A      5.133224   334A      5.153804   335A      5.164280  
     336A      5.175481   337A      5.252787   338A      5.267496  
     339A      5.284023   340A      5.289080   341A      5.305958  
     342A      5.338592   343A      5.344207   344A      5.395990  
     345A      5.406599   346A      5.456760   347A      5.483648  
     348A      5.497101   349A      5.544827   350A      5.572058  
     351A      5.693705   352A      5.707367   353A      5.735181  
     354A      6.137876   355A      6.171337   356A      6.200749  
     357A      6.278640   358A      6.516057   359A      6.545494  
     360A      6.555001   361A      6.558548   362A      6.733913  
     363A      6.759131   364A      6.764607   365A      6.785076  
     366A      6.851689   367A      6.872288   368A      6.914628  
     369A      6.976678   370A      7.086978   371A      7.094626  
     372A      7.106868   373A      7.140454   374A      7.166928  
     375A      7.233960   376A      7.236532   377A      7.270476  
     378A      7.282171   379A      7.285288   380A      7.297709  
     381A      7.299776   382A      7.310043   383A      7.317233  
     384A      7.324557   385A      7.340711   386A      7.354281  
     387A      7.370752   388A      7.386604   389A      7.407703  
     390A      7.423524   391A      7.440055   392A      7.448700  
     393A      7.487908   394A      7.542594   395A      7.605305  
     396A      7.663901   397A      7.669712   398A      7.812633  
     399A      7.866798   400A      7.892808   401A      7.937596  
     402A      7.939726   403A      7.957893   404A      7.961164  
     405A      8.000217   406A      8.650440   407A      8.659215  
     408A      8.713510   409A      8.806591   410A     15.227224  
     411A     15.256998   412A     15.754925   413A     16.013448  
     414A     16.424446   415A     27.856602   416A     28.169171  
     417A     28.306792   418A    160.865071  

    Final Occupation by Irrep:
              A 
    DOCC [    20 ]
    NA   [    20 ]
    NB   [    20 ]

  @DF-RHF Final Energy:  -304.22364643517750

   => Energetics <=

    Nuclear Repulsion Energy =            101.6735914889229946
    One-Electron Energy =                -621.5288223981007150
    Two-Electron Energy =                 215.6315844740002490
    Total Energy =                       -304.2236464351774998

Computation Completed


Properties will be evaluated at   0.000000,   0.000000,   0.000000 [a0]

Properties computed using the SCF density matrix


 Multipole Moments:

 ------------------------------------------------------------------------------------
     Multipole            Electronic (a.u.)      Nuclear  (a.u.)        Total (a.u.)
 ------------------------------------------------------------------------------------

 L = 1.  Multiply by 2.5417464519 to convert [e a0] to [Debye]
 Dipole X            :         15.4265391          -14.9002581            0.5262810
 Dipole Y            :         37.1063438          -38.0630866           -0.9567428
 Dipole Z            :        -11.5390838           12.4472084            0.9081245
 Magnitude           :                                                    1.4202178

 ------------------------------------------------------------------------------------

*** tstop() called on ddmfs1 at Sat Jan 13 06:35:45 2024
Module time:
	user time   =      84.68 seconds =       1.41 minutes
	system time =       2.67 seconds =       0.04 minutes
	total time  =          6 seconds =       0.10 minutes
Total time:
	user time   =     252.98 seconds =       4.22 minutes
	system time =      15.76 seconds =       0.26 minutes
	total time  =         18 seconds =       0.30 minutes
  Constructing Basis Sets for SAPT...

   => Loading Basis Set <=

    Name: (AUG-CC-PVTZ AUX)
    Role: RIFIT
    Keyword: DF_BASIS_SAPT
    atoms 1                     entry CL         line   742 file /ddmfs1b/softs/psi4conda/share/psi4/basis/aug-cc-pvtz-ri.gbs 
    atoms 2, 5, 8, 11           entry O          line   264 file /ddmfs1b/softs/psi4conda/share/psi4/basis/aug-cc-pvtz-ri.gbs 
    atoms 3-4, 6-7, 9-10, 12-13 entry H          line    30 file /ddmfs1b/softs/psi4conda/share/psi4/basis/aug-cc-pvtz-ri.gbs 

   => Loading Basis Set <=

    Name: (AUG-CC-PVTZ AUX)
    Role: JKFIT
    Keyword: DF_BASIS_ELST
    atoms 1                     entry CL         line   816 file /ddmfs1b/softs/psi4conda/share/psi4/basis/aug-cc-pvtz-jkfit.gbs 
    atoms 2, 5, 8, 11           entry O          line   286 file /ddmfs1b/softs/psi4conda/share/psi4/basis/aug-cc-pvtz-jkfit.gbs 
    atoms 3-4, 6-7, 9-10, 12-13 entry H          line    70 file /ddmfs1b/softs/psi4conda/share/psi4/basis/aug-cc-pvtz-jkfit.gbs 


  //>>>>>>>>>>>>>>>>>>>>>>>>>>>>>>>>>>>//
  //               SAPT2+              //
  //<<<<<<<<<<<<<<<<<<<<<<<<<<<<<<<<<<<//


*** tstart() called on ddmfs1
*** at Sat Jan 13 06:35:45 2024

        SAPT2+  
    Ed Hohenstein
     6 June 2009

      Orbital Information
  --------------------------
    NSO        =       418
    NMO        =       418
    NRI        =       939
    NOCC A     =         9
    NOCC B     =        20
    FOCC A     =         0
    FOCC B     =         0
    NVIR A     =       409
    NVIR B     =       398

    Estimated memory usage: 2862.5 MB

    Natural Orbital Cutoff:   1.000E-06
    Disp(T3) Truncation:            Yes
    CCD (vv|vv) Truncation:         Yes
    MBPT T2 Truncation:             Yes

    Monomer A: 324 virtual orbitals dropped
    Monomer B: 81 virtual orbitals dropped

    Elst10,r            =    -0.093284363679 [Eh]
    Exch10 (S^2)        =     0.060699026960 [Eh]
    Exch10              =     0.061219032093 [Eh]
    Ind20,r (A<-B)      =    -0.029413683503 [Eh]
    Ind20,r (B<-A)      =    -0.018879868278 [Eh]
    Ind20,r             =    -0.048293551781 [Eh]
    Exch-Ind20,r (A<-B) =     0.021516178728 [Eh]
    Exch-Ind20,r (B<-A) =     0.005290529824 [Eh]
    Exch-Ind20,r        =     0.026806708553 [Eh]
    Disp20              =    -0.026898524803 [Eh]
    Disp20 (NO)         =    -0.023343338624 [Eh]
    Exch-Disp20         =     0.006361364756 [Eh]
    Elst12,r            =    -0.000157161533 [Eh]
    Exch11              =     0.002928694502 [Eh]
    Exch12              =     0.005481287517 [Eh]
    Ind22               =    -0.006415059118 [Eh]
    Disp21              =     0.001577047011 [Eh]
    Disp22 (SDQ)        =     0.000016108719 [Eh]

    (i =   1 of  20)          2 seconds
    (i =   2 of  20)          5 seconds
    (i =   3 of  20)          7 seconds
    (i =   4 of  20)          9 seconds
    (i =   5 of  20)         12 seconds
    (i =   6 of  20)         14 seconds
    (i =   7 of  20)         16 seconds
    (i =   8 of  20)         18 seconds
    (i =   9 of  20)         21 seconds
    (i =  10 of  20)         23 seconds
    (i =  11 of  20)         25 seconds
    (i =  12 of  20)         28 seconds
    (i =  13 of  20)         30 seconds
    (i =  14 of  20)         32 seconds
    (i =  15 of  20)         34 seconds
    (i =  16 of  20)         37 seconds
    (i =  17 of  20)         39 seconds
    (i =  18 of  20)         41 seconds
    (i =  19 of  20)         43 seconds
    (i =  20 of  20)         46 seconds

    Disp220 (T)         =    -0.001900144227 [Eh]

    (i =   1 of   9)         60 seconds
    (i =   2 of   9)        121 seconds
    (i =   3 of   9)        181 seconds
    (i =   4 of   9)        242 seconds
    (i =   5 of   9)        303 seconds
    (i =   6 of   9)        363 seconds
    (i =   7 of   9)        423 seconds
    (i =   8 of   9)        484 seconds
    (i =   9 of   9)        545 seconds

    Disp202 (T)         =    -0.002388489331 [Eh]

    Disp22 (T)          =    -0.004288633558 [Eh]

    Est. Disp220 (T)    =    -0.002189535843 [Eh]
    Est. Disp202 (T)    =    -0.002752255817 [Eh]

    Est. Disp22 (T)     =    -0.004941791660 [Eh]

    SAPT Results 
  --------------------------------------------------------------------------------------------------------
    Electrostatics                -93.44152521 [mEh]     -58.63544231 [kcal/mol]    -245.33069064 [kJ/mol]
      Elst10,r                    -93.28436368 [mEh]     -58.53682196 [kcal/mol]    -244.91806310 [kJ/mol]
      Elst12,r                     -0.15716153 [mEh]      -0.09862035 [kcal/mol]      -0.41262755 [kJ/mol]

    Exchange                       69.62901411 [mEh]      43.69286601 [kcal/mol]     182.81095137 [kJ/mol]
      Exch10                       61.21903209 [mEh]      38.41552261 [kcal/mol]     160.73054662 [kJ/mol]
      Exch10(S^2)                  60.69902696 [mEh]      38.08921447 [kcal/mol]     159.36527333 [kJ/mol]
      Exch11(S^2)                   2.92869450 [mEh]       1.83778355 [kcal/mol]       7.68928636 [kJ/mol]
      Exch12(S^2)                   5.48128752 [mEh]       3.43955985 [kcal/mol]      14.39111839 [kJ/mol]

    Induction                     -31.37841870 [mEh]     -19.69025501 [kcal/mol]     -82.38402694 [kJ/mol]
      Ind20,r                     -48.29355178 [mEh]     -30.30466127 [kcal/mol]    -126.79470273 [kJ/mol]
      Ind22                        -6.41505912 [mEh]      -4.02551037 [kcal/mol]     -16.84273539 [kJ/mol]
      Exch-Ind20,r                 26.80670855 [mEh]      16.82146358 [kcal/mol]      70.38100361 [kJ/mol]
      Exch-Ind22                    3.56086090 [mEh]       2.23447395 [kcal/mol]       9.34903900 [kJ/mol]
      delta HF,r (2)               -7.03737725 [mEh]      -4.41602089 [kcal/mol]     -18.47663142 [kJ/mol]

    Dispersion                    -23.88579598 [mEh]     -14.98856326 [kcal/mol]     -62.71214870 [kJ/mol]
      Disp20                      -26.89852480 [mEh]     -16.87907914 [kcal/mol]     -70.62206714 [kJ/mol]
      Disp21                        1.57704701 [mEh]       0.98961194 [kcal/mol]       4.14053636 [kJ/mol]
      Disp22 (SDQ)                  0.01610872 [mEh]       0.01010837 [kcal/mol]       0.04229344 [kJ/mol]
      Disp22 (T)                   -4.28863356 [mEh]      -2.69115819 [kcal/mol]     -11.25980586 [kJ/mol]
      Est. Disp22 (T)              -4.94179166 [mEh]      -3.10102108 [kcal/mol]     -12.97467222 [kJ/mol]
      Exch-Disp20                   6.36136476 [mEh]       3.99181665 [kcal/mol]      16.70176086 [kJ/mol]

  Total HF                        -60.58955206 [mEh]     -38.02051793 [kcal/mol]    -159.07784703 [kJ/mol]
  Total SAPT0                     -81.12671211 [mEh]     -50.90778043 [kcal/mol]    -212.99815330 [kJ/mol]
  Total SAPT2                     -75.72808985 [mEh]     -47.52009381 [kcal/mol]    -198.82407250 [kJ/mol]
  Total SAPT2+                    -79.07672577 [mEh]     -49.62139458 [kcal/mol]    -207.61591492 [kJ/mol]

  Special recipe for scaled SAPT0 (see Manual):
    Electrostatics sSAPT0         -93.28436368 [mEh]     -58.53682196 [kcal/mol]    -244.91806310 [kJ/mol]
    Exchange sSAPT0                61.21903209 [mEh]      38.41552261 [kcal/mol]     160.73054662 [kJ/mol]
    Induction sSAPT0              -27.82934672 [mEh]     -17.46317871 [kcal/mol]     -73.06593974 [kJ/mol]
    Dispersion sSAPT0             -20.37226306 [mEh]     -12.78378807 [kcal/mol]     -53.48736930 [kJ/mol]
  Total sSAPT0                    -80.26694136 [mEh]     -50.36826614 [kcal/mol]    -210.74082552 [kJ/mol]
  --------------------------------------------------------------------------------------------------------

*** tstop() called on ddmfs1 at Sat Jan 13 06:48:15 2024
Module time:
	user time   =    4995.38 seconds =      83.26 minutes
	system time =      98.48 seconds =       1.64 minutes
	total time  =        750 seconds =      12.50 minutes
Total time:
	user time   =    5251.52 seconds =      87.53 minutes
	system time =     114.37 seconds =       1.91 minutes
	total time  =        768 seconds =      12.80 minutes

    Psi4 stopped on: Saturday, 13 January 2024 06:48AM
    Psi4 wall time for execution: 0:12:47.66

*** Psi4 exiting successfully. Buy a developer a beer!
