
    -----------------------------------------------------------------------
          Psi4: An Open-Source Ab Initio Electronic Structure Package
                               Psi4 1.8.2 release

                         Git: Rev {} zzzzzzz 


    D. G. A. Smith, L. A. Burns, A. C. Simmonett, R. M. Parrish,
    M. C. Schieber, R. Galvelis, P. Kraus, H. Kruse, R. Di Remigio,
    A. Alenaizan, A. M. James, S. Lehtola, J. P. Misiewicz, M. Scheurer,
    R. A. Shaw, J. B. Schriber, Y. Xie, Z. L. Glick, D. A. Sirianni,
    J. S. O'Brien, J. M. Waldrop, A. Kumar, E. G. Hohenstein,
    B. P. Pritchard, B. R. Brooks, H. F. Schaefer III, A. Yu. Sokolov,
    K. Patkowski, A. E. DePrince III, U. Bozkaya, R. A. King,
    F. A. Evangelista, J. M. Turney, T. D. Crawford, C. D. Sherrill,
    J. Chem. Phys. 152(18) 184108 (2020). https://doi.org/10.1063/5.0006002

                            Additional Code Authors
    E. T. Seidl, C. L. Janssen, E. F. Valeev, M. L. Leininger,
    J. F. Gonthier, R. M. Richard, H. R. McAlexander, M. Saitow, X. Wang,
    P. Verma, M. H. Lechner, A. Jiang, S. Behnle, A. G. Heide,
    M. F. Herbst, and D. L. Poole

             Previous Authors, Complete List of Code Contributors,
                       and Citations for Specific Modules
    https://github.com/psi4/psi4/blob/master/codemeta.json
    https://github.com/psi4/psi4/graphs/contributors
    http://psicode.org/psi4manual/master/introduction.html#citing-psifour

    -----------------------------------------------------------------------


    Psi4 started on: Sunday, 14 January 2024 11:44AM

    Process ID: 287649
    Host:       ddmfs1
    PSIDATADIR: /ddmfs1b/softs/psi4conda/share/psi4
    Memory:     500.0 MiB
    Threads:    20
    
  ==> Input File <==

--------------------------------------------------------------------------
MEMORY 60 GB

molecule dimer {
-1 1
Cl     0.000000     0.000000     0.000000
--
0 1
O      0.309276     2.230580     2.384255
H      0.172358     1.780632     1.568707
H      0.070820     1.580932     3.070981
O     -3.106756    -1.201459     0.184859
H     -3.615730    -1.153433    -0.609588
H     -2.337299    -0.547263     0.106862
O      2.375058     0.829933    -1.953883
H      2.611264     1.792549    -2.051113
H      1.790705     0.628269    -1.215983
O     -0.849852     2.660511    -1.102632
H     -0.932491     2.833868    -2.029998
H     -0.711092     1.689129    -1.111696

units ang
no_reorient
no_com
symmetry c1
}

set {
basis        aug-cc-pVTZ
scf_type     df
}

energy("sapt2+")
--------------------------------------------------------------------------

  Memory set to  55.879 GiB by Python driver.

Scratch directory: /ddmfs1a/scratch/
   => Loading Basis Set <=

    Name: AUG-CC-PVTZ
    Role: ORBITAL
    Keyword: BASIS
    atoms 1                     entry CL         line   988 file /ddmfs1b/softs/psi4conda/share/psi4/basis/aug-cc-pvtz.gbs 
    atoms 2, 5, 8, 11           entry O          line   331 file /ddmfs1b/softs/psi4conda/share/psi4/basis/aug-cc-pvtz.gbs 
    atoms 3-4, 6-7, 9-10, 12-13 entry H          line    40 file /ddmfs1b/softs/psi4conda/share/psi4/basis/aug-cc-pvtz.gbs 

   => Loading Basis Set <=

    Name: AUG-CC-PVTZ
    Role: ORBITAL
    Keyword: BASIS
    atoms 1                     entry CL         line   988 file /ddmfs1b/softs/psi4conda/share/psi4/basis/aug-cc-pvtz.gbs 
    atoms 2, 5, 8, 11           entry O          line   331 file /ddmfs1b/softs/psi4conda/share/psi4/basis/aug-cc-pvtz.gbs 
    atoms 3-4, 6-7, 9-10, 12-13 entry H          line    40 file /ddmfs1b/softs/psi4conda/share/psi4/basis/aug-cc-pvtz.gbs 


  //>>>>>>>>>>>>>>>>>>>>>>>>>>>>>>>>>>>//
  //              Dimer HF             //
  //<<<<<<<<<<<<<<<<<<<<<<<<<<<<<<<<<<<//

   => Libint2 <=

    Primary   basis highest AM E, G, H:  5, 4, 3
    Auxiliary basis highest AM E, G, H:  6, 5, 4
    Onebody   basis highest AM E, G, H:  6, 5, 4
    Solid Harmonics ordering:            gaussian

*** tstart() called on ddmfs1
*** at Sun Jan 14 11:44:56 2024

   => Loading Basis Set <=

    Name: AUG-CC-PVTZ
    Role: ORBITAL
    Keyword: BASIS
    atoms 1                     entry CL         line   988 file /ddmfs1b/softs/psi4conda/share/psi4/basis/aug-cc-pvtz.gbs 
    atoms 2, 5, 8, 11           entry O          line   331 file /ddmfs1b/softs/psi4conda/share/psi4/basis/aug-cc-pvtz.gbs 
    atoms 3-4, 6-7, 9-10, 12-13 entry H          line    40 file /ddmfs1b/softs/psi4conda/share/psi4/basis/aug-cc-pvtz.gbs 


         ---------------------------------------------------------
                                   SCF
               by Justin Turney, Rob Parrish, Andy Simmonett
                          and Daniel G. A. Smith
                              RHF Reference
                       20 Threads,  57220 MiB Core
         ---------------------------------------------------------

  ==> Geometry <==

    Molecular point group: c1
    Full point group: C1

    Geometry (in Angstrom), charge = -1, multiplicity = 1:

       Center              X                  Y                   Z               Mass       
    ------------   -----------------  -----------------  -----------------  -----------------
         CL           0.000000000000     0.000000000000     0.000000000000    34.968852682000
         O            0.309276000000     2.230580000000     2.384255000000    15.994914619570
         H            0.172358000000     1.780632000000     1.568707000000     1.007825032230
         H            0.070820000000     1.580932000000     3.070981000000     1.007825032230
         O           -3.106756000000    -1.201459000000     0.184859000000    15.994914619570
         H           -3.615730000000    -1.153433000000    -0.609588000000     1.007825032230
         H           -2.337299000000    -0.547263000000     0.106862000000     1.007825032230
         O            2.375058000000     0.829933000000    -1.953883000000    15.994914619570
         H            2.611264000000     1.792549000000    -2.051113000000     1.007825032230
         H            1.790705000000     0.628269000000    -1.215983000000     1.007825032230
         O           -0.849852000000     2.660511000000    -1.102632000000    15.994914619570
         H           -0.932491000000     2.833868000000    -2.029998000000     1.007825032230
         H           -0.711092000000     1.689129000000    -1.111696000000     1.007825032230

  Running in c1 symmetry.

  Rotational constants: A =      0.04498  B =      0.03330  C =      0.02889 [cm^-1]
  Rotational constants: A =   1348.60837  B =    998.22321  C =    866.15874 [MHz]
  Nuclear repulsion =  221.841211732265549

  Charge       = -1
  Multiplicity = 1
  Electrons    = 58
  Nalpha       = 29
  Nbeta        = 29

  ==> Algorithm <==

  SCF Algorithm Type is DF.
  DIIS enabled.
  MOM disabled.
  Fractional occupation disabled.
  Guess Type is SAD.
  Energy threshold   = 1.00e-08
  Density threshold  = 1.00e-08
  Integral threshold = 1.00e-12

  ==> Primary Basis <==

  Basis Set: AUG-CC-PVTZ
    Blend: AUG-CC-PVTZ
    Number of shells: 144
    Number of basis functions: 418
    Number of Cartesian functions: 479
    Spherical Harmonics?: true
    Max angular momentum: 3

   => Loading Basis Set <=

    Name: (AUG-CC-PVTZ AUX)
    Role: JKFIT
    Keyword: DF_BASIS_SCF
    atoms 1                     entry CL         line   816 file /ddmfs1b/softs/psi4conda/share/psi4/basis/aug-cc-pvtz-jkfit.gbs 
    atoms 2, 5, 8, 11           entry O          line   286 file /ddmfs1b/softs/psi4conda/share/psi4/basis/aug-cc-pvtz-jkfit.gbs 
    atoms 3-4, 6-7, 9-10, 12-13 entry H          line    70 file /ddmfs1b/softs/psi4conda/share/psi4/basis/aug-cc-pvtz-jkfit.gbs 

  ==> Integral Setup <==

  ==> DiskDFJK: Density-Fitted J/K Matrices <==

    J tasked:                  Yes
    K tasked:                  Yes
    wK tasked:                  No
    OpenMP threads:             20
    Integrals threads:          20
    Memory [MiB]:            42915
    Algorithm:                Core
    Integral Cache:           SAVE
    Schwarz Cutoff:          1E-12
    Fitting Condition:       1E-10

   => Auxiliary Basis Set <=

  Basis Set: (AUG-CC-PVTZ AUX)
    Blend: AUG-CC-PVTZ-JKFIT
    Number of shells: 274
    Number of basis functions: 930
    Number of Cartesian functions: 1144
    Spherical Harmonics?: true
    Max angular momentum: 4

  Minimum eigenvalue in the overlap matrix is 1.7248932524E-04.
  Reciprocal condition number of the overlap matrix is 1.5664785210E-05.
    Using symmetric orthogonalization.

  ==> Pre-Iterations <==

  SCF Guess: Superposition of Atomic Densities via on-the-fly atomic UHF (no occupation information).

   -------------------------
    Irrep   Nso     Nmo    
   -------------------------
     A        418     418 
   -------------------------
    Total     418     418
   -------------------------

  ==> Iterations <==

                           Total Energy        Delta E     RMS |[F,P]|

   @DF-RHF iter SAD:  -761.25972338264535   -7.61260e+02   0.00000e+00 
   @DF-RHF iter   1:  -763.49337745600928   -2.23365e+00   2.30924e-03 ADIIS/DIIS
   @DF-RHF iter   2:  -763.71988368387838   -2.26506e-01   1.56839e-03 ADIIS/DIIS
   @DF-RHF iter   3:  -763.85229399006892   -1.32410e-01   1.13834e-04 ADIIS/DIIS
   @DF-RHF iter   4:  -763.85403929262145   -1.74530e-03   4.04191e-05 DIIS
   @DF-RHF iter   5:  -763.85422385109803   -1.84558e-04   9.08796e-06 DIIS
   @DF-RHF iter   6:  -763.85424052383530   -1.66727e-05   2.68598e-06 DIIS
   @DF-RHF iter   7:  -763.85424199313263   -1.46930e-06   1.13549e-06 DIIS
   @DF-RHF iter   8:  -763.85424217918671   -1.86054e-07   3.30555e-07 DIIS
   @DF-RHF iter   9:  -763.85424220017262   -2.09859e-08   6.07279e-08 DIIS
   @DF-RHF iter  10:  -763.85424220104835   -8.75730e-10   1.21753e-08 DIIS
   @DF-RHF iter  11:  -763.85424220108246   -3.41061e-11   4.28115e-09 DIIS
  Energy and wave function converged.


  ==> Post-Iterations <==

    Orbital Energies [Eh]
    ---------------------

    Doubly Occupied:                                                      

       1A   -104.576191     2A    -20.419167     3A    -20.408894  
       4A    -20.408254     5A    -20.404321     6A    -10.301711  
       7A     -7.767802     8A     -7.767788     9A     -7.767726  
      10A     -1.196963    11A     -1.194850    12A     -1.192440  
      13A     -1.181867    14A     -0.821993    15A     -0.571474  
      16A     -0.566212    17A     -0.559148    18A     -0.551741  
      19A     -0.438109    20A     -0.430500    21A     -0.428830  
      22A     -0.411408    23A     -0.361541    24A     -0.356610  
      25A     -0.351472    26A     -0.350527    27A     -0.234271  
      28A     -0.230861    29A     -0.229571  

    Virtual:                                                              

      30A      0.116664    31A      0.124979    32A      0.133861  
      33A      0.136967    34A      0.168444    35A      0.176939  
      36A      0.179765    37A      0.193033    38A      0.247248  
      39A      0.252437    40A      0.255360    41A      0.262359  
      42A      0.272466    43A      0.277069    44A      0.278609  
      45A      0.289461    46A      0.293512    47A      0.296678  
      48A      0.308045    49A      0.314232    50A      0.323465  
      51A      0.334826    52A      0.341241    53A      0.343444  
      54A      0.355360    55A      0.362242    56A      0.371629  
      57A      0.381326    58A      0.388234    59A      0.392384  
      60A      0.401037    61A      0.413253    62A      0.418157  
      63A      0.424314    64A      0.430094    65A      0.438307  
      66A      0.463844    67A      0.472216    68A      0.473702  
      69A      0.483297    70A      0.491462    71A      0.504107  
      72A      0.519193    73A      0.527919    74A      0.534333  
      75A      0.541707    76A      0.550999    77A      0.562175  
      78A      0.574481    79A      0.584181    80A      0.585377  
      81A      0.591112    82A      0.599795    83A      0.622758  
      84A      0.626655    85A      0.637819    86A      0.664440  
      87A      0.689225    88A      0.702792    89A      0.712704  
      90A      0.721112    91A      0.734885    92A      0.744681  
      93A      0.763969    94A      0.780318    95A      0.811856  
      96A      0.816199    97A      0.834755    98A      0.844608  
      99A      0.852386   100A      0.853292   101A      0.859026  
     102A      0.864775   103A      0.869533   104A      0.878716  
     105A      0.887633   106A      0.891039   107A      0.895410  
     108A      0.901771   109A      0.906364   110A      0.915440  
     111A      0.923690   112A      0.935261   113A      0.936846  
     114A      0.963130   115A      0.986088   116A      0.993056  
     117A      1.001335   118A      1.005571   119A      1.015065  
     120A      1.035036   121A      1.038773   122A      1.043123  
     123A      1.049323   124A      1.061731   125A      1.065066  
     126A      1.069600   127A      1.078450   128A      1.082267  
     129A      1.096414   130A      1.101277   131A      1.102924  
     132A      1.104060   133A      1.109359   134A      1.121503  
     135A      1.131334   136A      1.137747   137A      1.142787  
     138A      1.145272   139A      1.154481   140A      1.157583  
     141A      1.160322   142A      1.169718   143A      1.187216  
     144A      1.192925   145A      1.199929   146A      1.204260  
     147A      1.215729   148A      1.228591   149A      1.246067  
     150A      1.256060   151A      1.272383   152A      1.279515  
     153A      1.285641   154A      1.297373   155A      1.304687  
     156A      1.314037   157A      1.345558   158A      1.354208  
     159A      1.358458   160A      1.371125   161A      1.376848  
     162A      1.394856   163A      1.411670   164A      1.419927  
     165A      1.429260   166A      1.429936   167A      1.442658  
     168A      1.459291   169A      1.462611   170A      1.478820  
     171A      1.501393   172A      1.519996   173A      1.526050  
     174A      1.529841   175A      1.569081   176A      1.576413  
     177A      1.617060   178A      1.624569   179A      1.644946  
     180A      1.659366   181A      1.687985   182A      1.701069  
     183A      1.706904   184A      1.713398   185A      1.728917  
     186A      1.740436   187A      1.745763   188A      1.772575  
     189A      1.788666   190A      1.809420   191A      1.814350  
     192A      1.822270   193A      1.829427   194A      1.842881  
     195A      1.864215   196A      1.874075   197A      1.890195  
     198A      1.912130   199A      1.941324   200A      1.958528  
     201A      1.988614   202A      2.013780   203A      2.038443  
     204A      2.045000   205A      2.081894   206A      2.096701  
     207A      2.129393   208A      2.137925   209A      2.169677  
     210A      2.180861   211A      2.216457   212A      2.232319  
     213A      2.271091   214A      2.343336   215A      2.432203  
     216A      2.440930   217A      2.449271   218A      2.471472  
     219A      2.484574   220A      2.486935   221A      2.495672  
     222A      2.514049   223A      2.541747   224A      2.549066  
     225A      2.557063   226A      2.564610   227A      2.583889  
     228A      2.592136   229A      2.593902   230A      2.601638  
     231A      2.616622   232A      2.616762   233A      2.638437  
     234A      2.648280   235A      2.659792   236A      2.663671  
     237A      2.671620   238A      2.677037   239A      2.698123  
     240A      2.709213   241A      2.737251   242A      2.749707  
     243A      2.764441   244A      2.779711   245A      2.807389  
     246A      2.857871   247A      2.875003   248A      2.890023  
     249A      2.900049   250A      2.912337   251A      2.917676  
     252A      2.930480   253A      2.947034   254A      2.958762  
     255A      2.974836   256A      2.990022   257A      3.002307  
     258A      3.020726   259A      3.034251   260A      3.051784  
     261A      3.056054   262A      3.082308   263A      3.096780  
     264A      3.099915   265A      3.123637   266A      3.132386  
     267A      3.189313   268A      3.202670   269A      3.219621  
     270A      3.244099   271A      3.333119   272A      3.419291  
     273A      3.475441   274A      3.483358   275A      3.553646  
     276A      3.567166   277A      3.612176   278A      3.635780  
     279A      3.712786   280A      3.790621   281A      3.824497  
     282A      3.842434   283A      3.871938   284A      3.876002  
     285A      3.974764   286A      4.034763   287A      4.114721  
     288A      4.145157   289A      4.169911   290A      4.198587  
     291A      4.208743   292A      4.254612   293A      4.293562  
     294A      4.346855   295A      4.371704   296A      4.377400  
     297A      4.390000   298A      4.392926   299A      4.397521  
     300A      4.410040   301A      4.416660   302A      4.430026  
     303A      4.451427   304A      4.461005   305A      4.488419  
     306A      4.501132   307A      4.524993   308A      4.535438  
     309A      4.540533   310A      4.551073   311A      4.560852  
     312A      4.566368   313A      4.588134   314A      4.594834  
     315A      4.609581   316A      4.630783   317A      4.632199  
     318A      4.638319   319A      4.659486   320A      4.668060  
     321A      4.693184   322A      4.734634   323A      4.780990  
     324A      4.789823   325A      4.837099   326A      4.864992  
     327A      4.894501   328A      4.964178   329A      4.995111  
     330A      5.008288   331A      5.044685   332A      5.109218  
     333A      5.130255   334A      5.243959   335A      5.251765  
     336A      5.262900   337A      5.299911   338A      5.327250  
     339A      5.333744   340A      5.361845   341A      5.400452  
     342A      5.455158   343A      5.471606   344A      5.485599  
     345A      5.500565   346A      5.512220   347A      5.550794  
     348A      5.575308   349A      5.618233   350A      5.625135  
     351A      5.631177   352A      5.713601   353A      5.727028  
     354A      5.846604   355A      5.881283   356A      5.907012  
     357A      5.972573   358A      6.208420   359A      6.302851  
     360A      6.392801   361A      6.481011   362A      6.710882  
     363A      6.728299   364A      6.738195   365A      6.759052  
     366A      6.899595   367A      6.906652   368A      6.951699  
     369A      6.969313   370A      6.972610   371A      7.010455  
     372A      7.106618   373A      7.170471   374A      7.248072  
     375A      7.293514   376A      7.304311   377A      7.316801  
     378A      7.339710   379A      7.398376   380A      7.401715  
     381A      7.430137   382A      7.438116   383A      7.444338  
     384A      7.465500   385A      7.466853   386A      7.482413  
     387A      7.500857   388A      7.508399   389A      7.524592  
     390A      7.527072   391A      7.528677   392A      7.576734  
     393A      7.611755   394A      7.615538   395A      7.631182  
     396A      7.648924   397A      7.659240   398A      7.690905  
     399A      7.808224   400A      7.825023   401A      7.879878  
     402A      7.927703   403A      7.987417   404A      8.034715  
     405A      8.091182   406A      8.132574   407A      8.148382  
     408A      8.180374   409A      8.202148   410A      8.214503  
     411A      8.811090   412A      8.840309   413A      9.002805  
     414A      9.025186   415A     15.856217   416A     16.272262  
     417A     16.305817   418A     16.931353  

    Final Occupation by Irrep:
              A 
    DOCC [    29 ]
    NA   [    29 ]
    NB   [    29 ]

  @DF-RHF Final Energy:  -763.85424220108246

   => Energetics <=

    Nuclear Repulsion Energy =            221.8412117322655490
    One-Electron Energy =               -1508.4264172527655319
    Two-Electron Energy =                 522.7309633194175831
    Total Energy =                       -763.8542422010824566

Computation Completed


Properties will be evaluated at   0.000000,   0.000000,   0.000000 [a0]

Properties computed using the SCF density matrix


 Multipole Moments:

 ------------------------------------------------------------------------------------
     Multipole            Electronic (a.u.)      Nuclear  (a.u.)        Total (a.u.)
 ------------------------------------------------------------------------------------

 L = 1.  Multiply by 2.5417464519 to convert [e a0] to [Debye]
 Dipole X            :         24.6978903          -24.8114559           -0.1135656
 Dipole Y            :        -85.4067031           84.5864147           -0.8202884
 Dipole Z            :         10.9841375          -11.6615680           -0.6774305
 Magnitude           :                                                    1.0698982

 ------------------------------------------------------------------------------------

*** tstop() called on ddmfs1 at Sun Jan 14 11:45:03 2024
Module time:
	user time   =     107.58 seconds =       1.79 minutes
	system time =      10.20 seconds =       0.17 minutes
	total time  =          7 seconds =       0.12 minutes
Total time:
	user time   =     107.58 seconds =       1.79 minutes
	system time =      10.20 seconds =       0.17 minutes
	total time  =          7 seconds =       0.12 minutes

  //>>>>>>>>>>>>>>>>>>>>>>>>>>>>>>>>>>>//
  //            Monomer A HF           //
  //<<<<<<<<<<<<<<<<<<<<<<<<<<<<<<<<<<<//

   => Libint2 <=

    Primary   basis highest AM E, G, H:  5, 4, 3
    Auxiliary basis highest AM E, G, H:  6, 5, 4
    Onebody   basis highest AM E, G, H:  6, 5, 4
    Solid Harmonics ordering:            gaussian

*** tstart() called on ddmfs1
*** at Sun Jan 14 11:45:03 2024

   => Loading Basis Set <=

    Name: AUG-CC-PVTZ
    Role: ORBITAL
    Keyword: BASIS
    atoms 1                     entry CL         line   988 file /ddmfs1b/softs/psi4conda/share/psi4/basis/aug-cc-pvtz.gbs 
    atoms 2, 5, 8, 11           entry O          line   331 file /ddmfs1b/softs/psi4conda/share/psi4/basis/aug-cc-pvtz.gbs 
    atoms 3-4, 6-7, 9-10, 12-13 entry H          line    40 file /ddmfs1b/softs/psi4conda/share/psi4/basis/aug-cc-pvtz.gbs 


         ---------------------------------------------------------
                                   SCF
               by Justin Turney, Rob Parrish, Andy Simmonett
                          and Daniel G. A. Smith
                              RHF Reference
                       20 Threads,  57220 MiB Core
         ---------------------------------------------------------

  ==> Geometry <==

    Molecular point group: c1
    Full point group: C1

    Geometry (in Angstrom), charge = -1, multiplicity = 1:

       Center              X                  Y                   Z               Mass       
    ------------   -----------------  -----------------  -----------------  -----------------
         CL           0.000000000000     0.000000000000     0.000000000000    34.968852682000
      Gh(O)           0.309276000000     2.230580000000     2.384255000000    15.994914619570
      Gh(H)           0.172358000000     1.780632000000     1.568707000000     1.007825032230
      Gh(H)           0.070820000000     1.580932000000     3.070981000000     1.007825032230
      Gh(O)          -3.106756000000    -1.201459000000     0.184859000000    15.994914619570
      Gh(H)          -3.615730000000    -1.153433000000    -0.609588000000     1.007825032230
      Gh(H)          -2.337299000000    -0.547263000000     0.106862000000     1.007825032230
      Gh(O)           2.375058000000     0.829933000000    -1.953883000000    15.994914619570
      Gh(H)           2.611264000000     1.792549000000    -2.051113000000     1.007825032230
      Gh(H)           1.790705000000     0.628269000000    -1.215983000000     1.007825032230
      Gh(O)          -0.849852000000     2.660511000000    -1.102632000000    15.994914619570
      Gh(H)          -0.932491000000     2.833868000000    -2.029998000000     1.007825032230
      Gh(H)          -0.711092000000     1.689129000000    -1.111696000000     1.007825032230

  Running in c1 symmetry.

  Rotational constants: A =      0.04498  B =      0.03330  C =      0.02889 [cm^-1]
  Rotational constants: A =   1348.60837  B =    998.22321  C =    866.15874 [MHz]
  Nuclear repulsion =    0.000000000000000

  Charge       = -1
  Multiplicity = 1
  Electrons    = 18
  Nalpha       = 9
  Nbeta        = 9

  ==> Algorithm <==

  SCF Algorithm Type is DF.
  DIIS enabled.
  MOM disabled.
  Fractional occupation disabled.
  Guess Type is SAD.
  Energy threshold   = 1.00e-08
  Density threshold  = 1.00e-08
  Integral threshold = 1.00e-12

  ==> Primary Basis <==

  Basis Set: AUG-CC-PVTZ
    Blend: AUG-CC-PVTZ
    Number of shells: 144
    Number of basis functions: 418
    Number of Cartesian functions: 479
    Spherical Harmonics?: true
    Max angular momentum: 3

   => Loading Basis Set <=

    Name: (AUG-CC-PVTZ AUX)
    Role: JKFIT
    Keyword: DF_BASIS_SCF
    atoms 1                     entry CL         line   816 file /ddmfs1b/softs/psi4conda/share/psi4/basis/aug-cc-pvtz-jkfit.gbs 
    atoms 2, 5, 8, 11           entry O          line   286 file /ddmfs1b/softs/psi4conda/share/psi4/basis/aug-cc-pvtz-jkfit.gbs 
    atoms 3-4, 6-7, 9-10, 12-13 entry H          line    70 file /ddmfs1b/softs/psi4conda/share/psi4/basis/aug-cc-pvtz-jkfit.gbs 

  ==> Integral Setup <==

  ==> DiskDFJK: Density-Fitted J/K Matrices <==

    J tasked:                  Yes
    K tasked:                  Yes
    wK tasked:                  No
    OpenMP threads:             20
    Integrals threads:          20
    Memory [MiB]:            42915
    Algorithm:                Core
    Integral Cache:           LOAD
    Schwarz Cutoff:          1E-12
    Fitting Condition:       1E-10

   => Auxiliary Basis Set <=

  Basis Set: (AUG-CC-PVTZ AUX)
    Blend: AUG-CC-PVTZ-JKFIT
    Number of shells: 274
    Number of basis functions: 930
    Number of Cartesian functions: 1144
    Spherical Harmonics?: true
    Max angular momentum: 4

  Minimum eigenvalue in the overlap matrix is 1.7248932524E-04.
  Reciprocal condition number of the overlap matrix is 1.5664785210E-05.
    Using symmetric orthogonalization.

  ==> Pre-Iterations <==

  SCF Guess: Superposition of Atomic Densities via on-the-fly atomic UHF (no occupation information).

   -------------------------
    Irrep   Nso     Nmo    
   -------------------------
     A        418     418 
   -------------------------
    Total     418     418
   -------------------------

  ==> Iterations <==

                           Total Energy        Delta E     RMS |[F,P]|

   @DF-RHF iter SAD:  -459.11248998709374   -4.59112e+02   0.00000e+00 
   @DF-RHF iter   1:  -459.51388792455828   -4.01398e-01   7.14647e-04 ADIIS/DIIS
   @DF-RHF iter   2:  -459.56480504197214   -5.09171e-02   3.66272e-04 ADIIS/DIIS
   @DF-RHF iter   3:  -459.57350482537191   -8.69978e-03   2.54930e-05 DIIS
   @DF-RHF iter   4:  -459.57356234283486   -5.75175e-05   5.00977e-06 DIIS
   @DF-RHF iter   5:  -459.57356596127556   -3.61844e-06   5.13638e-07 DIIS
   @DF-RHF iter   6:  -459.57356604339481   -8.21192e-08   4.58027e-08 DIIS
   @DF-RHF iter   7:  -459.57356604435870   -9.63894e-10   5.27962e-09 DIIS
  Energy and wave function converged.


  ==> Post-Iterations <==

    Orbital Energies [Eh]
    ---------------------

    Doubly Occupied:                                                      

       1A   -104.507089     2A    -10.230016     3A     -7.696081  
       4A     -7.696072     5A     -7.696061     6A     -0.733473  
       7A     -0.150315     8A     -0.150310     9A     -0.150308  

    Virtual:                                                              

      10A      0.120520    11A      0.128469    12A      0.134910  
      13A      0.137804    14A      0.161488    15A      0.170517  
      16A      0.175017    17A      0.195894    18A      0.237949  
      19A      0.241070    20A      0.245361    21A      0.252120  
      22A      0.258150    23A      0.266320    24A      0.270192  
      25A      0.274517    26A      0.284111    27A      0.291100  
      28A      0.295624    29A      0.308237    30A      0.311578  
      31A      0.313563    32A      0.326501    33A      0.331857  
      34A      0.347105    35A      0.363445    36A      0.367053  
      37A      0.402311    38A      0.407834    39A      0.415000  
      40A      0.420524    41A      0.425820    42A      0.431764  
      43A      0.442482    44A      0.443133    45A      0.456416  
      46A      0.465989    47A      0.481764    48A      0.487234  
      49A      0.493175    50A      0.495666    51A      0.500920  
      52A      0.505650    53A      0.511447    54A      0.524251  
      55A      0.535298    56A      0.544953    57A      0.555890  
      58A      0.558788    59A      0.578681    60A      0.596719  
      61A      0.600013    62A      0.610915    63A      0.628441  
      64A      0.645387    65A      0.648923    66A      0.666921  
      67A      0.695183    68A      0.699716    69A      0.715027  
      70A      0.730656    71A      0.762047    72A      0.769897  
      73A      0.790628    74A      0.804243    75A      0.827258  
      76A      0.835152    77A      0.841009    78A      0.851461  
      79A      0.862568    80A      0.870018    81A      0.880931  
      82A      0.911890    83A      0.920743    84A      0.924991  
      85A      0.930367    86A      0.944814    87A      0.951865  
      88A      0.960238    89A      0.965392    90A      0.971155  
      91A      0.973111    92A      0.976807    93A      0.985439  
      94A      0.991458    95A      1.000105    96A      1.007323  
      97A      1.013230    98A      1.018269    99A      1.031971  
     100A      1.040426   101A      1.043985   102A      1.054713  
     103A      1.057168   104A      1.071530   105A      1.073519  
     106A      1.082023   107A      1.086512   108A      1.101304  
     109A      1.108096   110A      1.117951   111A      1.122098  
     112A      1.125335   113A      1.128890   114A      1.134531  
     115A      1.142364   116A      1.144775   117A      1.149259  
     118A      1.160795   119A      1.166846   120A      1.174114  
     121A      1.178251   122A      1.188237   123A      1.197148  
     124A      1.202499   125A      1.209339   126A      1.230635  
     127A      1.242381   128A      1.253503   129A      1.258464  
     130A      1.271646   131A      1.277612   132A      1.308749  
     133A      1.314827   134A      1.324272   135A      1.331605  
     136A      1.339055   137A      1.356406   138A      1.364458  
     139A      1.373092   140A      1.398658   141A      1.418189  
     142A      1.425606   143A      1.434634   144A      1.462014  
     145A      1.472695   146A      1.491648   147A      1.495223  
     148A      1.501284   149A      1.514859   150A      1.533212  
     151A      1.559667   152A      1.583340   153A      1.588301  
     154A      1.595267   155A      1.624884   156A      1.638351  
     157A      1.669078   158A      1.676408   159A      1.706492  
     160A      1.715320   161A      1.732317   162A      1.758846  
     163A      1.773021   164A      1.806565   165A      1.842445  
     166A      1.857011   167A      1.862295   168A      1.876744  
     169A      1.885958   170A      1.899105   171A      1.903312  
     172A      1.907151   173A      1.919392   174A      1.929690  
     175A      1.948069   176A      1.956455   177A      1.967894  
     178A      1.990309   179A      1.997573   180A      2.008569  
     181A      2.018081   182A      2.033359   183A      2.045994  
     184A      2.056047   185A      2.065390   186A      2.070088  
     187A      2.087038   188A      2.116302   189A      2.138177  
     190A      2.151973   191A      2.174320   192A      2.206166  
     193A      2.254246   194A      2.309697   195A      2.336718  
     196A      2.353085   197A      2.360939   198A      2.476639  
     199A      2.596088   200A      2.612728   201A      2.620789  
     202A      2.622688   203A      2.629906   204A      2.631847  
     205A      2.646514   206A      2.656108   207A      2.690973  
     208A      2.693057   209A      2.707739   210A      2.722226  
     211A      2.736183   212A      2.748449   213A      2.753032  
     214A      2.776696   215A      2.784811   216A      2.792473  
     217A      2.796549   218A      2.809127   219A      2.821732  
     220A      2.830279   221A      2.841554   222A      2.856710  
     223A      2.869207   224A      2.876580   225A      2.889533  
     226A      2.906435   227A      2.918386   228A      2.927450  
     229A      2.960449   230A      3.004222   231A      3.046515  
     232A      3.055337   233A      3.096728   234A      3.124819  
     235A      3.139771   236A      3.157428   237A      3.180807  
     238A      3.191981   239A      3.283889   240A      3.326785  
     241A      3.333308   242A      3.350293   243A      3.352914  
     244A      3.356301   245A      3.362960   246A      3.378755  
     247A      3.400286   248A      3.409647   249A      3.420155  
     250A      3.460238   251A      3.472120   252A      3.489951  
     253A      3.501961   254A      3.530611   255A      3.556631  
     256A      3.559907   257A      3.599568   258A      3.647339  
     259A      3.654887   260A      3.667304   261A      3.674767  
     262A      3.678182   263A      3.695690   264A      3.712094  
     265A      3.733370   266A      3.738616   267A      3.765246  
     268A      3.784045   269A      3.805535   270A      3.837090  
     271A      3.881730   272A      3.901687   273A      3.929057  
     274A      3.993474   275A      4.007244   276A      4.060001  
     277A      4.101201   278A      4.527021   279A      4.545824  
     280A      4.581728   281A      4.602764   282A      4.612658  
     283A      4.626100   284A      4.656792   285A      4.667962  
     286A      4.690353   287A      4.733842   288A      4.761871  
     289A      4.782562   290A      4.790447   291A      4.792388  
     292A      4.806490   293A      4.814252   294A      4.825118  
     295A      4.854766   296A      4.864777   297A      4.913546  
     298A      4.946284   299A      5.009690   300A      5.022517  
     301A      5.036707   302A      5.046849   303A      5.057494  
     304A      5.088412   305A      5.135294   306A      5.153038  
     307A      5.164330   308A      5.170076   309A      5.185407  
     310A      5.192266   311A      5.217505   312A      5.239456  
     313A      5.306737   314A      5.368612   315A      5.404664  
     316A      5.434301   317A      5.561853   318A      5.622104  
     319A      5.644335   320A      5.649683   321A      5.679080  
     322A      5.742165   323A      5.747719   324A      5.801241  
     325A      5.812283   326A      5.840986   327A      5.867631  
     328A      5.877617   329A      5.911502   330A      5.923146  
     331A      5.965583   332A      6.055498   333A      6.125566  
     334A      6.305340   335A      6.333394   336A      6.343428  
     337A      6.357462   338A      6.427783   339A      6.520979  
     340A      6.583219   341A      6.661552   342A      6.822969  
     343A      6.840252   344A      6.853491   345A      6.966650  
     346A      7.209850   347A      7.231936   348A      7.281344  
     349A      7.333285   350A      7.492589   351A      7.839311  
     352A      7.853581   353A      7.893685   354A      7.906934  
     355A      7.931847   356A      7.939904   357A      8.022878  
     358A      8.081168   359A      8.204296   360A      8.222576  
     361A      8.224314   362A      8.274640   363A      8.332360  
     364A      8.384217   365A      8.396360   366A      8.408007  
     367A      8.413515   368A      8.470307   369A      8.478436  
     370A      8.503718   371A      8.852249   372A      8.901098  
     373A      8.967350   374A      8.983716   375A      8.991519  
     376A      9.089823   377A      9.139087   378A      9.235897  
     379A      9.816020   380A      9.862058   381A      9.889327  
     382A      9.905989   383A      9.996147   384A     10.010237  
     385A     10.016838   386A     10.093532   387A     10.225673  
     388A     10.235011   389A     10.238670   390A     10.260531  
     391A     10.380887   392A     10.407573   393A     10.500203  
     394A     10.516432   395A     11.152344   396A     11.173552  
     397A     11.385450   398A     11.426674   399A     11.841982  
     400A     11.904756   401A     11.916389   402A     11.940605  
     403A     12.231169   404A     12.241714   405A     12.346763  
     406A     12.413716   407A     13.612441   408A     13.633734  
     409A     13.784343   410A     13.816758   411A     14.080813  
     412A     14.100974   413A     14.150017   414A     14.167997  
     415A     64.759898   416A     65.559865   417A     65.689678  
     418A     66.925997  

    Final Occupation by Irrep:
              A 
    DOCC [     9 ]
    NA   [     9 ]
    NB   [     9 ]

  @DF-RHF Final Energy:  -459.57356604435870

   => Energetics <=

    Nuclear Repulsion Energy =              0.0000000000000000
    One-Electron Energy =                -641.1276976376117318
    Two-Electron Energy =                 181.5541315932530040
    Total Energy =                       -459.5735660443586994

Computation Completed


Properties will be evaluated at   0.000000,   0.000000,   0.000000 [a0]

Properties computed using the SCF density matrix


 Multipole Moments:

 ------------------------------------------------------------------------------------
     Multipole            Electronic (a.u.)      Nuclear  (a.u.)        Total (a.u.)
 ------------------------------------------------------------------------------------

 L = 1.  Multiply by 2.5417464519 to convert [e a0] to [Debye]
 Dipole X            :         -0.0001811            0.0000000           -0.0001811
 Dipole Y            :          0.0005641            0.0000000            0.0005641
 Dipole Z            :         -0.0002911            0.0000000           -0.0002911
 Magnitude           :                                                    0.0006601

 ------------------------------------------------------------------------------------

*** tstop() called on ddmfs1 at Sun Jan 14 11:45:08 2024
Module time:
	user time   =      61.85 seconds =       1.03 minutes
	system time =       2.40 seconds =       0.04 minutes
	total time  =          5 seconds =       0.08 minutes
Total time:
	user time   =     169.54 seconds =       2.83 minutes
	system time =      12.61 seconds =       0.21 minutes
	total time  =         12 seconds =       0.20 minutes

  //>>>>>>>>>>>>>>>>>>>>>>>>>>>>>>>>>>>//
  //            Monomer B HF           //
  //<<<<<<<<<<<<<<<<<<<<<<<<<<<<<<<<<<<//

   => Libint2 <=

    Primary   basis highest AM E, G, H:  5, 4, 3
    Auxiliary basis highest AM E, G, H:  6, 5, 4
    Onebody   basis highest AM E, G, H:  6, 5, 4
    Solid Harmonics ordering:            gaussian

*** tstart() called on ddmfs1
*** at Sun Jan 14 11:45:08 2024

   => Loading Basis Set <=

    Name: AUG-CC-PVTZ
    Role: ORBITAL
    Keyword: BASIS
    atoms 1                     entry CL         line   988 file /ddmfs1b/softs/psi4conda/share/psi4/basis/aug-cc-pvtz.gbs 
    atoms 2, 5, 8, 11           entry O          line   331 file /ddmfs1b/softs/psi4conda/share/psi4/basis/aug-cc-pvtz.gbs 
    atoms 3-4, 6-7, 9-10, 12-13 entry H          line    40 file /ddmfs1b/softs/psi4conda/share/psi4/basis/aug-cc-pvtz.gbs 


         ---------------------------------------------------------
                                   SCF
               by Justin Turney, Rob Parrish, Andy Simmonett
                          and Daniel G. A. Smith
                              RHF Reference
                       20 Threads,  57220 MiB Core
         ---------------------------------------------------------

  ==> Geometry <==

    Molecular point group: c1
    Full point group: C1

    Geometry (in Angstrom), charge = 0, multiplicity = 1:

       Center              X                  Y                   Z               Mass       
    ------------   -----------------  -----------------  -----------------  -----------------
      Gh(CL)          0.000000000000     0.000000000000     0.000000000000    34.968852682000
         O            0.309276000000     2.230580000000     2.384255000000    15.994914619570
         H            0.172358000000     1.780632000000     1.568707000000     1.007825032230
         H            0.070820000000     1.580932000000     3.070981000000     1.007825032230
         O           -3.106756000000    -1.201459000000     0.184859000000    15.994914619570
         H           -3.615730000000    -1.153433000000    -0.609588000000     1.007825032230
         H           -2.337299000000    -0.547263000000     0.106862000000     1.007825032230
         O            2.375058000000     0.829933000000    -1.953883000000    15.994914619570
         H            2.611264000000     1.792549000000    -2.051113000000     1.007825032230
         H            1.790705000000     0.628269000000    -1.215983000000     1.007825032230
         O           -0.849852000000     2.660511000000    -1.102632000000    15.994914619570
         H           -0.932491000000     2.833868000000    -2.029998000000     1.007825032230
         H           -0.711092000000     1.689129000000    -1.111696000000     1.007825032230

  Running in c1 symmetry.

  Rotational constants: A =      0.04498  B =      0.03330  C =      0.02889 [cm^-1]
  Rotational constants: A =   1348.60837  B =    998.22321  C =    866.15874 [MHz]
  Nuclear repulsion =  106.230282647277107

  Charge       = 0
  Multiplicity = 1
  Electrons    = 40
  Nalpha       = 20
  Nbeta        = 20

  ==> Algorithm <==

  SCF Algorithm Type is DF.
  DIIS enabled.
  MOM disabled.
  Fractional occupation disabled.
  Guess Type is SAD.
  Energy threshold   = 1.00e-08
  Density threshold  = 1.00e-08
  Integral threshold = 1.00e-12

  ==> Primary Basis <==

  Basis Set: AUG-CC-PVTZ
    Blend: AUG-CC-PVTZ
    Number of shells: 144
    Number of basis functions: 418
    Number of Cartesian functions: 479
    Spherical Harmonics?: true
    Max angular momentum: 3

   => Loading Basis Set <=

    Name: (AUG-CC-PVTZ AUX)
    Role: JKFIT
    Keyword: DF_BASIS_SCF
    atoms 1                     entry CL         line   816 file /ddmfs1b/softs/psi4conda/share/psi4/basis/aug-cc-pvtz-jkfit.gbs 
    atoms 2, 5, 8, 11           entry O          line   286 file /ddmfs1b/softs/psi4conda/share/psi4/basis/aug-cc-pvtz-jkfit.gbs 
    atoms 3-4, 6-7, 9-10, 12-13 entry H          line    70 file /ddmfs1b/softs/psi4conda/share/psi4/basis/aug-cc-pvtz-jkfit.gbs 

  ==> Integral Setup <==

  ==> DiskDFJK: Density-Fitted J/K Matrices <==

    J tasked:                  Yes
    K tasked:                  Yes
    wK tasked:                  No
    OpenMP threads:             20
    Integrals threads:          20
    Memory [MiB]:            42915
    Algorithm:                Core
    Integral Cache:           LOAD
    Schwarz Cutoff:          1E-12
    Fitting Condition:       1E-10

   => Auxiliary Basis Set <=

  Basis Set: (AUG-CC-PVTZ AUX)
    Blend: AUG-CC-PVTZ-JKFIT
    Number of shells: 274
    Number of basis functions: 930
    Number of Cartesian functions: 1144
    Spherical Harmonics?: true
    Max angular momentum: 4

  Minimum eigenvalue in the overlap matrix is 1.7248932524E-04.
  Reciprocal condition number of the overlap matrix is 1.5664785210E-05.
    Using symmetric orthogonalization.

  ==> Pre-Iterations <==

  SCF Guess: Superposition of Atomic Densities via on-the-fly atomic UHF (no occupation information).

   -------------------------
    Irrep   Nso     Nmo    
   -------------------------
     A        418     418 
   -------------------------
    Total     418     418
   -------------------------

  ==> Iterations <==

                           Total Energy        Delta E     RMS |[F,P]|

   @DF-RHF iter SAD:  -301.87784057598589   -3.01878e+02   0.00000e+00 
   @DF-RHF iter   1:  -303.88660077649911   -2.00876e+00   2.23832e-03 ADIIS/DIIS
   @DF-RHF iter   2:  -304.09576187097497   -2.09161e-01   1.54244e-03 ADIIS/DIIS
   @DF-RHF iter   3:  -304.22492883613938   -1.29167e-01   1.06755e-04 ADIIS/DIIS
   @DF-RHF iter   4:  -304.22663242105148   -1.70358e-03   2.65582e-05 DIIS
   @DF-RHF iter   5:  -304.22674575708510   -1.13336e-04   6.98826e-06 DIIS
   @DF-RHF iter   6:  -304.22675579099899   -1.00339e-05   3.07453e-06 DIIS
   @DF-RHF iter   7:  -304.22675683981515   -1.04882e-06   8.21964e-07 DIIS
   @DF-RHF iter   8:  -304.22675699479834   -1.54983e-07   1.44934e-07 DIIS
   @DF-RHF iter   9:  -304.22675699987553   -5.07720e-09   2.68959e-08 DIIS
   @DF-RHF iter  10:  -304.22675700001957   -1.44041e-10   1.01267e-08 DIIS
   @DF-RHF iter  11:  -304.22675700003379   -1.42109e-11   4.13711e-09 DIIS
  Energy and wave function converged.


  ==> Post-Iterations <==

    Orbital Energies [Eh]
    ---------------------

    Doubly Occupied:                                                      

       1A    -20.591829     2A    -20.581180     3A    -20.577320  
       4A    -20.569109     5A     -1.375132     6A     -1.354893  
       7A     -1.353219     8A     -1.347433     9A     -0.736026  
      10A     -0.729974    11A     -0.725121    12A     -0.718890  
      13A     -0.612363    14A     -0.585361    15A     -0.584996  
      16A     -0.572443    17A     -0.533026    18A     -0.519361  
      19A     -0.516394    20A     -0.511665  

    Virtual:                                                              

      21A      0.010885    22A      0.032292    23A      0.033462  
      24A      0.045843    25A      0.050481    26A      0.066313  
      27A      0.071812    28A      0.074165    29A      0.100433  
      30A      0.112582    31A      0.117417    32A      0.129384  
      33A      0.139982    34A      0.142111    35A      0.162777  
      36A      0.163476    37A      0.169184    38A      0.176192  
      39A      0.177923    40A      0.181956    41A      0.192104  
      42A      0.196723    43A      0.204855    44A      0.209772  
      45A      0.216467    46A      0.221137    47A      0.229869  
      48A      0.235400    49A      0.253552    50A      0.259860  
      51A      0.264562    52A      0.266669    53A      0.283773  
      54A      0.291644    55A      0.294840    56A      0.300268  
      57A      0.304487    58A      0.312467    59A      0.317096  
      60A      0.323291    61A      0.333250    62A      0.344966  
      63A      0.354567    64A      0.361963    65A      0.372941  
      66A      0.390367    67A      0.396802    68A      0.410441  
      69A      0.423240    70A      0.436384    71A      0.439968  
      72A      0.444556    73A      0.450848    74A      0.463792  
      75A      0.464071    76A      0.486918    77A      0.497618  
      78A      0.501301    79A      0.527893    80A      0.544072  
      81A      0.563072    82A      0.572409    83A      0.586189  
      84A      0.598512    85A      0.618109    86A      0.628033  
      87A      0.634235    88A      0.646716    89A      0.664309  
      90A      0.678149    91A      0.686908    92A      0.696612  
      93A      0.707563    94A      0.714845    95A      0.718656  
      96A      0.724038    97A      0.729507    98A      0.740429  
      99A      0.744669   100A      0.748513   101A      0.753083  
     102A      0.761126   103A      0.765458   104A      0.770511  
     105A      0.778324   106A      0.797941   107A      0.806377  
     108A      0.815502   109A      0.840701   110A      0.847350  
     111A      0.858659   112A      0.861062   113A      0.877107  
     114A      0.884049   115A      0.901171   116A      0.902123  
     117A      0.911291   118A      0.915174   119A      0.928418  
     120A      0.938757   121A      0.943592   122A      0.946414  
     123A      0.958205   124A      0.965247   125A      0.968531  
     126A      0.974142   127A      0.979142   128A      0.985776  
     129A      0.990110   130A      0.998757   131A      1.004380  
     132A      1.022300   133A      1.025871   134A      1.031887  
     135A      1.038089   136A      1.045262   137A      1.048514  
     138A      1.055747   139A      1.067233   140A      1.072169  
     141A      1.093494   142A      1.109963   143A      1.119862  
     144A      1.140582   145A      1.145142   146A      1.158990  
     147A      1.166741   148A      1.186253   149A      1.204412  
     150A      1.206996   151A      1.220080   152A      1.229448  
     153A      1.236555   154A      1.246226   155A      1.267604  
     156A      1.276127   157A      1.284618   158A      1.290592  
     159A      1.300809   160A      1.307508   161A      1.319083  
     162A      1.350122   163A      1.370673   164A      1.381047  
     165A      1.393615   166A      1.428167   167A      1.436123  
     168A      1.468937   169A      1.483957   170A      1.501718  
     171A      1.525250   172A      1.540464   173A      1.541770  
     174A      1.555588   175A      1.568847   176A      1.572189  
     177A      1.598037   178A      1.600797   179A      1.610689  
     180A      1.632784   181A      1.636824   182A      1.643444  
     183A      1.659420   184A      1.676833   185A      1.690276  
     186A      1.694602   187A      1.707582   188A      1.721187  
     189A      1.736010   190A      1.755509   191A      1.760542  
     192A      1.797707   193A      1.822288   194A      1.822523  
     195A      1.853385   196A      1.859937   197A      1.891196  
     198A      1.906490   199A      1.931128   200A      1.951088  
     201A      1.985751   202A      1.993735   203A      2.026364  
     204A      2.036218   205A      2.079447   206A      2.099871  
     207A      2.134191   208A      2.161331   209A      2.246956  
     210A      2.282176   211A      2.290026   212A      2.299292  
     213A      2.312783   214A      2.330158   215A      2.337043  
     216A      2.355704   217A      2.380582   218A      2.397192  
     219A      2.408475   220A      2.420450   221A      2.428242  
     222A      2.444342   223A      2.448894   224A      2.453091  
     225A      2.459406   226A      2.477437   227A      2.496667  
     228A      2.501753   229A      2.506412   230A      2.512707  
     231A      2.527515   232A      2.541271   233A      2.544694  
     234A      2.573990   235A      2.585897   236A      2.600013  
     237A      2.604341   238A      2.638068   239A      2.663542  
     240A      2.714817   241A      2.727998   242A      2.733309  
     243A      2.752964   244A      2.761930   245A      2.769143  
     246A      2.773538   247A      2.792015   248A      2.810283  
     249A      2.833850   250A      2.848033   251A      2.871173  
     252A      2.884888   253A      2.899057   254A      2.913480  
     255A      2.956137   256A      2.969308   257A      2.977065  
     258A      3.004826   259A      3.038014   260A      3.051699  
     261A      3.081070   262A      3.643999   263A      3.673533  
     264A      3.708662   265A      3.772440   266A      3.816263  
     267A      3.865239   268A      3.886870   269A      3.924604  
     270A      4.003735   271A      4.017800   272A      4.057384  
     273A      4.066717   274A      4.092627   275A      4.106217  
     276A      4.129002   277A      4.136877   278A      4.159740  
     279A      4.163348   280A      4.174735   281A      4.186460  
     282A      4.205975   283A      4.209736   284A      4.223624  
     285A      4.225018   286A      4.232332   287A      4.244240  
     288A      4.268186   289A      4.274526   290A      4.283000  
     291A      4.297675   292A      4.305860   293A      4.318182  
     294A      4.330399   295A      4.344652   296A      4.357837  
     297A      4.371454   298A      4.376111   299A      4.387555  
     300A      4.395957   301A      4.401905   302A      4.407469  
     303A      4.431211   304A      4.433515   305A      4.443280  
     306A      4.458175   307A      4.473869   308A      4.484767  
     309A      4.495260   310A      4.513531   311A      4.520696  
     312A      4.590633   313A      4.623500   314A      4.628762  
     315A      4.674229   316A      4.694356   317A      4.724459  
     318A      4.734884   319A      4.768504   320A      4.788893  
     321A      4.794838   322A      4.813518   323A      4.872352  
     324A      4.900303   325A      4.918408   326A      4.944811  
     327A      5.023442   328A      5.045440   329A      5.078590  
     330A      5.104968   331A      5.118270   332A      5.130777  
     333A      5.165515   334A      5.176537   335A      5.207377  
     336A      5.258244   337A      5.269929   338A      5.287586  
     339A      5.322659   340A      5.342189   341A      5.354716  
     342A      5.358644   343A      5.392650   344A      5.420056  
     345A      5.460082   346A      5.466770   347A      5.496755  
     348A      5.548994   349A      5.557654   350A      5.675196  
     351A      5.735333   352A      5.750261   353A      5.825104  
     354A      6.046684   355A      6.146474   356A      6.230569  
     357A      6.309877   358A      6.550267   359A      6.562763  
     360A      6.575882   361A      6.596258   362A      6.735074  
     363A      6.748389   364A      6.793432   365A      6.803409  
     366A      6.809460   367A      6.855189   368A      6.956962  
     369A      6.996061   370A      7.105690   371A      7.124339  
     372A      7.145810   373A      7.170144   374A      7.228256  
     375A      7.239277   376A      7.260371   377A      7.271604  
     378A      7.279945   379A      7.295744   380A      7.309854  
     381A      7.314908   382A      7.330749   383A      7.337965  
     384A      7.350677   385A      7.362888   386A      7.364860  
     387A      7.413313   388A      7.436741   389A      7.442300  
     390A      7.458066   391A      7.458722   392A      7.492849  
     393A      7.506393   394A      7.633463   395A      7.657682  
     396A      7.705568   397A      7.759944   398A      7.816900  
     399A      7.871116   400A      7.911343   401A      7.973648  
     402A      7.980376   403A      8.016943   404A      8.018898  
     405A      8.043354   406A      8.643827   407A      8.677747  
     408A      8.836811   409A      8.840129   410A     15.599330  
     411A     15.749951   412A     16.098269   413A     16.157992  
     414A     16.862250   415A     28.114811   416A     28.198476  
     417A     28.253194   418A    160.886131  

    Final Occupation by Irrep:
              A 
    DOCC [    20 ]
    NA   [    20 ]
    NB   [    20 ]

  @DF-RHF Final Energy:  -304.22675700003379

   => Energetics <=

    Nuclear Repulsion Energy =            106.2302826472771073
    One-Electron Energy =                -630.7226109331946873
    Two-Electron Energy =                 220.2655712858837660
    Total Energy =                       -304.2267570000337855

Computation Completed


Properties will be evaluated at   0.000000,   0.000000,   0.000000 [a0]

Properties computed using the SCF density matrix


 Multipole Moments:

 ------------------------------------------------------------------------------------
     Multipole            Electronic (a.u.)      Nuclear  (a.u.)        Total (a.u.)
 ------------------------------------------------------------------------------------

 L = 1.  Multiply by 2.5417464519 to convert [e a0] to [Debye]
 Dipole X            :         24.5091849          -24.8114559           -0.3022709
 Dipole Y            :        -84.7760477           84.5864147           -0.1896330
 Dipole Z            :         10.7838975          -11.6615680           -0.8776705
 Magnitude           :                                                    0.9474354

 ------------------------------------------------------------------------------------

*** tstop() called on ddmfs1 at Sun Jan 14 11:45:13 2024
Module time:
	user time   =      85.01 seconds =       1.42 minutes
	system time =       2.53 seconds =       0.04 minutes
	total time  =          5 seconds =       0.08 minutes
Total time:
	user time   =     254.67 seconds =       4.24 minutes
	system time =      15.14 seconds =       0.25 minutes
	total time  =         17 seconds =       0.28 minutes
  Constructing Basis Sets for SAPT...

   => Loading Basis Set <=

    Name: (AUG-CC-PVTZ AUX)
    Role: RIFIT
    Keyword: DF_BASIS_SAPT
    atoms 1                     entry CL         line   742 file /ddmfs1b/softs/psi4conda/share/psi4/basis/aug-cc-pvtz-ri.gbs 
    atoms 2, 5, 8, 11           entry O          line   264 file /ddmfs1b/softs/psi4conda/share/psi4/basis/aug-cc-pvtz-ri.gbs 
    atoms 3-4, 6-7, 9-10, 12-13 entry H          line    30 file /ddmfs1b/softs/psi4conda/share/psi4/basis/aug-cc-pvtz-ri.gbs 

   => Loading Basis Set <=

    Name: (AUG-CC-PVTZ AUX)
    Role: JKFIT
    Keyword: DF_BASIS_ELST
    atoms 1                     entry CL         line   816 file /ddmfs1b/softs/psi4conda/share/psi4/basis/aug-cc-pvtz-jkfit.gbs 
    atoms 2, 5, 8, 11           entry O          line   286 file /ddmfs1b/softs/psi4conda/share/psi4/basis/aug-cc-pvtz-jkfit.gbs 
    atoms 3-4, 6-7, 9-10, 12-13 entry H          line    70 file /ddmfs1b/softs/psi4conda/share/psi4/basis/aug-cc-pvtz-jkfit.gbs 


  //>>>>>>>>>>>>>>>>>>>>>>>>>>>>>>>>>>>//
  //               SAPT2+              //
  //<<<<<<<<<<<<<<<<<<<<<<<<<<<<<<<<<<<//


*** tstart() called on ddmfs1
*** at Sun Jan 14 11:45:13 2024

        SAPT2+  
    Ed Hohenstein
     6 June 2009

      Orbital Information
  --------------------------
    NSO        =       418
    NMO        =       418
    NRI        =       939
    NOCC A     =         9
    NOCC B     =        20
    FOCC A     =         0
    FOCC B     =         0
    NVIR A     =       409
    NVIR B     =       398

    Estimated memory usage: 2862.5 MB

    Natural Orbital Cutoff:   1.000E-06
    Disp(T3) Truncation:            Yes
    CCD (vv|vv) Truncation:         Yes
    MBPT T2 Truncation:             Yes

    Monomer A: 325 virtual orbitals dropped
    Monomer B: 79 virtual orbitals dropped

    Elst10,r            =    -0.086287271250 [Eh]
    Exch10 (S^2)        =     0.061723738839 [Eh]
    Exch10              =     0.062251291920 [Eh]
    Ind20,r (A<-B)      =    -0.031816886044 [Eh]
    Ind20,r (B<-A)      =    -0.018012152061 [Eh]
    Ind20,r             =    -0.049829038105 [Eh]
    Exch-Ind20,r (A<-B) =     0.023324043078 [Eh]
    Exch-Ind20,r (B<-A) =     0.004784520559 [Eh]
    Exch-Ind20,r        =     0.028108563636 [Eh]
    Disp20              =    -0.026621715419 [Eh]
    Disp20 (NO)         =    -0.023193293319 [Eh]
    Exch-Disp20         =     0.006290167501 [Eh]
    Elst12,r            =    -0.000763993690 [Eh]
    Exch11              =     0.002436735869 [Eh]
    Exch12              =     0.005343858788 [Eh]
    Ind22               =    -0.006313488142 [Eh]
    Disp21              =     0.001704676790 [Eh]
    Disp22 (SDQ)        =     0.000070842496 [Eh]

    (i =   1 of  20)          2 seconds
    (i =   2 of  20)          4 seconds
    (i =   3 of  20)          7 seconds
    (i =   4 of  20)          9 seconds
    (i =   5 of  20)         11 seconds
    (i =   6 of  20)         13 seconds
    (i =   7 of  20)         15 seconds
    (i =   8 of  20)         17 seconds
    (i =   9 of  20)         19 seconds
    (i =  10 of  20)         22 seconds
    (i =  11 of  20)         24 seconds
    (i =  12 of  20)         26 seconds
    (i =  13 of  20)         28 seconds
    (i =  14 of  20)         30 seconds
    (i =  15 of  20)         32 seconds
    (i =  16 of  20)         34 seconds
    (i =  17 of  20)         37 seconds
    (i =  18 of  20)         39 seconds
    (i =  19 of  20)         41 seconds
    (i =  20 of  20)         43 seconds

    Disp220 (T)         =    -0.001875285735 [Eh]

    (i =   1 of   9)         62 seconds
    (i =   2 of   9)        125 seconds
    (i =   3 of   9)        188 seconds
    (i =   4 of   9)        250 seconds
    (i =   5 of   9)        313 seconds
    (i =   6 of   9)        376 seconds
    (i =   7 of   9)        438 seconds
    (i =   8 of   9)        501 seconds
    (i =   9 of   9)        565 seconds

    Disp202 (T)         =    -0.002315848028 [Eh]

    Disp22 (T)          =    -0.004191133763 [Eh]

    Est. Disp220 (T)    =    -0.002152489622 [Eh]
    Est. Disp202 (T)    =    -0.002658175634 [Eh]

    Est. Disp22 (T)     =    -0.004810665255 [Eh]

    SAPT Results 
  --------------------------------------------------------------------------------------------------------
    Electrostatics                -87.05126494 [mEh]     -54.62549345 [kcal/mol]    -228.55306461 [kJ/mol]
      Elst10,r                    -86.28727125 [mEh]     -54.14608018 [kcal/mol]    -226.54719945 [kJ/mol]
      Elst12,r                     -0.76399369 [mEh]      -0.47941328 [kcal/mol]      -2.00586516 [kJ/mol]

    Exchange                       70.03188658 [mEh]      43.94567229 [kcal/mol]     183.86869288 [kJ/mol]
      Exch10                       62.25129192 [mEh]      39.06327543 [kcal/mol]     163.44074442 [kJ/mol]
      Exch10(S^2)                  61.72373884 [mEh]      38.73223088 [kcal/mol]     162.05565400 [kJ/mol]
      Exch11(S^2)                   2.43673587 [mEh]       1.52907484 [kcal/mol]       6.39764914 [kJ/mol]
      Exch12(S^2)                   5.34385879 [mEh]       3.35332202 [kcal/mol]      14.03029931 [kJ/mol]

    Induction                     -32.63522643 [mEh]     -20.47891376 [kcal/mol]     -85.68377519 [kJ/mol]
      Ind20,r                     -49.82903810 [mEh]     -31.26819348 [kcal/mol]    -130.82612152 [kJ/mol]
      Ind22                        -6.31348814 [mEh]      -3.96177362 [kcal/mol]     -16.57606083 [kJ/mol]
      Exch-Ind20,r                 28.10856364 [mEh]      17.63838998 [kcal/mol]      73.79902366 [kJ/mol]
      Exch-Ind22                    3.56143907 [mEh]       2.23483676 [kcal/mol]       9.35055699 [kJ/mol]
      delta HF,r (2)               -8.16270289 [mEh]      -5.12217340 [kcal/mol]     -21.43117349 [kJ/mol]

    Dispersion                    -23.36669389 [mEh]     -14.66282179 [kcal/mol]     -61.34924635 [kJ/mol]
      Disp20                      -26.62171542 [mEh]     -16.70537863 [kcal/mol]     -69.89530420 [kJ/mol]
      Disp21                        1.70467679 [mEh]       1.06970084 [kcal/mol]       4.47562830 [kJ/mol]
      Disp22 (SDQ)                  0.07084250 [mEh]       0.04445434 [kcal/mol]       0.18599695 [kJ/mol]
      Disp22 (T)                   -4.19113376 [mEh]      -2.62997614 [kcal/mol]     -11.00382018 [kJ/mol]
      Est. Disp22 (T)              -4.81066526 [mEh]      -3.01873802 [kcal/mol]     -12.63039989 [kJ/mol]
      Exch-Disp20                   6.29016750 [mEh]       3.94713970 [kcal/mol]      16.51483250 [kJ/mol]

  Total HF                        -53.91915669 [mEh]     -33.83478164 [kcal/mol]    -141.56472639 [kJ/mol]
  Total SAPT0                     -74.25070461 [mEh]     -46.59302058 [kcal/mol]    -194.94519809 [kJ/mol]
  Total SAPT2                     -69.98615271 [mEh]     -43.91697386 [kcal/mol]    -183.74861863 [kJ/mol]
  Total SAPT2+                    -73.02129868 [mEh]     -45.82155671 [kcal/mol]    -191.71739327 [kJ/mol]

  Special recipe for scaled SAPT0 (see Manual):
    Electrostatics sSAPT0         -86.28727125 [mEh]     -54.14608018 [kcal/mol]    -226.54719945 [kJ/mol]
    Exchange sSAPT0                62.25129192 [mEh]      39.06327543 [kcal/mol]     163.44074442 [kJ/mol]
    Induction sSAPT0              -29.15626764 [mEh]     -18.29583416 [kcal/mol]     -76.54977014 [kJ/mol]
    Dispersion sSAPT0             -20.16887920 [mEh]     -12.65616278 [kcal/mol]     -52.95338506 [kJ/mol]
  Total sSAPT0                    -73.36112618 [mEh]     -46.03480168 [kcal/mol]    -192.60961024 [kJ/mol]
  --------------------------------------------------------------------------------------------------------

*** tstop() called on ddmfs1 at Sun Jan 14 11:58:03 2024
Module time:
	user time   =    5013.74 seconds =      83.56 minutes
	system time =     103.83 seconds =       1.73 minutes
	total time  =        770 seconds =      12.83 minutes
Total time:
	user time   =    5271.62 seconds =      87.86 minutes
	system time =     119.07 seconds =       1.98 minutes
	total time  =        787 seconds =      13.12 minutes

    Psi4 stopped on: Sunday, 14 January 2024 11:58AM
    Psi4 wall time for execution: 0:13:07.31

*** Psi4 exiting successfully. Buy a developer a beer!
