
    -----------------------------------------------------------------------
          Psi4: An Open-Source Ab Initio Electronic Structure Package
                               Psi4 1.8.2 release

                         Git: Rev {} zzzzzzz 


    D. G. A. Smith, L. A. Burns, A. C. Simmonett, R. M. Parrish,
    M. C. Schieber, R. Galvelis, P. Kraus, H. Kruse, R. Di Remigio,
    A. Alenaizan, A. M. James, S. Lehtola, J. P. Misiewicz, M. Scheurer,
    R. A. Shaw, J. B. Schriber, Y. Xie, Z. L. Glick, D. A. Sirianni,
    J. S. O'Brien, J. M. Waldrop, A. Kumar, E. G. Hohenstein,
    B. P. Pritchard, B. R. Brooks, H. F. Schaefer III, A. Yu. Sokolov,
    K. Patkowski, A. E. DePrince III, U. Bozkaya, R. A. King,
    F. A. Evangelista, J. M. Turney, T. D. Crawford, C. D. Sherrill,
    J. Chem. Phys. 152(18) 184108 (2020). https://doi.org/10.1063/5.0006002

                            Additional Code Authors
    E. T. Seidl, C. L. Janssen, E. F. Valeev, M. L. Leininger,
    J. F. Gonthier, R. M. Richard, H. R. McAlexander, M. Saitow, X. Wang,
    P. Verma, M. H. Lechner, A. Jiang, S. Behnle, A. G. Heide,
    M. F. Herbst, and D. L. Poole

             Previous Authors, Complete List of Code Contributors,
                       and Citations for Specific Modules
    https://github.com/psi4/psi4/blob/master/codemeta.json
    https://github.com/psi4/psi4/graphs/contributors
    http://psicode.org/psi4manual/master/introduction.html#citing-psifour

    -----------------------------------------------------------------------


    Psi4 started on: Saturday, 20 January 2024 02:06PM

    Process ID: 24245
    Host:       ddmfs1
    PSIDATADIR: /ddmfs1b/softs/psi4conda/share/psi4
    Memory:     500.0 MiB
    Threads:    20
    
  ==> Input File <==

--------------------------------------------------------------------------
MEMORY 60 GB

molecule dimer {
-1 1
Br     0.000000     0.000000     0.000000
--
0 1
O      1.945893     0.262012    -2.944461
H      2.825168     0.000048    -2.764125
H      1.492154     0.128599    -2.083365
O      1.918090    -2.759463     0.110152
H      2.249433    -3.068366     0.986392
H      1.495298    -1.822514     0.139316
O     -0.118445     3.259334     0.447045
H      0.218183     2.360201     0.174258
H     -0.788624     3.412072    -0.216775
O     -1.467014     0.339355    -3.263026
H     -2.372942     0.465663    -2.906747
H     -0.878477     0.065588    -2.558990
O     -3.316037    -0.369815     0.274592
H     -2.663704    -1.042109     0.576311
H     -3.997139    -0.433657     0.965591
O      3.111664     0.648515     1.096188
H      2.163031     0.405322     0.957248
H      3.130519     1.210000     1.863659
O     -1.031067    -3.136478    -0.817819
H     -0.145501    -2.816616    -0.879827
H     -1.232430    -3.165983     0.108864
O      0.920696    -0.819222     3.154004
H      1.852436    -0.484491     3.317884
H      0.572531    -0.433290     2.303889

units ang
no_reorient
no_com
symmetry c1
}

set {
basis        aug-cc-pVTZ
scf_type     df
}

energy("sapt2+")
--------------------------------------------------------------------------

  Memory set to  55.879 GiB by Python driver.

Scratch directory: /ddmfs1a/scratch/
   => Loading Basis Set <=

    Name: AUG-CC-PVTZ
    Role: ORBITAL
    Keyword: BASIS
    atoms 1                                                 entry BR         line  4208 file /ddmfs1b/softs/psi4conda/share/psi4/basis/aug-cc-pvtz.gbs 
    atoms 2, 5, 8, 11, 14, 17, 20, 23                       entry O          line   331 file /ddmfs1b/softs/psi4conda/share/psi4/basis/aug-cc-pvtz.gbs 
    atoms 3-4, 6-7, 9-10, 12-13, 15-16, 18-19, 21-22, 24-25 entry H          line    40 file /ddmfs1b/softs/psi4conda/share/psi4/basis/aug-cc-pvtz.gbs 

   => Loading Basis Set <=

    Name: AUG-CC-PVTZ
    Role: ORBITAL
    Keyword: BASIS
    atoms 1                                                 entry BR         line  4208 file /ddmfs1b/softs/psi4conda/share/psi4/basis/aug-cc-pvtz.gbs 
    atoms 2, 5, 8, 11, 14, 17, 20, 23                       entry O          line   331 file /ddmfs1b/softs/psi4conda/share/psi4/basis/aug-cc-pvtz.gbs 
    atoms 3-4, 6-7, 9-10, 12-13, 15-16, 18-19, 21-22, 24-25 entry H          line    40 file /ddmfs1b/softs/psi4conda/share/psi4/basis/aug-cc-pvtz.gbs 


  //>>>>>>>>>>>>>>>>>>>>>>>>>>>>>>>>>>>//
  //              Dimer HF             //
  //<<<<<<<<<<<<<<<<<<<<<<<<<<<<<<<<<<<//

   => Libint2 <=

    Primary   basis highest AM E, G, H:  5, 4, 3
    Auxiliary basis highest AM E, G, H:  6, 5, 4
    Onebody   basis highest AM E, G, H:  6, 5, 4
    Solid Harmonics ordering:            gaussian

*** tstart() called on ddmfs1
*** at Sat Jan 20 14:06:10 2024

   => Loading Basis Set <=

    Name: AUG-CC-PVTZ
    Role: ORBITAL
    Keyword: BASIS
    atoms 1                                                 entry BR         line  4208 file /ddmfs1b/softs/psi4conda/share/psi4/basis/aug-cc-pvtz.gbs 
    atoms 2, 5, 8, 11, 14, 17, 20, 23                       entry O          line   331 file /ddmfs1b/softs/psi4conda/share/psi4/basis/aug-cc-pvtz.gbs 
    atoms 3-4, 6-7, 9-10, 12-13, 15-16, 18-19, 21-22, 24-25 entry H          line    40 file /ddmfs1b/softs/psi4conda/share/psi4/basis/aug-cc-pvtz.gbs 


         ---------------------------------------------------------
                                   SCF
               by Justin Turney, Rob Parrish, Andy Simmonett
                          and Daniel G. A. Smith
                              RHF Reference
                       20 Threads,  57220 MiB Core
         ---------------------------------------------------------

  ==> Geometry <==

    Molecular point group: c1
    Full point group: C1

    Geometry (in Angstrom), charge = -1, multiplicity = 1:

       Center              X                  Y                   Z               Mass       
    ------------   -----------------  -----------------  -----------------  -----------------
         BR           0.000000000000     0.000000000000     0.000000000000    78.918337600000
         O            1.945893000000     0.262012000000    -2.944461000000    15.994914619570
         H            2.825168000000     0.000048000000    -2.764125000000     1.007825032230
         H            1.492154000000     0.128599000000    -2.083365000000     1.007825032230
         O            1.918090000000    -2.759463000000     0.110152000000    15.994914619570
         H            2.249433000000    -3.068366000000     0.986392000000     1.007825032230
         H            1.495298000000    -1.822514000000     0.139316000000     1.007825032230
         O           -0.118445000000     3.259334000000     0.447045000000    15.994914619570
         H            0.218183000000     2.360201000000     0.174258000000     1.007825032230
         H           -0.788624000000     3.412072000000    -0.216775000000     1.007825032230
         O           -1.467014000000     0.339355000000    -3.263026000000    15.994914619570
         H           -2.372942000000     0.465663000000    -2.906747000000     1.007825032230
         H           -0.878477000000     0.065588000000    -2.558990000000     1.007825032230
         O           -3.316037000000    -0.369815000000     0.274592000000    15.994914619570
         H           -2.663704000000    -1.042109000000     0.576311000000     1.007825032230
         H           -3.997139000000    -0.433657000000     0.965591000000     1.007825032230
         O            3.111664000000     0.648515000000     1.096188000000    15.994914619570
         H            2.163031000000     0.405322000000     0.957248000000     1.007825032230
         H            3.130519000000     1.210000000000     1.863659000000     1.007825032230
         O           -1.031067000000    -3.136478000000    -0.817819000000    15.994914619570
         H           -0.145501000000    -2.816616000000    -0.879827000000     1.007825032230
         H           -1.232430000000    -3.165983000000     0.108864000000     1.007825032230
         O            0.920696000000    -0.819222000000     3.154004000000    15.994914619570
         H            1.852436000000    -0.484491000000     3.317884000000     1.007825032230
         H            0.572531000000    -0.433290000000     2.303889000000     1.007825032230

  Running in c1 symmetry.

  Rotational constants: A =      0.01698  B =      0.01483  C =      0.01414 [cm^-1]
  Rotational constants: A =    509.15372  B =    444.58458  C =    423.98097 [MHz]
  Nuclear repulsion =  835.058772888826866

  Charge       = -1
  Multiplicity = 1
  Electrons    = 116
  Nalpha       = 58
  Nbeta        = 58

  ==> Algorithm <==

  SCF Algorithm Type is DF.
  DIIS enabled.
  MOM disabled.
  Fractional occupation disabled.
  Guess Type is SAD.
  Energy threshold   = 1.00e-08
  Density threshold  = 1.00e-08
  Integral threshold = 1.00e-12

  ==> Primary Basis <==

  Basis Set: AUG-CC-PVTZ
    Blend: AUG-CC-PVTZ
    Number of shells: 275
    Number of basis functions: 795
    Number of Cartesian functions: 909
    Spherical Harmonics?: true
    Max angular momentum: 3

   => Loading Basis Set <=

    Name: (AUG-CC-PVTZ AUX)
    Role: JKFIT
    Keyword: DF_BASIS_SCF
    atoms 1                                                 entry BR         line  1492 file /ddmfs1b/softs/psi4conda/share/psi4/basis/aug-cc-pvtz-jkfit.gbs 
    atoms 2, 5, 8, 11, 14, 17, 20, 23                       entry O          line   286 file /ddmfs1b/softs/psi4conda/share/psi4/basis/aug-cc-pvtz-jkfit.gbs 
    atoms 3-4, 6-7, 9-10, 12-13, 15-16, 18-19, 21-22, 24-25 entry H          line    70 file /ddmfs1b/softs/psi4conda/share/psi4/basis/aug-cc-pvtz-jkfit.gbs 

  ==> Integral Setup <==

  ==> DiskDFJK: Density-Fitted J/K Matrices <==

    J tasked:                  Yes
    K tasked:                  Yes
    wK tasked:                  No
    OpenMP threads:             20
    Integrals threads:          20
    Memory [MiB]:            42915
    Algorithm:                Core
    Integral Cache:           SAVE
    Schwarz Cutoff:          1E-12
    Fitting Condition:       1E-10

   => Auxiliary Basis Set <=

  Basis Set: (AUG-CC-PVTZ AUX)
    Blend: AUG-CC-PVTZ-JKFIT
    Number of shells: 522
    Number of basis functions: 1816
    Number of Cartesian functions: 2257
    Spherical Harmonics?: true
    Max angular momentum: 4

  Minimum eigenvalue in the overlap matrix is 5.5226460995E-05.
  Reciprocal condition number of the overlap matrix is 3.5482691930E-06.
    Using symmetric orthogonalization.

  ==> Pre-Iterations <==

  SCF Guess: Superposition of Atomic Densities via on-the-fly atomic UHF (no occupation information).

   -------------------------
    Irrep   Nso     Nmo    
   -------------------------
     A        795     795 
   -------------------------
    Total     795     795
   -------------------------

  ==> Iterations <==

                           Total Energy        Delta E     RMS |[F,P]|

   @DF-RHF iter SAD: -3174.69931467965307   -3.17470e+03   0.00000e+00 
   @DF-RHF iter   1: -3180.21535125980063   -5.51604e+00   2.08225e-03 ADIIS/DIIS
   @DF-RHF iter   2: -3180.76957181222042   -5.54221e-01   1.27360e-03 ADIIS/DIIS
   @DF-RHF iter   3: -3181.04666776462000   -2.77096e-01   1.06558e-04 ADIIS/DIIS
   @DF-RHF iter   4: -3181.05041229814788   -3.74453e-03   4.93825e-05 DIIS
   @DF-RHF iter   5: -3181.05109619906034   -6.83901e-04   7.71845e-06 DIIS
   @DF-RHF iter   6: -3181.05113924464194   -4.30456e-05   2.26238e-06 DIIS
   @DF-RHF iter   7: -3181.05114294332861   -3.69869e-06   9.55945e-07 DIIS
   @DF-RHF iter   8: -3181.05114339249440   -4.49166e-07   2.90348e-07 DIIS
   @DF-RHF iter   9: -3181.05114345057700   -5.80826e-08   5.50893e-08 DIIS
   @DF-RHF iter  10: -3181.05114345287848   -2.30148e-09   1.83159e-08 DIIS
   @DF-RHF iter  11: -3181.05114345304992   -1.71440e-10   5.90817e-09 DIIS
  Energy and wave function converged.


  ==> Post-Iterations <==

    Orbital Energies [Eh]
    ---------------------

    Doubly Occupied:                                                      

       1A   -489.825524     2A    -64.966296     3A    -58.320781  
       4A    -58.320750     5A    -58.320723     6A    -20.459230  
       7A    -20.450867     8A    -20.447009     9A    -20.442192  
      10A    -20.428928    11A    -20.428793    12A    -20.428709  
      13A    -20.422524    14A     -9.638790    15A     -7.246495  
      16A     -7.246251    17A     -7.246156    18A     -2.988086  
      19A     -2.988014    20A     -2.987875    21A     -2.987579  
      22A     -2.987567    23A     -1.232989    24A     -1.229798  
      25A     -1.225521    26A     -1.218243    27A     -1.212637  
      28A     -1.207867    29A     -1.201189    30A     -1.200812  
      31A     -0.811942    32A     -0.600438    33A     -0.598854  
      34A     -0.588602    35A     -0.588256    36A     -0.584247  
      37A     -0.581991    38A     -0.573509    39A     -0.563976  
      40A     -0.475454    41A     -0.471970    42A     -0.456386  
      43A     -0.454886    44A     -0.453467    45A     -0.449705  
      46A     -0.440106    47A     -0.432386    48A     -0.398204  
      49A     -0.392536    50A     -0.387503    51A     -0.382917  
      52A     -0.375882    53A     -0.374711    54A     -0.371972  
      55A     -0.365558    56A     -0.257413    57A     -0.252881  
      58A     -0.251416  

    Virtual:                                                              

      59A      0.103658    60A      0.108059    61A      0.120343  
      62A      0.125042    63A      0.128687    64A      0.136914  
      65A      0.139047    66A      0.141123    67A      0.159319  
      68A      0.162713    69A      0.172925    70A      0.179128  
      71A      0.184845    72A      0.187940    73A      0.197901  
      74A      0.205202    75A      0.225979    76A      0.234345  
      77A      0.238786    78A      0.250048    79A      0.252894  
      80A      0.258014    81A      0.261351    82A      0.265726  
      83A      0.268543    84A      0.277270    85A      0.278919  
      86A      0.283356    87A      0.286546    88A      0.293861  
      89A      0.297236    90A      0.299504    91A      0.303470  
      92A      0.310961    93A      0.311860    94A      0.316335  
      95A      0.319612    96A      0.324481    97A      0.333234  
      98A      0.335931    99A      0.337598   100A      0.343270  
     101A      0.345346   102A      0.350740   103A      0.354111  
     104A      0.357741   105A      0.360749   106A      0.364452  
     107A      0.369747   108A      0.376264   109A      0.380081  
     110A      0.383516   111A      0.394466   112A      0.397871  
     113A      0.407296   114A      0.408382   115A      0.414232  
     116A      0.422727   117A      0.431835   118A      0.437767  
     119A      0.439259   120A      0.441977   121A      0.445485  
     122A      0.450547   123A      0.453829   124A      0.458670  
     125A      0.468119   126A      0.469051   127A      0.474724  
     128A      0.480723   129A      0.482191   130A      0.487677  
     131A      0.489633   132A      0.494113   133A      0.498340  
     134A      0.500841   135A      0.506175   136A      0.514194  
     137A      0.522817   138A      0.526867   139A      0.531700  
     140A      0.534823   141A      0.539072   142A      0.542325  
     143A      0.550355   144A      0.554894   145A      0.561349  
     146A      0.565640   147A      0.570726   148A      0.574448  
     149A      0.576405   150A      0.581560   151A      0.583495  
     152A      0.589733   153A      0.594820   154A      0.596238  
     155A      0.603534   156A      0.605932   157A      0.610381  
     158A      0.618083   159A      0.620416   160A      0.626169  
     161A      0.636963   162A      0.640908   163A      0.651239  
     164A      0.658526   165A      0.662386   166A      0.673097  
     167A      0.692326   168A      0.693707   169A      0.702710  
     170A      0.711799   171A      0.725533   172A      0.734934  
     173A      0.745856   174A      0.751237   175A      0.756595  
     176A      0.757616   177A      0.765330   178A      0.775019  
     179A      0.779730   180A      0.790306   181A      0.800403  
     182A      0.808618   183A      0.811996   184A      0.821260  
     185A      0.826312   186A      0.834965   187A      0.838749  
     188A      0.842748   189A      0.845585   190A      0.850576  
     191A      0.858110   192A      0.862569   193A      0.865808  
     194A      0.869259   195A      0.873364   196A      0.879338  
     197A      0.883231   198A      0.886116   199A      0.890687  
     200A      0.895282   201A      0.896869   202A      0.903960  
     203A      0.906186   204A      0.912180   205A      0.914091  
     206A      0.918048   207A      0.921305   208A      0.928230  
     209A      0.936834   210A      0.941273   211A      0.949284  
     212A      0.954607   213A      0.957527   214A      0.963658  
     215A      0.966537   216A      0.973482   217A      0.976817  
     218A      0.987949   219A      0.989731   220A      0.995100  
     221A      0.999866   222A      1.005064   223A      1.010293  
     224A      1.015625   225A      1.023184   226A      1.029837  
     227A      1.033951   228A      1.041559   229A      1.045676  
     230A      1.046875   231A      1.055665   232A      1.059491  
     233A      1.063170   234A      1.066290   235A      1.070835  
     236A      1.081235   237A      1.082691   238A      1.086967  
     239A      1.089386   240A      1.097001   241A      1.098576  
     242A      1.100707   243A      1.108710   244A      1.109568  
     245A      1.116997   246A      1.118956   247A      1.121766  
     248A      1.123913   249A      1.132809   250A      1.137708  
     251A      1.143156   252A      1.144148   253A      1.147396  
     254A      1.148957   255A      1.157109   256A      1.159740  
     257A      1.165905   258A      1.174407   259A      1.177986  
     260A      1.181585   261A      1.184462   262A      1.188395  
     263A      1.194883   264A      1.198414   265A      1.202157  
     266A      1.206063   267A      1.213520   268A      1.218961  
     269A      1.225067   270A      1.231026   271A      1.233310  
     272A      1.241837   273A      1.243590   274A      1.247593  
     275A      1.251005   276A      1.262944   277A      1.266844  
     278A      1.269208   279A      1.274821   280A      1.282275  
     281A      1.287089   282A      1.291340   283A      1.298593  
     284A      1.303122   285A      1.305465   286A      1.313169  
     287A      1.317155   288A      1.323843   289A      1.330088  
     290A      1.339055   291A      1.345264   292A      1.351498  
     293A      1.352667   294A      1.354136   295A      1.364046  
     296A      1.368067   297A      1.378852   298A      1.383301  
     299A      1.385589   300A      1.392243   301A      1.399250  
     302A      1.409514   303A      1.413089   304A      1.420811  
     305A      1.424050   306A      1.429224   307A      1.433307  
     308A      1.439278   309A      1.450744   310A      1.453230  
     311A      1.465722   312A      1.476325   313A      1.480650  
     314A      1.487557   315A      1.493503   316A      1.498630  
     317A      1.508531   318A      1.524306   319A      1.533725  
     320A      1.540068   321A      1.544018   322A      1.547645  
     323A      1.553569   324A      1.561039   325A      1.571056  
     326A      1.574795   327A      1.582944   328A      1.593279  
     329A      1.602893   330A      1.614786   331A      1.619272  
     332A      1.627465   333A      1.634205   334A      1.639833  
     335A      1.650899   336A      1.658601   337A      1.661379  
     338A      1.669280   339A      1.673069   340A      1.687104  
     341A      1.693561   342A      1.697131   343A      1.707462  
     344A      1.711307   345A      1.718563   346A      1.730069  
     347A      1.736574   348A      1.742402   349A      1.752110  
     350A      1.759320   351A      1.763092   352A      1.769128  
     353A      1.775849   354A      1.789707   355A      1.796191  
     356A      1.799008   357A      1.807130   358A      1.824036  
     359A      1.826288   360A      1.842977   361A      1.848483  
     362A      1.850338   363A      1.860092   364A      1.876994  
     365A      1.878977   366A      1.894556   367A      1.908211  
     368A      1.918235   369A      1.925109   370A      1.937415  
     371A      1.938748   372A      1.952174   373A      1.955973  
     374A      1.970395   375A      1.991722   376A      1.998246  
     377A      2.005125   378A      2.010235   379A      2.025685  
     380A      2.034292   381A      2.046185   382A      2.057775  
     383A      2.068004   384A      2.079546   385A      2.088860  
     386A      2.095509   387A      2.110780   388A      2.129358  
     389A      2.136736   390A      2.139404   391A      2.150133  
     392A      2.154682   393A      2.174296   394A      2.183689  
     395A      2.194678   396A      2.198217   397A      2.212297  
     398A      2.227990   399A      2.234430   400A      2.235767  
     401A      2.252847   402A      2.275355   403A      2.284961  
     404A      2.355030   405A      2.401214   406A      2.420017  
     407A      2.444174   408A      2.452465   409A      2.467422  
     410A      2.475501   411A      2.482696   412A      2.486911  
     413A      2.489136   414A      2.495936   415A      2.513640  
     416A      2.517985   417A      2.527181   418A      2.537099  
     419A      2.540500   420A      2.546364   421A      2.551563  
     422A      2.555028   423A      2.559272   424A      2.565719  
     425A      2.572846   426A      2.585255   427A      2.589959  
     428A      2.599810   429A      2.601718   430A      2.606607  
     431A      2.611415   432A      2.620274   433A      2.631730  
     434A      2.639977   435A      2.643908   436A      2.648232  
     437A      2.656876   438A      2.658781   439A      2.663945  
     440A      2.667363   441A      2.668663   442A      2.676697  
     443A      2.687586   444A      2.694339   445A      2.698342  
     446A      2.703439   447A      2.711978   448A      2.714295  
     449A      2.724160   450A      2.731175   451A      2.742965  
     452A      2.748560   453A      2.757759   454A      2.759427  
     455A      2.763035   456A      2.772055   457A      2.778300  
     458A      2.789348   459A      2.801221   460A      2.809799  
     461A      2.816883   462A      2.823182   463A      2.826081  
     464A      2.838808   465A      2.849321   466A      2.862792  
     467A      2.868847   468A      2.879080   469A      2.888108  
     470A      2.892588   471A      2.898564   472A      2.905084  
     473A      2.917710   474A      2.923943   475A      2.926636  
     476A      2.935842   477A      2.943299   478A      2.951590  
     479A      2.958437   480A      2.967130   481A      2.970638  
     482A      2.979189   483A      2.990938   484A      2.992554  
     485A      3.005450   486A      3.008922   487A      3.009169  
     488A      3.026934   489A      3.029962   490A      3.036498  
     491A      3.039231   492A      3.052217   493A      3.054081  
     494A      3.062295   495A      3.082181   496A      3.084657  
     497A      3.092034   498A      3.100666   499A      3.113958  
     500A      3.127784   501A      3.137759   502A      3.139549  
     503A      3.151166   504A      3.172133   505A      3.176813  
     506A      3.183512   507A      3.194021   508A      3.204073  
     509A      3.218841   510A      3.230853   511A      3.242023  
     512A      3.244743   513A      3.267920   514A      3.270963  
     515A      3.311374   516A      3.319167   517A      3.337362  
     518A      3.365526   519A      3.409649   520A      3.422421  
     521A      3.446260   522A      3.499108   523A      3.831376  
     524A      3.862528   525A      3.880886   526A      3.925136  
     527A      3.934351   528A      3.960297   529A      3.961832  
     530A      3.987027   531A      4.012600   532A      4.070890  
     533A      4.074534   534A      4.085854   535A      4.124517  
     536A      4.153383   537A      4.172452   538A      4.186339  
     539A      4.200427   540A      4.214235   541A      4.222554  
     542A      4.250021   543A      4.274042   544A      4.279904  
     545A      4.294127   546A      4.314948   547A      4.317050  
     548A      4.329120   549A      4.347618   550A      4.357028  
     551A      4.372918   552A      4.382695   553A      4.393088  
     554A      4.401442   555A      4.412007   556A      4.415840  
     557A      4.422779   558A      4.425142   559A      4.431127  
     560A      4.437004   561A      4.443785   562A      4.448871  
     563A      4.451376   564A      4.463693   565A      4.469524  
     566A      4.473234   567A      4.478546   568A      4.484479  
     569A      4.498060   570A      4.506058   571A      4.515086  
     572A      4.516763   573A      4.528834   574A      4.531782  
     575A      4.537138   576A      4.543076   577A      4.552223  
     578A      4.554297   579A      4.558270   580A      4.563815  
     581A      4.572054   582A      4.578750   583A      4.584600  
     584A      4.590077   585A      4.593886   586A      4.602761  
     587A      4.613154   588A      4.622405   589A      4.627871  
     590A      4.630111   591A      4.643071   592A      4.646451  
     593A      4.656742   594A      4.663215   595A      4.681430  
     596A      4.691400   597A      4.695151   598A      4.705854  
     599A      4.722399   600A      4.743914   601A      4.751706  
     602A      4.773405   603A      4.787520   604A      4.801858  
     605A      4.812741   606A      4.819861   607A      4.831792  
     608A      4.839901   609A      4.861306   610A      4.870991  
     611A      4.890367   612A      4.922732   613A      4.926788  
     614A      4.946410   615A      4.963071   616A      4.975019  
     617A      4.991985   618A      4.999079   619A      5.009354  
     620A      5.034516   621A      5.053535   622A      5.058920  
     623A      5.081614   624A      5.116154   625A      5.128609  
     626A      5.161970   627A      5.190663   628A      5.217768  
     629A      5.225236   630A      5.247853   631A      5.257794  
     632A      5.268622   633A      5.280768   634A      5.292543  
     635A      5.309240   636A      5.314684   637A      5.322215  
     638A      5.330738   639A      5.339369   640A      5.360072  
     641A      5.375711   642A      5.389458   643A      5.395597  
     644A      5.398066   645A      5.415606   646A      5.455911  
     647A      5.458940   648A      5.464216   649A      5.480272  
     650A      5.487238   651A      5.494384   652A      5.514129  
     653A      5.517924   654A      5.539384   655A      5.547174  
     656A      5.568059   657A      5.597459   658A      5.604234  
     659A      5.608993   660A      5.621729   661A      5.638563  
     662A      5.657553   663A      5.669805   664A      5.684476  
     665A      5.712071   666A      5.747954   667A      5.797724  
     668A      5.809853   669A      5.884932   670A      5.894431  
     671A      5.904124   672A      5.919530   673A      5.949461  
     674A      5.957165   675A      6.285562   676A      6.303885  
     677A      6.329485   678A      6.394553   679A      6.424158  
     680A      6.433394   681A      6.448034   682A      6.457282  
     683A      6.611824   684A      6.694378   685A      6.703818  
     686A      6.717808   687A      6.735486   688A      6.740373  
     689A      6.751010   690A      6.762582   691A      6.827587  
     692A      6.901732   693A      6.905081   694A      6.923997  
     695A      6.934599   696A      6.944569   697A      6.975376  
     698A      6.981813   699A      7.003312   700A      7.018330  
     701A      7.033641   702A      7.057767   703A      7.074694  
     704A      7.091184   705A      7.124553   706A      7.137454  
     707A      7.165733   708A      7.248370   709A      7.280723  
     710A      7.284177   711A      7.303772   712A      7.310685  
     713A      7.330282   714A      7.334813   715A      7.364545  
     716A      7.369382   717A      7.377463   718A      7.390780  
     719A      7.406005   720A      7.420648   721A      7.432214  
     722A      7.436118   723A      7.443001   724A      7.458040  
     725A      7.463779   726A      7.467954   727A      7.474337  
     728A      7.477094   729A      7.481863   730A      7.488592  
     731A      7.493020   732A      7.494884   733A      7.501716  
     734A      7.510262   735A      7.512830   736A      7.516356  
     737A      7.521202   738A      7.529908   739A      7.546913  
     740A      7.559927   741A      7.561473   742A      7.572369  
     743A      7.576143   744A      7.581417   745A      7.594012  
     746A      7.597780   747A      7.604605   748A      7.614354  
     749A      7.630580   750A      7.643539   751A      7.658302  
     752A      7.661464   753A      7.666351   754A      7.682662  
     755A      7.690352   756A      7.735549   757A      7.832348  
     758A      7.849112   759A      7.878769   760A      7.904182  
     761A      7.918979   762A      7.935963   763A      7.956006  
     764A      7.974888   765A      7.996681   766A      8.011361  
     767A      8.049099   768A      8.067138   769A      8.070796  
     770A      8.084424   771A      8.117290   772A      8.127664  
     773A      8.146400   774A      8.153074   775A      8.173996  
     776A      8.178946   777A      8.194450   778A      8.212377  
     779A      8.257093   780A      8.709694   781A      8.718448  
     782A      8.880627   783A      8.893739   784A      8.919491  
     785A      8.930423   786A      9.013281   787A      9.065735  
     788A     15.607585   789A     15.610410   790A     15.709187  
     791A     16.038238   792A     16.473233   793A     16.554087  
     794A     16.781289   795A     17.328352  

    Final Occupation by Irrep:
              A 
    DOCC [    58 ]
    NA   [    58 ]
    NB   [    58 ]

  @DF-RHF Final Energy: -3181.05114345304992

   => Energetics <=

    Nuclear Repulsion Energy =            835.0587728888268657
    One-Electron Energy =               -6107.7290972248010803
    Two-Electron Energy =                2091.6191808829244110
    Total Energy =                      -3181.0511434530499173

Computation Completed


Properties will be evaluated at   0.000000,   0.000000,   0.000000 [a0]

Properties computed using the SCF density matrix


 Multipole Moments:

 ------------------------------------------------------------------------------------
     Multipole            Electronic (a.u.)      Nuclear  (a.u.)        Total (a.u.)
 ------------------------------------------------------------------------------------

 L = 1.  Multiply by 2.5417464519 to convert [e a0] to [Debye]
 Dipole X            :        -37.6525140           37.0956564           -0.5568575
 Dipole Y            :         48.8903850          -48.8033658            0.0870192
 Dipole Z            :         31.7985118          -29.4098398            2.3886719
 Magnitude           :                                                    2.4542649

 ------------------------------------------------------------------------------------

*** tstop() called on ddmfs1 at Sat Jan 20 14:06:54 2024
Module time:
	user time   =     634.84 seconds =      10.58 minutes
	system time =      36.84 seconds =       0.61 minutes
	total time  =         44 seconds =       0.73 minutes
Total time:
	user time   =     634.84 seconds =      10.58 minutes
	system time =      36.84 seconds =       0.61 minutes
	total time  =         44 seconds =       0.73 minutes

  //>>>>>>>>>>>>>>>>>>>>>>>>>>>>>>>>>>>//
  //            Monomer A HF           //
  //<<<<<<<<<<<<<<<<<<<<<<<<<<<<<<<<<<<//

   => Libint2 <=

    Primary   basis highest AM E, G, H:  5, 4, 3
    Auxiliary basis highest AM E, G, H:  6, 5, 4
    Onebody   basis highest AM E, G, H:  6, 5, 4
    Solid Harmonics ordering:            gaussian

*** tstart() called on ddmfs1
*** at Sat Jan 20 14:06:54 2024

   => Loading Basis Set <=

    Name: AUG-CC-PVTZ
    Role: ORBITAL
    Keyword: BASIS
    atoms 1                                                 entry BR         line  4208 file /ddmfs1b/softs/psi4conda/share/psi4/basis/aug-cc-pvtz.gbs 
    atoms 2, 5, 8, 11, 14, 17, 20, 23                       entry O          line   331 file /ddmfs1b/softs/psi4conda/share/psi4/basis/aug-cc-pvtz.gbs 
    atoms 3-4, 6-7, 9-10, 12-13, 15-16, 18-19, 21-22, 24-25 entry H          line    40 file /ddmfs1b/softs/psi4conda/share/psi4/basis/aug-cc-pvtz.gbs 


         ---------------------------------------------------------
                                   SCF
               by Justin Turney, Rob Parrish, Andy Simmonett
                          and Daniel G. A. Smith
                              RHF Reference
                       20 Threads,  57220 MiB Core
         ---------------------------------------------------------

  ==> Geometry <==

    Molecular point group: c1
    Full point group: C1

    Geometry (in Angstrom), charge = -1, multiplicity = 1:

       Center              X                  Y                   Z               Mass       
    ------------   -----------------  -----------------  -----------------  -----------------
         BR           0.000000000000     0.000000000000     0.000000000000    78.918337600000
      Gh(O)           1.945893000000     0.262012000000    -2.944461000000    15.994914619570
      Gh(H)           2.825168000000     0.000048000000    -2.764125000000     1.007825032230
      Gh(H)           1.492154000000     0.128599000000    -2.083365000000     1.007825032230
      Gh(O)           1.918090000000    -2.759463000000     0.110152000000    15.994914619570
      Gh(H)           2.249433000000    -3.068366000000     0.986392000000     1.007825032230
      Gh(H)           1.495298000000    -1.822514000000     0.139316000000     1.007825032230
      Gh(O)          -0.118445000000     3.259334000000     0.447045000000    15.994914619570
      Gh(H)           0.218183000000     2.360201000000     0.174258000000     1.007825032230
      Gh(H)          -0.788624000000     3.412072000000    -0.216775000000     1.007825032230
      Gh(O)          -1.467014000000     0.339355000000    -3.263026000000    15.994914619570
      Gh(H)          -2.372942000000     0.465663000000    -2.906747000000     1.007825032230
      Gh(H)          -0.878477000000     0.065588000000    -2.558990000000     1.007825032230
      Gh(O)          -3.316037000000    -0.369815000000     0.274592000000    15.994914619570
      Gh(H)          -2.663704000000    -1.042109000000     0.576311000000     1.007825032230
      Gh(H)          -3.997139000000    -0.433657000000     0.965591000000     1.007825032230
      Gh(O)           3.111664000000     0.648515000000     1.096188000000    15.994914619570
      Gh(H)           2.163031000000     0.405322000000     0.957248000000     1.007825032230
      Gh(H)           3.130519000000     1.210000000000     1.863659000000     1.007825032230
      Gh(O)          -1.031067000000    -3.136478000000    -0.817819000000    15.994914619570
      Gh(H)          -0.145501000000    -2.816616000000    -0.879827000000     1.007825032230
      Gh(H)          -1.232430000000    -3.165983000000     0.108864000000     1.007825032230
      Gh(O)           0.920696000000    -0.819222000000     3.154004000000    15.994914619570
      Gh(H)           1.852436000000    -0.484491000000     3.317884000000     1.007825032230
      Gh(H)           0.572531000000    -0.433290000000     2.303889000000     1.007825032230

  Running in c1 symmetry.

  Rotational constants: A =      0.01698  B =      0.01483  C =      0.01414 [cm^-1]
  Rotational constants: A =    509.15372  B =    444.58458  C =    423.98097 [MHz]
  Nuclear repulsion =    0.000000000000000

  Charge       = -1
  Multiplicity = 1
  Electrons    = 36
  Nalpha       = 18
  Nbeta        = 18

  ==> Algorithm <==

  SCF Algorithm Type is DF.
  DIIS enabled.
  MOM disabled.
  Fractional occupation disabled.
  Guess Type is SAD.
  Energy threshold   = 1.00e-08
  Density threshold  = 1.00e-08
  Integral threshold = 1.00e-12

  ==> Primary Basis <==

  Basis Set: AUG-CC-PVTZ
    Blend: AUG-CC-PVTZ
    Number of shells: 275
    Number of basis functions: 795
    Number of Cartesian functions: 909
    Spherical Harmonics?: true
    Max angular momentum: 3

   => Loading Basis Set <=

    Name: (AUG-CC-PVTZ AUX)
    Role: JKFIT
    Keyword: DF_BASIS_SCF
    atoms 1                                                 entry BR         line  1492 file /ddmfs1b/softs/psi4conda/share/psi4/basis/aug-cc-pvtz-jkfit.gbs 
    atoms 2, 5, 8, 11, 14, 17, 20, 23                       entry O          line   286 file /ddmfs1b/softs/psi4conda/share/psi4/basis/aug-cc-pvtz-jkfit.gbs 
    atoms 3-4, 6-7, 9-10, 12-13, 15-16, 18-19, 21-22, 24-25 entry H          line    70 file /ddmfs1b/softs/psi4conda/share/psi4/basis/aug-cc-pvtz-jkfit.gbs 

  ==> Integral Setup <==

  ==> DiskDFJK: Density-Fitted J/K Matrices <==

    J tasked:                  Yes
    K tasked:                  Yes
    wK tasked:                  No
    OpenMP threads:             20
    Integrals threads:          20
    Memory [MiB]:            42915
    Algorithm:                Core
    Integral Cache:           LOAD
    Schwarz Cutoff:          1E-12
    Fitting Condition:       1E-10

   => Auxiliary Basis Set <=

  Basis Set: (AUG-CC-PVTZ AUX)
    Blend: AUG-CC-PVTZ-JKFIT
    Number of shells: 522
    Number of basis functions: 1816
    Number of Cartesian functions: 2257
    Spherical Harmonics?: true
    Max angular momentum: 4

  Minimum eigenvalue in the overlap matrix is 5.5226460995E-05.
  Reciprocal condition number of the overlap matrix is 3.5482691930E-06.
    Using symmetric orthogonalization.

  ==> Pre-Iterations <==

  SCF Guess: Superposition of Atomic Densities via on-the-fly atomic UHF (no occupation information).

   -------------------------
    Irrep   Nso     Nmo    
   -------------------------
     A        795     795 
   -------------------------
    Total     795     795
   -------------------------

  ==> Iterations <==

                           Total Energy        Delta E     RMS |[F,P]|

   @DF-RHF iter SAD: -2570.41423583978394   -2.57041e+03   0.00000e+00 
   @DF-RHF iter   1: -2572.24975299699508   -1.83552e+00   1.39050e-03 ADIIS/DIIS
   @DF-RHF iter   2: -2572.46057890677093   -2.10826e-01   7.83584e-04 ADIIS/DIIS
   @DF-RHF iter   3: -2572.53371188446499   -7.31330e-02   1.15459e-05 DIIS
   @DF-RHF iter   4: -2572.53375141181004   -3.95273e-05   1.73065e-06 DIIS
   @DF-RHF iter   5: -2572.53375355338858   -2.14158e-06   4.08938e-07 DIIS
   @DF-RHF iter   6: -2572.53375370343838   -1.50050e-07   8.85740e-08 DIIS
   @DF-RHF iter   7: -2572.53375372435949   -2.09211e-08   6.61145e-09 DIIS
   @DF-RHF iter   8: -2572.53375372442133   -6.18456e-11   1.06991e-09 DIIS
  Energy and wave function converged.


  ==> Post-Iterations <==

    Orbital Energies [Eh]
    ---------------------

    Doubly Occupied:                                                      

       1A   -489.722791     2A    -64.862239     3A    -58.216791  
       4A    -58.216790     5A    -58.216788     6A     -9.533446  
       7A     -7.140766     8A     -7.140761     9A     -7.140756  
      10A     -2.882494    11A     -2.882474    12A     -2.882470  
      13A     -2.882460    14A     -2.882440    15A     -0.685985  
      16A     -0.139331    17A     -0.139328    18A     -0.139326  

    Virtual:                                                              

      19A      0.112096    20A      0.116914    21A      0.123728  
      22A      0.125049    23A      0.131728    24A      0.135597  
      25A      0.141389    26A      0.144593    27A      0.154952  
      28A      0.163380    29A      0.165183    30A      0.175031  
      31A      0.178762    32A      0.183076    33A      0.189555  
      34A      0.193651    35A      0.225937    36A      0.232141  
      37A      0.238023    38A      0.243366    39A      0.245106  
      40A      0.255294    41A      0.255943    42A      0.261343  
      43A      0.263509    44A      0.266341    45A      0.269527  
      46A      0.272024    47A      0.277462    48A      0.283475  
      49A      0.288449    50A      0.291643    51A      0.294888  
      52A      0.298339    53A      0.300974    54A      0.302977  
      55A      0.308749    56A      0.314331    57A      0.321889  
      58A      0.326383    59A      0.331555    60A      0.336972  
      61A      0.341510    62A      0.345842    63A      0.348824  
      64A      0.355525    65A      0.361163    66A      0.368201  
      67A      0.378868    68A      0.386277    69A      0.395289  
      70A      0.403447    71A      0.410312    72A      0.420655  
      73A      0.425686    74A      0.429117    75A      0.436068  
      76A      0.439919    77A      0.445557    78A      0.447962  
      79A      0.449820    80A      0.459411    81A      0.460978  
      82A      0.471217    83A      0.473315    84A      0.478184  
      85A      0.481181    86A      0.484422    87A      0.489619  
      88A      0.494016    89A      0.499570    90A      0.502899  
      91A      0.503722    92A      0.509283    93A      0.511283  
      94A      0.517022    95A      0.521949    96A      0.525516  
      97A      0.526109    98A      0.534663    99A      0.536252  
     100A      0.538691   101A      0.542038   102A      0.549122  
     103A      0.557985   104A      0.558140   105A      0.561490  
     106A      0.564386   107A      0.565361   108A      0.569370  
     109A      0.579808   110A      0.582560   111A      0.585003  
     112A      0.594070   113A      0.597614   114A      0.601634  
     115A      0.612976   116A      0.623250   117A      0.628514  
     118A      0.633599   119A      0.638544   120A      0.648188  
     121A      0.660458   122A      0.663495   123A      0.669392  
     124A      0.684537   125A      0.686774   126A      0.697074  
     127A      0.711225   128A      0.720847   129A      0.723689  
     130A      0.731137   131A      0.738091   132A      0.748494  
     133A      0.755536   134A      0.765626   135A      0.779699  
     136A      0.786293   137A      0.794127   138A      0.818737  
     139A      0.826420   140A      0.833878   141A      0.842707  
     142A      0.848682   143A      0.849863   144A      0.856630  
     145A      0.863627   146A      0.873032   147A      0.873559  
     148A      0.881649   149A      0.885668   150A      0.895678  
     151A      0.898786   152A      0.901874   153A      0.905939  
     154A      0.914130   155A      0.925317   156A      0.927126  
     157A      0.929330   158A      0.931954   159A      0.941400  
     160A      0.943970   161A      0.946575   162A      0.955494  
     163A      0.957369   164A      0.965935   165A      0.968472  
     166A      0.972355   167A      0.978513   168A      0.980187  
     169A      0.984851   170A      0.991312   171A      0.994048  
     172A      1.002555   173A      1.005880   174A      1.008514  
     175A      1.013205   176A      1.018011   177A      1.020398  
     178A      1.023227   179A      1.029886   180A      1.033713  
     181A      1.036202   182A      1.040689   183A      1.045442  
     184A      1.049775   185A      1.050216   186A      1.056526  
     187A      1.060364   188A      1.063109   189A      1.069195  
     190A      1.075297   191A      1.079943   192A      1.083089  
     193A      1.087308   194A      1.092422   195A      1.095479  
     196A      1.100664   197A      1.103311   198A      1.106357  
     199A      1.113993   200A      1.119968   201A      1.123360  
     202A      1.125224   203A      1.127097   204A      1.132829  
     205A      1.137407   206A      1.141354   207A      1.148963  
     208A      1.152443   209A      1.161864   210A      1.168045  
     211A      1.168954   212A      1.173752   213A      1.180891  
     214A      1.184860   215A      1.186124   216A      1.188574  
     217A      1.191671   218A      1.199750   219A      1.203434  
     220A      1.210702   221A      1.212923   222A      1.218857  
     223A      1.222692   224A      1.227017   225A      1.232549  
     226A      1.239818   227A      1.244737   228A      1.249679  
     229A      1.254573   230A      1.263674   231A      1.267248  
     232A      1.272273   233A      1.281218   234A      1.282520  
     235A      1.288690   236A      1.296010   237A      1.299221  
     238A      1.306299   239A      1.311433   240A      1.314627  
     241A      1.319163   242A      1.328105   243A      1.329853  
     244A      1.337556   245A      1.339559   246A      1.346188  
     247A      1.346933   248A      1.358263   249A      1.363008  
     250A      1.365585   251A      1.379515   252A      1.384561  
     253A      1.392284   254A      1.397480   255A      1.409998  
     256A      1.412961   257A      1.419058   258A      1.426685  
     259A      1.433694   260A      1.443718   261A      1.455028  
     262A      1.462251   263A      1.464079   264A      1.468770  
     265A      1.476669   266A      1.482246   267A      1.487445  
     268A      1.494623   269A      1.504982   270A      1.511729  
     271A      1.527496   272A      1.529353   273A      1.538756  
     274A      1.552099   275A      1.558717   276A      1.561406  
     277A      1.570517   278A      1.580172   279A      1.587520  
     280A      1.601527   281A      1.606719   282A      1.611742  
     283A      1.623820   284A      1.638339   285A      1.643207  
     286A      1.653603   287A      1.663465   288A      1.665610  
     289A      1.671212   290A      1.682821   291A      1.690043  
     292A      1.695390   293A      1.697347   294A      1.704025  
     295A      1.720869   296A      1.723721   297A      1.732905  
     298A      1.738781   299A      1.754181   300A      1.760129  
     301A      1.766216   302A      1.774658   303A      1.787377  
     304A      1.799520   305A      1.809288   306A      1.824202  
     307A      1.826463   308A      1.841391   309A      1.855120  
     310A      1.862596   311A      1.864480   312A      1.875780  
     313A      1.884285   314A      1.895089   315A      1.899558  
     316A      1.903053   317A      1.911149   318A      1.918702  
     319A      1.931077   320A      1.933719   321A      1.936934  
     322A      1.944443   323A      1.951712   324A      1.958222  
     325A      1.962899   326A      1.970827   327A      1.979203  
     328A      1.983941   329A      1.985551   330A      1.999167  
     331A      2.003329   332A      2.005817   333A      2.019146  
     334A      2.025768   335A      2.032236   336A      2.038817  
     337A      2.045639   338A      2.053551   339A      2.066362  
     340A      2.073472   341A      2.079031   342A      2.088749  
     343A      2.094698   344A      2.102047   345A      2.117033  
     346A      2.124927   347A      2.126501   348A      2.128866  
     349A      2.145735   350A      2.160955   351A      2.164885  
     352A      2.181952   353A      2.185406   354A      2.196484  
     355A      2.203438   356A      2.215586   357A      2.221078  
     358A      2.230580   359A      2.243037   360A      2.253353  
     361A      2.282452   362A      2.298733   363A      2.313899  
     364A      2.324010   365A      2.340733   366A      2.368204  
     367A      2.379293   368A      2.405734   369A      2.453236  
     370A      2.454614   371A      2.486184   372A      2.599303  
     373A      2.613099   374A      2.618474   375A      2.626188  
     376A      2.639260   377A      2.645449   378A      2.653826  
     379A      2.660196   380A      2.666903   381A      2.672044  
     382A      2.674188   383A      2.676695   384A      2.693185  
     385A      2.699639   386A      2.707156   387A      2.712564  
     388A      2.720964   389A      2.726049   390A      2.727042  
     391A      2.740160   392A      2.745552   393A      2.747614  
     394A      2.761910   395A      2.765019   396A      2.770642  
     397A      2.780899   398A      2.788765   399A      2.790495  
     400A      2.791823   401A      2.802510   402A      2.804988  
     403A      2.817895   404A      2.821809   405A      2.827309  
     406A      2.833769   407A      2.843944   408A      2.856311  
     409A      2.859469   410A      2.869582   411A      2.869844  
     412A      2.873573   413A      2.877679   414A      2.878846  
     415A      2.888750   416A      2.896184   417A      2.908916  
     418A      2.920753   419A      2.929598   420A      2.934611  
     421A      2.944752   422A      2.947070   423A      2.951237  
     424A      2.955734   425A      2.966883   426A      2.971534  
     427A      2.980139   428A      2.995657   429A      3.007390  
     430A      3.015967   431A      3.021001   432A      3.030466  
     433A      3.046085   434A      3.055448   435A      3.065501  
     436A      3.075080   437A      3.080479   438A      3.081740  
     439A      3.106720   440A      3.121504   441A      3.125905  
     442A      3.143628   443A      3.160087   444A      3.177067  
     445A      3.186178   446A      3.194659   447A      3.206130  
     448A      3.208378   449A      3.219777   450A      3.231520  
     451A      3.240417   452A      3.260605   453A      3.277806  
     454A      3.289326   455A      3.321201   456A      3.333165  
     457A      3.338847   458A      3.345635   459A      3.360376  
     460A      3.367532   461A      3.371560   462A      3.383137  
     463A      3.393404   464A      3.404162   465A      3.408926  
     466A      3.412899   467A      3.425507   468A      3.430128  
     469A      3.435133   470A      3.439981   471A      3.459302  
     472A      3.468155   473A      3.476645   474A      3.490502  
     475A      3.508819   476A      3.516814   477A      3.529775  
     478A      3.567209   479A      3.575791   480A      3.585421  
     481A      3.590824   482A      3.604574   483A      3.611952  
     484A      3.637914   485A      3.647217   486A      3.653495  
     487A      3.663568   488A      3.687430   489A      3.694165  
     490A      3.697268   491A      3.716594   492A      3.728143  
     493A      3.735215   494A      3.740190   495A      3.771292  
     496A      3.782111   497A      3.789081   498A      3.801675  
     499A      3.816281   500A      3.818247   501A      3.827639  
     502A      3.848854   503A      3.862224   504A      3.872134  
     505A      3.900339   506A      3.939138   507A      3.961568  
     508A      3.987953   509A      4.012317   510A      4.029674  
     511A      4.038602   512A      4.064109   513A      4.100615  
     514A      4.130478   515A      4.549396   516A      4.568534  
     517A      4.572022   518A      4.596705   519A      4.611596  
     520A      4.616916   521A      4.626003   522A      4.629130  
     523A      4.632616   524A      4.645058   525A      4.652794  
     526A      4.669939   527A      4.679254   528A      4.688092  
     529A      4.695406   530A      4.710964   531A      4.722209  
     532A      4.733284   533A      4.744594   534A      4.753146  
     535A      4.762099   536A      4.777451   537A      4.790264  
     538A      4.798291   539A      4.810964   540A      4.815945  
     541A      4.817686   542A      4.823318   543A      4.832833  
     544A      4.842605   545A      4.848228   546A      4.862044  
     547A      4.877387   548A      4.880947   549A      4.895050  
     550A      4.902003   551A      4.902741   552A      4.916040  
     553A      4.930061   554A      4.939010   555A      4.952060  
     556A      4.999856   557A      5.021476   558A      5.032188  
     559A      5.045015   560A      5.052936   561A      5.061173  
     562A      5.071531   563A      5.075490   564A      5.094350  
     565A      5.103635   566A      5.111820   567A      5.113368  
     568A      5.128764   569A      5.141021   570A      5.146948  
     571A      5.156346   572A      5.168649   573A      5.175917  
     574A      5.208356   575A      5.214118   576A      5.226238  
     577A      5.246969   578A      5.260192   579A      5.268645  
     580A      5.290349   581A      5.300595   582A      5.326456  
     583A      5.334659   584A      5.354375   585A      5.387775  
     586A      5.408233   587A      5.413776   588A      5.453512  
     589A      5.465640   590A      5.477102   591A      5.501773  
     592A      5.503380   593A      5.532191   594A      5.555437  
     595A      5.583751   596A      5.609934   597A      5.638259  
     598A      5.645499   599A      5.665441   600A      5.684580  
     601A      5.704727   602A      5.711422   603A      5.716825  
     604A      5.743626   605A      5.755861   606A      5.759764  
     607A      5.768028   608A      5.770898   609A      5.782019  
     610A      5.794268   611A      5.824104   612A      5.835253  
     613A      5.842472   614A      5.857234   615A      5.861077  
     616A      5.863080   617A      5.890552   618A      5.907300  
     619A      5.934992   620A      5.949475   621A      5.980708  
     622A      6.048250   623A      6.070949   624A      6.092344  
     625A      6.097286   626A      6.118640   627A      6.308087  
     628A      6.317346   629A      6.324422   630A      6.334151  
     631A      6.345382   632A      6.359567   633A      6.371037  
     634A      6.426312   635A      6.481713   636A      6.516398  
     637A      6.521009   638A      6.548060   639A      6.548830  
     640A      6.624864   641A      6.695449   642A      6.719362  
     643A      6.741804   644A      6.771277   645A      6.811651  
     646A      6.857490   647A      6.889115   648A      6.920166  
     649A      6.939485   650A      6.958402   651A      6.981035  
     652A      7.119937   653A      7.146278   654A      7.176866  
     655A      7.212516   656A      7.264776   657A      7.271590  
     658A      7.305749   659A      7.379297   660A      7.870300  
     661A      7.874246   662A      7.885383   663A      7.892597  
     664A      7.904854   665A      7.929194   666A      7.933633  
     667A      7.958820   668A      7.971577   669A      7.982526  
     670A      7.992915   671A      8.005952   672A      8.038622  
     673A      8.054908   674A      8.058974   675A      8.074432  
     676A      8.187745   677A      8.213049   678A      8.249523  
     679A      8.253639   680A      8.257947   681A      8.271399  
     682A      8.303735   683A      8.310287   684A      8.334695  
     685A      8.343866   686A      8.367635   687A      8.381934  
     688A      8.401855   689A      8.418865   690A      8.420628  
     691A      8.435087   692A      8.446109   693A      8.457440  
     694A      8.468569   695A      8.474366   696A      8.480983  
     697A      8.487561   698A      8.504753   699A      8.588678  
     700A      8.763205   701A      8.806824   702A      8.847189  
     703A      8.907709   704A      8.913037   705A      8.956304  
     706A      8.974886   707A      9.007791   708A      9.011463  
     709A      9.027193   710A      9.036041   711A      9.077129  
     712A      9.142413   713A      9.164881   714A      9.194430  
     715A      9.207741   716A      9.841890   717A      9.854787  
     718A      9.896440   719A      9.899619   720A      9.919767  
     721A      9.947159   722A     10.009011   723A     10.015476  
     724A     10.021639   725A     10.054133   726A     10.062335  
     727A     10.067673   728A     10.085535   729A     10.104325  
     730A     10.115735   731A     10.139569   732A     10.211551  
     733A     10.228634   734A     10.237983   735A     10.247613  
     736A     10.254968   737A     10.272966   738A     10.302075  
     739A     10.311028   740A     10.405664   741A     10.442428  
     742A     10.449364   743A     10.489243   744A     10.497634  
     745A     10.505017   746A     10.510815   747A     10.596154  
     748A     11.030931   749A     11.115263   750A     11.268572  
     751A     11.305330   752A     11.309431   753A     11.325354  
     754A     11.390009   755A     11.488519   756A     11.835369  
     757A     11.891179   758A     11.907353   759A     11.921780  
     760A     11.955150   761A     11.980700   762A     11.998318  
     763A     12.010276   764A     12.019721   765A     12.087754  
     766A     12.106982   767A     12.203927   768A     12.273599  
     769A     12.325713   770A     12.433329   771A     12.524284  
     772A     13.541328   773A     13.584980   774A     13.705225  
     775A     13.723658   776A     13.743614   777A     13.826989  
     778A     13.867710   779A     13.984937   780A     14.068892  
     781A     14.102267   782A     14.109085   783A     14.129870  
     784A     14.165719   785A     14.176643   786A     14.198379  
     787A     14.281359   788A     64.327315   789A     64.633248  
     790A     64.789806   791A     65.241093   792A     66.060952  
     793A     66.288440   794A     66.698096   795A     67.644116  

    Final Occupation by Irrep:
              A 
    DOCC [    18 ]
    NA   [    18 ]
    NB   [    18 ]

  @DF-RHF Final Energy: -2572.53375372442133

   => Energetics <=

    Nuclear Repulsion Energy =              0.0000000000000000
    One-Electron Energy =               -3593.6526386874124910
    Two-Electron Energy =                1021.1188849629911601
    Total Energy =                      -2572.5337537244213308

Computation Completed


Properties will be evaluated at   0.000000,   0.000000,   0.000000 [a0]

Properties computed using the SCF density matrix


 Multipole Moments:

 ------------------------------------------------------------------------------------
     Multipole            Electronic (a.u.)      Nuclear  (a.u.)        Total (a.u.)
 ------------------------------------------------------------------------------------

 L = 1.  Multiply by 2.5417464519 to convert [e a0] to [Debye]
 Dipole X            :          0.0000620            0.0000000            0.0000620
 Dipole Y            :          0.0000025            0.0000000            0.0000025
 Dipole Z            :         -0.0000374            0.0000000           -0.0000374
 Magnitude           :                                                    0.0000724

 ------------------------------------------------------------------------------------

*** tstop() called on ddmfs1 at Sat Jan 20 14:07:21 2024
Module time:
	user time   =     407.28 seconds =       6.79 minutes
	system time =      11.20 seconds =       0.19 minutes
	total time  =         27 seconds =       0.45 minutes
Total time:
	user time   =    1042.24 seconds =      17.37 minutes
	system time =      48.04 seconds =       0.80 minutes
	total time  =         71 seconds =       1.18 minutes

  //>>>>>>>>>>>>>>>>>>>>>>>>>>>>>>>>>>>//
  //            Monomer B HF           //
  //<<<<<<<<<<<<<<<<<<<<<<<<<<<<<<<<<<<//

   => Libint2 <=

    Primary   basis highest AM E, G, H:  5, 4, 3
    Auxiliary basis highest AM E, G, H:  6, 5, 4
    Onebody   basis highest AM E, G, H:  6, 5, 4
    Solid Harmonics ordering:            gaussian

*** tstart() called on ddmfs1
*** at Sat Jan 20 14:07:21 2024

   => Loading Basis Set <=

    Name: AUG-CC-PVTZ
    Role: ORBITAL
    Keyword: BASIS
    atoms 1                                                 entry BR         line  4208 file /ddmfs1b/softs/psi4conda/share/psi4/basis/aug-cc-pvtz.gbs 
    atoms 2, 5, 8, 11, 14, 17, 20, 23                       entry O          line   331 file /ddmfs1b/softs/psi4conda/share/psi4/basis/aug-cc-pvtz.gbs 
    atoms 3-4, 6-7, 9-10, 12-13, 15-16, 18-19, 21-22, 24-25 entry H          line    40 file /ddmfs1b/softs/psi4conda/share/psi4/basis/aug-cc-pvtz.gbs 


         ---------------------------------------------------------
                                   SCF
               by Justin Turney, Rob Parrish, Andy Simmonett
                          and Daniel G. A. Smith
                              RHF Reference
                       20 Threads,  57220 MiB Core
         ---------------------------------------------------------

  ==> Geometry <==

    Molecular point group: c1
    Full point group: C1

    Geometry (in Angstrom), charge = 0, multiplicity = 1:

       Center              X                  Y                   Z               Mass       
    ------------   -----------------  -----------------  -----------------  -----------------
      Gh(BR)          0.000000000000     0.000000000000     0.000000000000    78.918337600000
         O            1.945893000000     0.262012000000    -2.944461000000    15.994914619570
         H            2.825168000000     0.000048000000    -2.764125000000     1.007825032230
         H            1.492154000000     0.128599000000    -2.083365000000     1.007825032230
         O            1.918090000000    -2.759463000000     0.110152000000    15.994914619570
         H            2.249433000000    -3.068366000000     0.986392000000     1.007825032230
         H            1.495298000000    -1.822514000000     0.139316000000     1.007825032230
         O           -0.118445000000     3.259334000000     0.447045000000    15.994914619570
         H            0.218183000000     2.360201000000     0.174258000000     1.007825032230
         H           -0.788624000000     3.412072000000    -0.216775000000     1.007825032230
         O           -1.467014000000     0.339355000000    -3.263026000000    15.994914619570
         H           -2.372942000000     0.465663000000    -2.906747000000     1.007825032230
         H           -0.878477000000     0.065588000000    -2.558990000000     1.007825032230
         O           -3.316037000000    -0.369815000000     0.274592000000    15.994914619570
         H           -2.663704000000    -1.042109000000     0.576311000000     1.007825032230
         H           -3.997139000000    -0.433657000000     0.965591000000     1.007825032230
         O            3.111664000000     0.648515000000     1.096188000000    15.994914619570
         H            2.163031000000     0.405322000000     0.957248000000     1.007825032230
         H            3.130519000000     1.210000000000     1.863659000000     1.007825032230
         O           -1.031067000000    -3.136478000000    -0.817819000000    15.994914619570
         H           -0.145501000000    -2.816616000000    -0.879827000000     1.007825032230
         H           -1.232430000000    -3.165983000000     0.108864000000     1.007825032230
         O            0.920696000000    -0.819222000000     3.154004000000    15.994914619570
         H            1.852436000000    -0.484491000000     3.317884000000     1.007825032230
         H            0.572531000000    -0.433290000000     2.303889000000     1.007825032230

  Running in c1 symmetry.

  Rotational constants: A =      0.01698  B =      0.01483  C =      0.01414 [cm^-1]
  Rotational constants: A =    509.15372  B =    444.58458  C =    423.98097 [MHz]
  Nuclear repulsion =  390.371349966393723

  Charge       = 0
  Multiplicity = 1
  Electrons    = 80
  Nalpha       = 40
  Nbeta        = 40

  ==> Algorithm <==

  SCF Algorithm Type is DF.
  DIIS enabled.
  MOM disabled.
  Fractional occupation disabled.
  Guess Type is SAD.
  Energy threshold   = 1.00e-08
  Density threshold  = 1.00e-08
  Integral threshold = 1.00e-12

  ==> Primary Basis <==

  Basis Set: AUG-CC-PVTZ
    Blend: AUG-CC-PVTZ
    Number of shells: 275
    Number of basis functions: 795
    Number of Cartesian functions: 909
    Spherical Harmonics?: true
    Max angular momentum: 3

   => Loading Basis Set <=

    Name: (AUG-CC-PVTZ AUX)
    Role: JKFIT
    Keyword: DF_BASIS_SCF
    atoms 1                                                 entry BR         line  1492 file /ddmfs1b/softs/psi4conda/share/psi4/basis/aug-cc-pvtz-jkfit.gbs 
    atoms 2, 5, 8, 11, 14, 17, 20, 23                       entry O          line   286 file /ddmfs1b/softs/psi4conda/share/psi4/basis/aug-cc-pvtz-jkfit.gbs 
    atoms 3-4, 6-7, 9-10, 12-13, 15-16, 18-19, 21-22, 24-25 entry H          line    70 file /ddmfs1b/softs/psi4conda/share/psi4/basis/aug-cc-pvtz-jkfit.gbs 

  ==> Integral Setup <==

  ==> DiskDFJK: Density-Fitted J/K Matrices <==

    J tasked:                  Yes
    K tasked:                  Yes
    wK tasked:                  No
    OpenMP threads:             20
    Integrals threads:          20
    Memory [MiB]:            42915
    Algorithm:                Core
    Integral Cache:           LOAD
    Schwarz Cutoff:          1E-12
    Fitting Condition:       1E-10

   => Auxiliary Basis Set <=

  Basis Set: (AUG-CC-PVTZ AUX)
    Blend: AUG-CC-PVTZ-JKFIT
    Number of shells: 522
    Number of basis functions: 1816
    Number of Cartesian functions: 2257
    Spherical Harmonics?: true
    Max angular momentum: 4

  Minimum eigenvalue in the overlap matrix is 5.5226460995E-05.
  Reciprocal condition number of the overlap matrix is 3.5482691930E-06.
    Using symmetric orthogonalization.

  ==> Pre-Iterations <==

  SCF Guess: Superposition of Atomic Densities via on-the-fly atomic UHF (no occupation information).

   -------------------------
    Irrep   Nso     Nmo    
   -------------------------
     A        795     795 
   -------------------------
    Total     795     795
   -------------------------

  ==> Iterations <==

                           Total Energy        Delta E     RMS |[F,P]|

   @DF-RHF iter SAD:  -603.87282037230375   -6.03873e+02   0.00000e+00 
   @DF-RHF iter   1:  -607.76651410261934   -3.89369e+00   1.64979e-03 ADIIS/DIIS
   @DF-RHF iter   2:  -608.18152615854626   -4.15012e-01   1.13922e-03 ADIIS/DIIS
   @DF-RHF iter   3:  -608.43827352268227   -2.56747e-01   8.13972e-05 DIIS
   @DF-RHF iter   4:  -608.44191184457634   -3.63832e-03   2.11759e-05 DIIS
   @DF-RHF iter   5:  -608.44215579260515   -2.43948e-04   7.00102e-06 DIIS
   @DF-RHF iter   6:  -608.44218154149871   -2.57489e-05   3.00679e-06 DIIS
   @DF-RHF iter   7:  -608.44218566425536   -4.12276e-06   6.17015e-07 DIIS
   @DF-RHF iter   8:  -608.44218603286208   -3.68607e-07   1.35346e-07 DIIS
   @DF-RHF iter   9:  -608.44218604659238   -1.37303e-08   5.55117e-08 DIIS
   @DF-RHF iter  10:  -608.44218604794412   -1.35174e-09   1.61516e-08 DIIS
   @DF-RHF iter  11:  -608.44218604812124   -1.77124e-10   4.95545e-09 DIIS
  Energy and wave function converged.


  ==> Post-Iterations <==

    Orbital Energies [Eh]
    ---------------------

    Doubly Occupied:                                                      

       1A    -20.612978     2A    -20.612911     3A    -20.607520  
       4A    -20.590552     5A    -20.587531     6A    -20.578923  
       7A    -20.571811     8A    -20.558123     9A     -1.391341  
      10A     -1.370683    11A     -1.368325    12A     -1.364930  
      13A     -1.363578    14A     -1.361793    15A     -1.360079  
      16A     -1.334844    17A     -0.761300    18A     -0.748869  
      19A     -0.744229    20A     -0.731655    21A     -0.728269  
      22A     -0.719360    23A     -0.716606    24A     -0.709661  
      25A     -0.628550    26A     -0.606253    27A     -0.604057  
      28A     -0.603106    29A     -0.598194    30A     -0.596243  
      31A     -0.592631    32A     -0.562568    33A     -0.552858  
      34A     -0.545059    35A     -0.538318    36A     -0.528554  
      37A     -0.525007    38A     -0.520650    39A     -0.517861  
      40A     -0.498479  

    Virtual:                                                              

      41A     -0.002925    42A      0.021514    43A      0.027439  
      44A      0.031062    45A      0.039743    46A      0.044681  
      47A      0.052234    48A      0.055620    49A      0.057711  
      50A      0.070124    51A      0.074326    52A      0.079297  
      53A      0.084419    54A      0.092407    55A      0.098873  
      56A      0.100339    57A      0.105348    58A      0.110337  
      59A      0.113625    60A      0.120754    61A      0.135060  
      62A      0.138735    63A      0.147188    64A      0.154090  
      65A      0.156931    66A      0.159686    67A      0.164957  
      68A      0.172340    69A      0.173349    70A      0.177891  
      71A      0.184436    72A      0.185184    73A      0.187171  
      74A      0.189866    75A      0.191356    76A      0.198041  
      77A      0.205710    78A      0.209470    79A      0.211883  
      80A      0.214771    81A      0.225441    82A      0.226132  
      83A      0.230146    84A      0.235796    85A      0.238231  
      86A      0.238788    87A      0.246120    88A      0.248417  
      89A      0.249881    90A      0.254796    91A      0.256746  
      92A      0.258986    93A      0.262350    94A      0.270442  
      95A      0.276747    96A      0.281388    97A      0.282121  
      98A      0.286830    99A      0.291616   100A      0.298093  
     101A      0.308769   102A      0.312720   103A      0.321364  
     104A      0.328268   105A      0.331589   106A      0.334176  
     107A      0.338373   108A      0.345955   109A      0.348077  
     110A      0.353083   111A      0.358185   112A      0.359203  
     113A      0.365019   114A      0.370166   115A      0.373912  
     116A      0.380850   117A      0.385668   118A      0.391326  
     119A      0.396934   120A      0.404642   121A      0.405500  
     122A      0.411157   123A      0.412785   124A      0.418662  
     125A      0.419518   126A      0.427468   127A      0.431611  
     128A      0.433730   129A      0.438318   130A      0.444544  
     131A      0.449604   132A      0.455600   133A      0.456686  
     134A      0.457419   135A      0.468460   136A      0.469778  
     137A      0.470925   138A      0.479464   139A      0.483291  
     140A      0.485169   141A      0.487958   142A      0.497778  
     143A      0.503462   144A      0.506714   145A      0.516323  
     146A      0.521446   147A      0.525513   148A      0.532620  
     149A      0.546546   150A      0.551144   151A      0.558534  
     152A      0.567480   153A      0.578175   154A      0.582299  
     155A      0.592274   156A      0.597099   157A      0.605538  
     158A      0.618350   159A      0.625911   160A      0.629961  
     161A      0.634053   162A      0.638725   163A      0.648082  
     164A      0.648930   165A      0.658649   166A      0.674524  
     167A      0.677175   168A      0.686494   169A      0.688519  
     170A      0.696762   171A      0.702703   172A      0.709940  
     173A      0.717978   174A      0.718058   175A      0.722594  
     176A      0.725375   177A      0.733224   178A      0.739871  
     179A      0.741809   180A      0.742950   181A      0.752162  
     182A      0.756693   183A      0.762082   184A      0.766245  
     185A      0.768315   186A      0.772429   187A      0.782736  
     188A      0.784774   189A      0.789914   190A      0.792261  
     191A      0.796419   192A      0.798361   193A      0.803858  
     194A      0.804774   195A      0.813163   196A      0.827715  
     197A      0.833523   198A      0.835373   199A      0.840920  
     200A      0.844165   201A      0.848647   202A      0.854664  
     203A      0.859363   204A      0.864257   205A      0.870023  
     206A      0.876112   207A      0.882508   208A      0.891422  
     209A      0.895725   210A      0.899915   211A      0.907575  
     212A      0.911234   213A      0.912084   214A      0.917657  
     215A      0.919703   216A      0.926736   217A      0.927166  
     218A      0.934166   219A      0.938587   220A      0.945881  
     221A      0.954409   222A      0.956872   223A      0.958627  
     224A      0.959700   225A      0.965995   226A      0.973878  
     227A      0.983037   228A      0.985559   229A      0.989433  
     230A      0.995150   231A      0.996537   232A      1.000475  
     233A      1.008023   234A      1.008563   235A      1.013286  
     236A      1.015382   237A      1.019828   238A      1.027113  
     239A      1.030238   240A      1.032128   241A      1.038278  
     242A      1.044089   243A      1.052253   244A      1.054248  
     245A      1.060882   246A      1.063882   247A      1.067598  
     248A      1.072600   249A      1.075869   250A      1.077362  
     251A      1.080957   252A      1.092155   253A      1.093670  
     254A      1.096788   255A      1.104081   256A      1.113777  
     257A      1.116604   258A      1.121689   259A      1.123759  
     260A      1.129115   261A      1.133635   262A      1.141286  
     263A      1.145741   264A      1.153591   265A      1.156608  
     266A      1.161012   267A      1.166754   268A      1.170491  
     269A      1.172730   270A      1.179794   271A      1.185353  
     272A      1.189657   273A      1.201463   274A      1.205335  
     275A      1.213031   276A      1.221575   277A      1.225624  
     278A      1.233130   279A      1.233765   280A      1.238778  
     281A      1.245877   282A      1.247841   283A      1.250626  
     284A      1.255494   285A      1.269642   286A      1.271767  
     287A      1.275545   288A      1.281773   289A      1.285775  
     290A      1.298285   291A      1.301826   292A      1.305127  
     293A      1.310816   294A      1.319393   295A      1.329574  
     296A      1.347690   297A      1.351156   298A      1.351890  
     299A      1.355967   300A      1.368141   301A      1.378747  
     302A      1.384067   303A      1.388674   304A      1.403007  
     305A      1.412350   306A      1.414228   307A      1.419694  
     308A      1.432275   309A      1.439667   310A      1.441847  
     311A      1.452372   312A      1.455948   313A      1.458280  
     314A      1.468406   315A      1.477093   316A      1.492763  
     317A      1.499956   318A      1.509052   319A      1.509257  
     320A      1.521333   321A      1.523228   322A      1.529653  
     323A      1.539779   324A      1.548318   325A      1.553659  
     326A      1.563835   327A      1.567270   328A      1.575048  
     329A      1.579249   330A      1.587755   331A      1.599706  
     332A      1.604735   333A      1.612621   334A      1.622058  
     335A      1.629102   336A      1.635329   337A      1.647519  
     338A      1.664758   339A      1.666241   340A      1.672808  
     341A      1.675489   342A      1.684876   343A      1.693252  
     344A      1.699993   345A      1.706866   346A      1.716146  
     347A      1.723832   348A      1.730458   349A      1.743100  
     350A      1.750720   351A      1.758687   352A      1.767920  
     353A      1.779041   354A      1.788332   355A      1.798155  
     356A      1.810629   357A      1.816628   358A      1.831570  
     359A      1.835778   360A      1.851334   361A      1.854673  
     362A      1.874104   363A      1.880456   364A      1.887067  
     365A      1.892658   366A      1.900111   367A      1.922304  
     368A      1.926064   369A      1.944113   370A      1.955351  
     371A      1.964260   372A      1.978317   373A      1.995900  
     374A      1.996850   375A      2.005150   376A      2.006799  
     377A      2.021457   378A      2.028194   379A      2.041596  
     380A      2.052414   381A      2.058689   382A      2.078576  
     383A      2.081299   384A      2.091906   385A      2.100005  
     386A      2.117888   387A      2.129181   388A      2.148609  
     389A      2.160927   390A      2.227797   391A      2.265023  
     392A      2.291785   393A      2.319798   394A      2.329065  
     395A      2.336219   396A      2.345981   397A      2.349294  
     398A      2.354464   399A      2.365680   400A      2.368757  
     401A      2.397301   402A      2.398812   403A      2.404819  
     404A      2.409255   405A      2.414007   406A      2.420860  
     407A      2.424626   408A      2.432939   409A      2.437269  
     410A      2.440279   411A      2.451362   412A      2.458978  
     413A      2.462348   414A      2.475380   415A      2.478859  
     416A      2.488728   417A      2.497187   418A      2.499335  
     419A      2.505002   420A      2.517060   421A      2.518808  
     422A      2.527761   423A      2.533723   424A      2.535043  
     425A      2.538433   426A      2.548323   427A      2.551084  
     428A      2.556094   429A      2.563477   430A      2.567123  
     431A      2.576478   432A      2.578995   433A      2.598240  
     434A      2.605592   435A      2.609287   436A      2.616206  
     437A      2.621031   438A      2.629296   439A      2.633429  
     440A      2.642132   441A      2.655921   442A      2.664835  
     443A      2.666713   444A      2.677161   445A      2.680146  
     446A      2.699344   447A      2.705859   448A      2.708342  
     449A      2.718379   450A      2.739531   451A      2.744171  
     452A      2.764556   453A      2.768928   454A      2.776043  
     455A      2.780667   456A      2.787503   457A      2.797970  
     458A      2.804386   459A      2.808475   460A      2.809958  
     461A      2.819674   462A      2.833031   463A      2.839912  
     464A      2.848412   465A      2.856689   466A      2.860560  
     467A      2.865220   468A      2.871766   469A      2.886183  
     470A      2.887811   471A      2.902212   472A      2.911878  
     473A      2.927847   474A      2.933138   475A      2.940391  
     476A      2.944680   477A      2.963665   478A      2.969521  
     479A      2.985182   480A      3.001730   481A      3.004200  
     482A      3.019101   483A      3.027119   484A      3.037149  
     485A      3.048636   486A      3.060100   487A      3.068214  
     488A      3.077036   489A      3.089595   490A      3.113096  
     491A      3.133862   492A      3.147290   493A      3.207927  
     494A      3.352187   495A      3.359226   496A      3.401951  
     497A      3.469342   498A      3.502648   499A      3.531380  
     500A      3.561582   501A      3.584903   502A      3.604306  
     503A      3.645736   504A      3.659587   505A      3.669075  
     506A      3.687995   507A      3.720633   508A      3.724067  
     509A      3.755315   510A      3.773372   511A      3.781132  
     512A      3.799352   513A      3.802608   514A      3.830945  
     515A      3.842387   516A      3.863678   517A      3.891277  
     518A      3.916228   519A      3.938028   520A      3.948859  
     521A      3.978998   522A      4.013649   523A      4.049538  
     524A      4.054448   525A      4.072784   526A      4.078676  
     527A      4.090214   528A      4.106536   529A      4.127844  
     530A      4.137581   531A      4.152720   532A      4.162305  
     533A      4.180212   534A      4.183522   535A      4.193847  
     536A      4.210966   537A      4.224122   538A      4.233037  
     539A      4.243922   540A      4.247853   541A      4.256206  
     542A      4.265590   543A      4.273454   544A      4.275534  
     545A      4.280518   546A      4.286854   547A      4.292168  
     548A      4.299500   549A      4.305907   550A      4.310926  
     551A      4.318813   552A      4.321676   553A      4.330482  
     554A      4.334265   555A      4.348311   556A      4.355188  
     557A      4.366000   558A      4.378277   559A      4.380275  
     560A      4.388172   561A      4.392744   562A      4.398556  
     563A      4.402814   564A      4.410247   565A      4.418661  
     566A      4.424211   567A      4.427220   568A      4.429510  
     569A      4.434353   570A      4.435083   571A      4.449416  
     572A      4.457137   573A      4.468342   574A      4.474584  
     575A      4.478024   576A      4.481610   577A      4.492564  
     578A      4.498271   579A      4.507194   580A      4.514186  
     581A      4.524345   582A      4.530338   583A      4.545792  
     584A      4.552304   585A      4.569375   586A      4.580501  
     587A      4.597703   588A      4.612305   589A      4.624977  
     590A      4.641935   591A      4.660515   592A      4.664389  
     593A      4.675013   594A      4.687855   595A      4.694099  
     596A      4.712807   597A      4.717953   598A      4.744713  
     599A      4.782968   600A      4.789846   601A      4.799019  
     602A      4.810872   603A      4.821677   604A      4.848538  
     605A      4.852336   606A      4.870219   607A      4.886482  
     608A      4.904683   609A      4.917598   610A      4.930334  
     611A      4.962687   612A      4.985323   613A      5.013666  
     614A      5.032983   615A      5.058648   616A      5.087769  
     617A      5.093383   618A      5.104158   619A      5.116629  
     620A      5.146634   621A      5.153969   622A      5.159855  
     623A      5.170662   624A      5.174110   625A      5.174485  
     626A      5.181084   627A      5.208043   628A      5.230824  
     629A      5.233514   630A      5.251135   631A      5.264222  
     632A      5.272256   633A      5.300783   634A      5.309442  
     635A      5.325446   636A      5.332172   637A      5.342126  
     638A      5.346938   639A      5.354529   640A      5.377263  
     641A      5.386643   642A      5.406257   643A      5.413898  
     644A      5.457997   645A      5.468472   646A      5.472005  
     647A      5.475597   648A      5.502062   649A      5.506167  
     650A      5.512573   651A      5.537292   652A      5.566745  
     653A      5.605984   654A      5.658237   655A      5.669004  
     656A      5.729819   657A      5.744752   658A      5.757188  
     659A      5.768058   660A      5.807859   661A      5.820565  
     662A      6.133754   663A      6.150641   664A      6.194768  
     665A      6.255698   666A      6.286853   667A      6.291145  
     668A      6.300559   669A      6.309485   670A      6.543067  
     671A      6.562405   672A      6.570022   673A      6.575258  
     674A      6.594758   675A      6.602715   676A      6.615956  
     677A      6.659426   678A      6.748735   679A      6.769743  
     680A      6.772048   681A      6.784298   682A      6.803104  
     683A      6.820437   684A      6.828180   685A      6.849547  
     686A      6.861249   687A      6.875345   688A      6.926171  
     689A      6.931818   690A      6.937440   691A      6.981473  
     692A      6.984347   693A      7.019560   694A      7.111876  
     695A      7.124377   696A      7.133981   697A      7.157721  
     698A      7.170647   699A      7.175665   700A      7.177396  
     701A      7.211679   702A      7.221053   703A      7.235571  
     704A      7.240902   705A      7.264036   706A      7.280184  
     707A      7.287646   708A      7.290143   709A      7.301152  
     710A      7.307703   711A      7.313301   712A      7.317772  
     713A      7.323866   714A      7.325936   715A      7.332315  
     716A      7.336321   717A      7.340766   718A      7.345217  
     719A      7.350936   720A      7.357466   721A      7.365942  
     722A      7.370510   723A      7.380372   724A      7.391110  
     725A      7.401552   726A      7.409525   727A      7.413309  
     728A      7.423030   729A      7.425020   730A      7.428350  
     731A      7.444277   732A      7.446631   733A      7.454606  
     734A      7.472675   735A      7.481640   736A      7.486036  
     737A      7.500843   738A      7.517157   739A      7.522249  
     740A      7.529453   741A      7.537969   742A      7.599547  
     743A      7.670629   744A      7.690784   745A      7.731505  
     746A      7.752692   747A      7.762537   748A      7.780905  
     749A      7.788071   750A      7.815463   751A      7.838518  
     752A      7.876662   753A      7.901054   754A      7.910749  
     755A      7.930726   756A      7.943984   757A      7.965667  
     758A      7.976913   759A      7.987761   760A      7.995848  
     761A      8.009171   762A      8.032087   763A      8.048868  
     764A      8.070438   765A      8.114989   766A      8.546285  
     767A      8.557294   768A      8.746206   769A      8.755779  
     770A      8.761184   771A      8.772026   772A      8.861957  
     773A      8.923957   774A     11.893507   775A     13.983482  
     776A     14.026180   777A     14.078873   778A     15.475027  
     779A     15.479756   780A     15.556247   781A     15.884945  
     782A     16.333518   783A     16.414531   784A     16.635676  
     785A     17.190746   786A     26.341625   787A     26.502527  
     788A     26.537940   789A     26.648112   790A     26.823259  
     791A     47.018814   792A    139.313518   793A    139.385423  
     794A    139.467089   795A    713.517200  

    Final Occupation by Irrep:
              A 
    DOCC [    40 ]
    NA   [    40 ]
    NB   [    40 ]

  @DF-RHF Final Energy:  -608.44218604812124

   => Energetics <=

    Nuclear Repulsion Energy =            390.3713499663937228
    One-Electron Energy =               -1616.5985454107433270
    Two-Electron Energy =                 617.7850093962282472
    Total Energy =                       -608.4421860481212434

Computation Completed


Properties will be evaluated at   0.000000,   0.000000,   0.000000 [a0]

Properties computed using the SCF density matrix


 Multipole Moments:

 ------------------------------------------------------------------------------------
     Multipole            Electronic (a.u.)      Nuclear  (a.u.)        Total (a.u.)
 ------------------------------------------------------------------------------------

 L = 1.  Multiply by 2.5417464519 to convert [e a0] to [Debye]
 Dipole X            :        -36.8803779           37.0956564            0.2152785
 Dipole Y            :         48.7085589          -48.8033658           -0.0948069
 Dipole Z            :         31.9818789          -29.4098398            2.5720391
 Magnitude           :                                                    2.5827734

 ------------------------------------------------------------------------------------

*** tstop() called on ddmfs1 at Sat Jan 20 14:07:55 2024
Module time:
	user time   =     553.42 seconds =       9.22 minutes
	system time =      14.28 seconds =       0.24 minutes
	total time  =         34 seconds =       0.57 minutes
Total time:
	user time   =    1595.77 seconds =      26.60 minutes
	system time =      62.33 seconds =       1.04 minutes
	total time  =        105 seconds =       1.75 minutes
  Constructing Basis Sets for SAPT...

   => Loading Basis Set <=

    Name: (AUG-CC-PVTZ AUX)
    Role: RIFIT
    Keyword: DF_BASIS_SAPT
    atoms 1                                                 entry BR         line  1248 file /ddmfs1b/softs/psi4conda/share/psi4/basis/aug-cc-pvtz-ri.gbs 
    atoms 2, 5, 8, 11, 14, 17, 20, 23                       entry O          line   264 file /ddmfs1b/softs/psi4conda/share/psi4/basis/aug-cc-pvtz-ri.gbs 
    atoms 3-4, 6-7, 9-10, 12-13, 15-16, 18-19, 21-22, 24-25 entry H          line    30 file /ddmfs1b/softs/psi4conda/share/psi4/basis/aug-cc-pvtz-ri.gbs 

   => Loading Basis Set <=

    Name: (AUG-CC-PVTZ AUX)
    Role: JKFIT
    Keyword: DF_BASIS_ELST
    atoms 1                                                 entry BR         line  1492 file /ddmfs1b/softs/psi4conda/share/psi4/basis/aug-cc-pvtz-jkfit.gbs 
    atoms 2, 5, 8, 11, 14, 17, 20, 23                       entry O          line   286 file /ddmfs1b/softs/psi4conda/share/psi4/basis/aug-cc-pvtz-jkfit.gbs 
    atoms 3-4, 6-7, 9-10, 12-13, 15-16, 18-19, 21-22, 24-25 entry H          line    70 file /ddmfs1b/softs/psi4conda/share/psi4/basis/aug-cc-pvtz-jkfit.gbs 


  //>>>>>>>>>>>>>>>>>>>>>>>>>>>>>>>>>>>//
  //               SAPT2+              //
  //<<<<<<<<<<<<<<<<<<<<<<<<<<<<<<<<<<<//


*** tstart() called on ddmfs1
*** at Sat Jan 20 14:07:56 2024

        SAPT2+  
    Ed Hohenstein
     6 June 2009

      Orbital Information
  --------------------------
    NSO        =       795
    NMO        =       795
    NRI        =      1775
    NOCC A     =        18
    NOCC B     =        40
    FOCC A     =         0
    FOCC B     =         0
    NVIR A     =       777
    NVIR B     =       755

    Estimated memory usage: 31756.1 MB

    Natural Orbital Cutoff:   1.000E-06
    Disp(T3) Truncation:            Yes
    CCD (vv|vv) Truncation:         Yes
    MBPT T2 Truncation:             Yes

    Monomer A: 669 virtual orbitals dropped
    Monomer B: 108 virtual orbitals dropped

    Elst10,r            =    -0.126776201739 [Eh]
    Exch10 (S^2)        =     0.095067008242 [Eh]
    Exch10              =     0.096218544247 [Eh]
    Ind20,r (A<-B)      =    -0.050848951485 [Eh]
    Ind20,r (B<-A)      =    -0.033143588946 [Eh]
    Ind20,r             =    -0.083992540431 [Eh]
    Exch-Ind20,r (A<-B) =     0.035383381201 [Eh]
    Exch-Ind20,r (B<-A) =     0.014087326058 [Eh]
    Exch-Ind20,r        =     0.049470707259 [Eh]
    Disp20              =    -0.047922669886 [Eh]
    Disp20 (NO)         =    -0.042038114203 [Eh]
    Exch-Disp20         =     0.010763175499 [Eh]
    Elst12,r            =    -0.001102068417 [Eh]
    Exch11              =     0.005096832586 [Eh]
    Exch12              =     0.008395291214 [Eh]
    Ind22               =    -0.012594783851 [Eh]
    Disp21              =     0.003864559871 [Eh]
    Disp22 (SDQ)        =    -0.000223792945 [Eh]

    (i =   1 of  40)         37 seconds
    (i =   2 of  40)         74 seconds
    (i =   3 of  40)        110 seconds
    (i =   4 of  40)        147 seconds
    (i =   5 of  40)        183 seconds
    (i =   6 of  40)        220 seconds
    (i =   7 of  40)        256 seconds
    (i =   8 of  40)        293 seconds
    (i =   9 of  40)        329 seconds
    (i =  10 of  40)        366 seconds
    (i =  11 of  40)        402 seconds
    (i =  12 of  40)        439 seconds
    (i =  13 of  40)        475 seconds
    (i =  14 of  40)        512 seconds
    (i =  15 of  40)        549 seconds
    (i =  16 of  40)        585 seconds
    (i =  17 of  40)        621 seconds
    (i =  18 of  40)        658 seconds
    (i =  19 of  40)        695 seconds
    (i =  20 of  40)        731 seconds
    (i =  21 of  40)        768 seconds
    (i =  22 of  40)        804 seconds
    (i =  23 of  40)        841 seconds
    (i =  24 of  40)        877 seconds
    (i =  25 of  40)        914 seconds
    (i =  26 of  40)        950 seconds
    (i =  27 of  40)        987 seconds
    (i =  28 of  40)       1024 seconds
    (i =  29 of  40)       1060 seconds
    (i =  30 of  40)       1097 seconds
    (i =  31 of  40)       1134 seconds
    (i =  32 of  40)       1170 seconds
    (i =  33 of  40)       1207 seconds
    (i =  34 of  40)       1244 seconds
    (i =  35 of  40)       1280 seconds
    (i =  36 of  40)       1317 seconds
    (i =  37 of  40)       1353 seconds
    (i =  38 of  40)       1389 seconds
    (i =  39 of  40)       1426 seconds
    (i =  40 of  40)       1463 seconds

    Disp220 (T)         =    -0.003286311003 [Eh]

    (i =   1 of  18)       1914 seconds
    (i =   2 of  18)       3828 seconds
    (i =   3 of  18)       5743 seconds
    (i =   4 of  18)       7658 seconds
    (i =   5 of  18)       9570 seconds
    (i =   6 of  18)      11484 seconds
    (i =   7 of  18)      13397 seconds
    (i =   8 of  18)      15311 seconds
    (i =   9 of  18)      17225 seconds
    (i =  10 of  18)      19138 seconds
    (i =  11 of  18)      21052 seconds
    (i =  12 of  18)      22965 seconds
    (i =  13 of  18)      24879 seconds
    (i =  14 of  18)      26796 seconds
    (i =  15 of  18)      28712 seconds
    (i =  16 of  18)      30631 seconds
    (i =  17 of  18)      32548 seconds
    (i =  18 of  18)      34464 seconds

    Disp202 (T)         =    -0.004541317309 [Eh]

    Disp22 (T)          =    -0.007827628311 [Eh]

    Est. Disp220 (T)    =    -0.003746333543 [Eh]
    Est. Disp202 (T)    =    -0.005177017437 [Eh]

    Est. Disp22 (T)     =    -0.008923350980 [Eh]

    SAPT Results 
  --------------------------------------------------------------------------------------------------------
    Electrostatics               -127.87827016 [mEh]     -80.24482601 [kcal/mol]    -335.74435204 [kJ/mol]
      Elst10,r                   -126.77620174 [mEh]     -79.55326764 [kcal/mol]    -332.85087181 [kJ/mol]
      Elst12,r                     -1.10206842 [mEh]      -0.69155837 [kcal/mol]      -2.89348023 [kJ/mol]

    Exchange                      109.71066805 [mEh]      68.84448357 [kcal/mol]     288.04531927 [kJ/mol]
      Exch10                       96.21854425 [mEh]      60.37804807 [kcal/mol]     252.62175312 [kJ/mol]
      Exch10(S^2)                  95.06700824 [mEh]      59.65544832 [kcal/mol]     249.59839575 [kJ/mol]
      Exch11(S^2)                   5.09683259 [mEh]       3.19831073 [kcal/mol]      13.38173211 [kJ/mol]
      Exch12(S^2)                   8.39529121 [mEh]       5.26812477 [kcal/mol]      22.04183405 [kJ/mol]

    Induction                     -49.82261399 [mEh]     -31.26416229 [kcal/mol]    -130.80925502 [kJ/mol]
      Ind20,r                     -83.99254043 [mEh]     -52.70611485 [kcal/mol]    -220.52238452 [kJ/mol]
      Ind22                       -12.59478385 [mEh]      -7.90334619 [kcal/mol]     -33.06760045 [kJ/mol]
      Exch-Ind20,r                 49.47070726 [mEh]      31.04333748 [kcal/mol]     129.88532401 [kJ/mol]
      Exch-Ind22                    7.41819287 [mEh]       4.65498631 [kcal/mol]      19.47646271 [kJ/mol]
      delta HF,r (2)              -10.12418984 [mEh]      -6.35302504 [kcal/mol]     -26.58105677 [kJ/mol]

    Dispersion                    -42.44207844 [mEh]     -26.63280631 [kcal/mol]    -111.43166159 [kJ/mol]
      Disp20                      -47.92266989 [mEh]     -30.07192936 [kcal/mol]    -125.82095245 [kJ/mol]
      Disp21                        3.86455987 [mEh]       2.42504793 [kcal/mol]      10.14640054 [kJ/mol]
      Disp22 (SDQ)                 -0.22379294 [mEh]      -0.14043219 [kcal/mol]      -0.58756830 [kJ/mol]
      Disp22 (T)                   -7.82762831 [mEh]      -4.91191092 [kcal/mol]     -20.55143530 [kJ/mol]
      Est. Disp22 (T)              -8.92335098 [mEh]      -5.59948728 [kcal/mol]     -23.42825477 [kJ/mol]
      Exch-Disp20                  10.76317550 [mEh]       6.75399459 [kcal/mol]      28.25871338 [kJ/mol]

  Total HF                        -75.20368051 [mEh]     -47.19102198 [kcal/mol]    -197.44723597 [kJ/mol]
  Total SAPT0                    -112.36317489 [mEh]     -70.50895675 [kcal/mol]    -295.00947504 [kJ/mol]
  Total SAPT2                    -105.14971049 [mEh]     -65.98243950 [kcal/mol]    -276.07052685 [kJ/mol]
  Total SAPT2+                   -110.43229454 [mEh]     -69.29731104 [kcal/mol]    -289.93994938 [kJ/mol]

  Special recipe for scaled SAPT0 (see Manual):
    Electrostatics sSAPT0        -126.77620174 [mEh]     -79.55326764 [kcal/mol]    -332.85087181 [kJ/mol]
    Exchange sSAPT0                96.21854425 [mEh]      60.37804807 [kcal/mol]     252.62175312 [kJ/mol]
    Induction sSAPT0              -42.82646038 [mEh]     -26.87400962 [kcal/mol]    -112.44085624 [kJ/mol]
    Dispersion sSAPT0             -36.76361826 [mEh]     -23.06951875 [kcal/mol]     -96.52286645 [kJ/mol]
  Total sSAPT0                   -110.14773614 [mEh]     -69.11874794 [kcal/mol]    -289.19284138 [kJ/mol]
  --------------------------------------------------------------------------------------------------------

*** tstop() called on ddmfs1 at Sun Jan 21 01:34:07 2024
Module time:
	user time   =  166627.29 seconds =    2777.12 minutes
	system time =    1261.91 seconds =      21.03 minutes
	total time  =      41171 seconds =     686.18 minutes
Total time:
	user time   =  168224.98 seconds =    2803.75 minutes
	system time =    1324.30 seconds =      22.07 minutes
	total time  =      41277 seconds =     687.95 minutes

    Psi4 stopped on: Sunday, 21 January 2024 01:34AM
    Psi4 wall time for execution: 11:27:57.81

*** Psi4 exiting successfully. Buy a developer a beer!
