
    -----------------------------------------------------------------------
          Psi4: An Open-Source Ab Initio Electronic Structure Package
                               Psi4 1.8.2 release

                         Git: Rev {} zzzzzzz 


    D. G. A. Smith, L. A. Burns, A. C. Simmonett, R. M. Parrish,
    M. C. Schieber, R. Galvelis, P. Kraus, H. Kruse, R. Di Remigio,
    A. Alenaizan, A. M. James, S. Lehtola, J. P. Misiewicz, M. Scheurer,
    R. A. Shaw, J. B. Schriber, Y. Xie, Z. L. Glick, D. A. Sirianni,
    J. S. O'Brien, J. M. Waldrop, A. Kumar, E. G. Hohenstein,
    B. P. Pritchard, B. R. Brooks, H. F. Schaefer III, A. Yu. Sokolov,
    K. Patkowski, A. E. DePrince III, U. Bozkaya, R. A. King,
    F. A. Evangelista, J. M. Turney, T. D. Crawford, C. D. Sherrill,
    J. Chem. Phys. 152(18) 184108 (2020). https://doi.org/10.1063/5.0006002

                            Additional Code Authors
    E. T. Seidl, C. L. Janssen, E. F. Valeev, M. L. Leininger,
    J. F. Gonthier, R. M. Richard, H. R. McAlexander, M. Saitow, X. Wang,
    P. Verma, M. H. Lechner, A. Jiang, S. Behnle, A. G. Heide,
    M. F. Herbst, and D. L. Poole

             Previous Authors, Complete List of Code Contributors,
                       and Citations for Specific Modules
    https://github.com/psi4/psi4/blob/master/codemeta.json
    https://github.com/psi4/psi4/graphs/contributors
    http://psicode.org/psi4manual/master/introduction.html#citing-psifour

    -----------------------------------------------------------------------


    Psi4 started on: Thursday, 18 January 2024 08:59PM

    Process ID: 17532
    Host:       ddmfs1
    PSIDATADIR: /ddmfs1b/softs/psi4conda/share/psi4
    Memory:     500.0 MiB
    Threads:    20
    
  ==> Input File <==

--------------------------------------------------------------------------
MEMORY 60 GB

molecule dimer {
-1 1
Br     0.000000     0.000000     0.000000
--
0 1
O     -0.944159     0.763135    -3.171296
H     -0.418125     0.642488    -2.380292
H     -1.515592     1.518947    -2.946457
O      0.266373    -2.666671    -2.063433
H     -0.507967    -3.216325    -2.144357
H      0.169069    -1.929715    -1.427717
O      2.278924     0.586830    -2.040328
H      1.783721    -0.048625    -1.465647
H      2.356833     0.210882    -2.962479
O     -0.660034     3.338372    -0.252519
H     -0.523899     2.351649    -0.216782
H     -0.034580     3.514831    -0.970765

units ang
no_reorient
no_com
symmetry c1
}

set {
basis        aug-cc-pVTZ
scf_type     df
}

energy("sapt2+")
--------------------------------------------------------------------------

  Memory set to  55.879 GiB by Python driver.

Scratch directory: /ddmfs1a/scratch/
   => Loading Basis Set <=

    Name: AUG-CC-PVTZ
    Role: ORBITAL
    Keyword: BASIS
    atoms 1                     entry BR         line  4208 file /ddmfs1b/softs/psi4conda/share/psi4/basis/aug-cc-pvtz.gbs 
    atoms 2, 5, 8, 11           entry O          line   331 file /ddmfs1b/softs/psi4conda/share/psi4/basis/aug-cc-pvtz.gbs 
    atoms 3-4, 6-7, 9-10, 12-13 entry H          line    40 file /ddmfs1b/softs/psi4conda/share/psi4/basis/aug-cc-pvtz.gbs 

   => Loading Basis Set <=

    Name: AUG-CC-PVTZ
    Role: ORBITAL
    Keyword: BASIS
    atoms 1                     entry BR         line  4208 file /ddmfs1b/softs/psi4conda/share/psi4/basis/aug-cc-pvtz.gbs 
    atoms 2, 5, 8, 11           entry O          line   331 file /ddmfs1b/softs/psi4conda/share/psi4/basis/aug-cc-pvtz.gbs 
    atoms 3-4, 6-7, 9-10, 12-13 entry H          line    40 file /ddmfs1b/softs/psi4conda/share/psi4/basis/aug-cc-pvtz.gbs 


  //>>>>>>>>>>>>>>>>>>>>>>>>>>>>>>>>>>>//
  //              Dimer HF             //
  //<<<<<<<<<<<<<<<<<<<<<<<<<<<<<<<<<<<//

   => Libint2 <=

    Primary   basis highest AM E, G, H:  5, 4, 3
    Auxiliary basis highest AM E, G, H:  6, 5, 4
    Onebody   basis highest AM E, G, H:  6, 5, 4
    Solid Harmonics ordering:            gaussian

*** tstart() called on ddmfs1
*** at Thu Jan 18 20:59:34 2024

   => Loading Basis Set <=

    Name: AUG-CC-PVTZ
    Role: ORBITAL
    Keyword: BASIS
    atoms 1                     entry BR         line  4208 file /ddmfs1b/softs/psi4conda/share/psi4/basis/aug-cc-pvtz.gbs 
    atoms 2, 5, 8, 11           entry O          line   331 file /ddmfs1b/softs/psi4conda/share/psi4/basis/aug-cc-pvtz.gbs 
    atoms 3-4, 6-7, 9-10, 12-13 entry H          line    40 file /ddmfs1b/softs/psi4conda/share/psi4/basis/aug-cc-pvtz.gbs 


         ---------------------------------------------------------
                                   SCF
               by Justin Turney, Rob Parrish, Andy Simmonett
                          and Daniel G. A. Smith
                              RHF Reference
                       20 Threads,  57220 MiB Core
         ---------------------------------------------------------

  ==> Geometry <==

    Molecular point group: c1
    Full point group: C1

    Geometry (in Angstrom), charge = -1, multiplicity = 1:

       Center              X                  Y                   Z               Mass       
    ------------   -----------------  -----------------  -----------------  -----------------
         BR           0.000000000000     0.000000000000     0.000000000000    78.918337600000
         O           -0.944159000000     0.763135000000    -3.171296000000    15.994914619570
         H           -0.418125000000     0.642488000000    -2.380292000000     1.007825032230
         H           -1.515592000000     1.518947000000    -2.946457000000     1.007825032230
         O            0.266373000000    -2.666671000000    -2.063433000000    15.994914619570
         H           -0.507967000000    -3.216325000000    -2.144357000000     1.007825032230
         H            0.169069000000    -1.929715000000    -1.427717000000     1.007825032230
         O            2.278924000000     0.586830000000    -2.040328000000    15.994914619570
         H            1.783721000000    -0.048625000000    -1.465647000000     1.007825032230
         H            2.356833000000     0.210882000000    -2.962479000000     1.007825032230
         O           -0.660034000000     3.338372000000    -0.252519000000    15.994914619570
         H           -0.523899000000     2.351649000000    -0.216782000000     1.007825032230
         H           -0.034580000000     3.514831000000    -0.970765000000     1.007825032230

  Running in c1 symmetry.

  Rotational constants: A =      0.03967  B =      0.03588  C =      0.02468 [cm^-1]
  Rotational constants: A =   1189.30220  B =   1075.68582  C =    740.03451 [MHz]
  Nuclear repulsion =  343.890578901749791

  Charge       = -1
  Multiplicity = 1
  Electrons    = 76
  Nalpha       = 38
  Nbeta        = 38

  ==> Algorithm <==

  SCF Algorithm Type is DF.
  DIIS enabled.
  MOM disabled.
  Fractional occupation disabled.
  Guess Type is SAD.
  Energy threshold   = 1.00e-08
  Density threshold  = 1.00e-08
  Integral threshold = 1.00e-12

  ==> Primary Basis <==

  Basis Set: AUG-CC-PVTZ
    Blend: AUG-CC-PVTZ
    Number of shells: 147
    Number of basis functions: 427
    Number of Cartesian functions: 489
    Spherical Harmonics?: true
    Max angular momentum: 3

   => Loading Basis Set <=

    Name: (AUG-CC-PVTZ AUX)
    Role: JKFIT
    Keyword: DF_BASIS_SCF
    atoms 1                     entry BR         line  1492 file /ddmfs1b/softs/psi4conda/share/psi4/basis/aug-cc-pvtz-jkfit.gbs 
    atoms 2, 5, 8, 11           entry O          line   286 file /ddmfs1b/softs/psi4conda/share/psi4/basis/aug-cc-pvtz-jkfit.gbs 
    atoms 3-4, 6-7, 9-10, 12-13 entry H          line    70 file /ddmfs1b/softs/psi4conda/share/psi4/basis/aug-cc-pvtz-jkfit.gbs 

  ==> Integral Setup <==

  ==> DiskDFJK: Density-Fitted J/K Matrices <==

    J tasked:                  Yes
    K tasked:                  Yes
    wK tasked:                  No
    OpenMP threads:             20
    Integrals threads:          20
    Memory [MiB]:            42915
    Algorithm:                Core
    Integral Cache:           SAVE
    Schwarz Cutoff:          1E-12
    Fitting Condition:       1E-10

   => Auxiliary Basis Set <=

  Basis Set: (AUG-CC-PVTZ AUX)
    Blend: AUG-CC-PVTZ-JKFIT
    Number of shells: 290
    Number of basis functions: 1032
    Number of Cartesian functions: 1293
    Spherical Harmonics?: true
    Max angular momentum: 4

  Minimum eigenvalue in the overlap matrix is 1.6169914255E-04.
  Reciprocal condition number of the overlap matrix is 1.2962544315E-05.
    Using symmetric orthogonalization.

  ==> Pre-Iterations <==

  SCF Guess: Superposition of Atomic Densities via on-the-fly atomic UHF (no occupation information).

   -------------------------
    Irrep   Nso     Nmo    
   -------------------------
     A        427     427 
   -------------------------
    Total     427     427
   -------------------------

  ==> Iterations <==

                           Total Energy        Delta E     RMS |[F,P]|

   @DF-RHF iter SAD: -2872.58717679481515   -2.87259e+03   0.00000e+00 
   @DF-RHF iter   1: -2876.26853834444773   -3.68136e+00   3.23295e-03 ADIIS/DIIS
   @DF-RHF iter   2: -2876.63956637336196   -3.71028e-01   1.89700e-03 ADIIS/DIIS
   @DF-RHF iter   3: -2876.80180592943316   -1.62240e-01   1.53135e-04 ADIIS/DIIS
   @DF-RHF iter   4: -2876.80388462524388   -2.07870e-03   7.26290e-05 DIIS
   @DF-RHF iter   5: -2876.80431397540906   -4.29350e-04   1.08281e-05 DIIS
   @DF-RHF iter   6: -2876.80434081185058   -2.68364e-05   2.91556e-06 DIIS
   @DF-RHF iter   7: -2876.80434288406195   -2.07221e-06   1.14517e-06 DIIS
   @DF-RHF iter   8: -2876.80434307920768   -1.95146e-07   4.00791e-07 DIIS
   @DF-RHF iter   9: -2876.80434310720693   -2.79992e-08   6.56285e-08 DIIS
   @DF-RHF iter  10: -2876.80434310822693   -1.02000e-09   1.53190e-08 DIIS
   @DF-RHF iter  11: -2876.80434310827104   -4.41105e-11   5.69372e-09 DIIS
  Energy and wave function converged.


  ==> Post-Iterations <==

    Orbital Energies [Eh]
    ---------------------

    Doubly Occupied:                                                      

       1A   -489.783972     2A    -64.924530     3A    -58.279042  
       4A    -58.278990     5A    -58.278974     6A    -20.420943  
       7A    -20.415031     8A    -20.414850     9A    -20.412931  
      10A     -9.597011    11A     -7.204777    12A     -7.204454  
      13A     -7.204267    14A     -2.946423    15A     -2.946352  
      16A     -2.946137    17A     -2.945717    18A     -2.945695  
      19A     -1.199332    20A     -1.197623    21A     -1.196681  
      22A     -1.178929    23A     -0.765269    24A     -0.586589  
      25A     -0.561178    26A     -0.554788    27A     -0.540782  
      28A     -0.451462    29A     -0.438419    30A     -0.423935  
      31A     -0.417940    32A     -0.364014    33A     -0.361862  
      34A     -0.360969    35A     -0.350942    36A     -0.215647  
      37A     -0.209794    38A     -0.206955  

    Virtual:                                                              

      39A      0.120520    40A      0.128440    41A      0.139538  
      42A      0.146082    43A      0.161393    44A      0.168710  
      45A      0.183214    46A      0.189068    47A      0.223255  
      48A      0.242033    49A      0.254746    50A      0.260885  
      51A      0.267202    52A      0.273386    53A      0.278822  
      54A      0.282121    55A      0.291758    56A      0.296201  
      57A      0.306563    58A      0.309175    59A      0.321984  
      60A      0.327445    61A      0.332552    62A      0.338255  
      63A      0.352931    64A      0.359037    65A      0.367283  
      66A      0.375529    67A      0.380087    68A      0.386104  
      69A      0.407701    70A      0.412674    71A      0.431502  
      72A      0.436349    73A      0.441978    74A      0.446798  
      75A      0.455702    76A      0.461507    77A      0.476895  
      78A      0.486943    79A      0.500768    80A      0.511364  
      81A      0.514293    82A      0.528378    83A      0.537193  
      84A      0.543170    85A      0.549460    86A      0.555738  
      87A      0.567072    88A      0.575580    89A      0.582167  
      90A      0.588636    91A      0.597174    92A      0.605174  
      93A      0.612202    94A      0.617156    95A      0.634953  
      96A      0.643726    97A      0.658941    98A      0.680188  
      99A      0.702055   100A      0.713156   101A      0.722760  
     102A      0.738162   103A      0.745957   104A      0.782006  
     105A      0.798921   106A      0.809904   107A      0.816072  
     108A      0.818827   109A      0.827382   110A      0.840955  
     111A      0.847700   112A      0.848487   113A      0.855575  
     114A      0.869860   115A      0.886857   116A      0.890587  
     117A      0.894476   118A      0.901954   119A      0.913979  
     120A      0.917443   121A      0.925241   122A      0.931170  
     123A      0.942447   124A      0.949361   125A      0.961291  
     126A      0.963926   127A      0.972884   128A      0.984290  
     129A      0.992685   130A      1.011886   131A      1.014418  
     132A      1.023975   133A      1.031284   134A      1.042072  
     135A      1.052844   136A      1.066490   137A      1.070044  
     138A      1.083939   139A      1.089885   140A      1.096324  
     141A      1.103231   142A      1.108491   143A      1.123630  
     144A      1.128658   145A      1.137468   146A      1.146349  
     147A      1.154723   148A      1.160703   149A      1.169443  
     150A      1.173071   151A      1.181016   152A      1.184358  
     153A      1.190083   154A      1.203184   155A      1.207593  
     156A      1.214092   157A      1.223125   158A      1.238760  
     159A      1.245781   160A      1.261010   161A      1.276332  
     162A      1.290255   163A      1.305170   164A      1.306156  
     165A      1.327035   166A      1.342149   167A      1.349754  
     168A      1.361351   169A      1.367568   170A      1.375243  
     171A      1.388401   172A      1.393592   173A      1.406874  
     174A      1.411392   175A      1.425118   176A      1.430937  
     177A      1.439511   178A      1.446608   179A      1.470011  
     180A      1.487085   181A      1.501423   182A      1.507079  
     183A      1.527680   184A      1.538689   185A      1.564741  
     186A      1.587198   187A      1.597038   188A      1.603941  
     189A      1.620712   190A      1.633963   191A      1.657259  
     192A      1.674184   193A      1.681016   194A      1.697175  
     195A      1.705649   196A      1.710620   197A      1.720292  
     198A      1.746118   199A      1.752981   200A      1.765274  
     201A      1.786112   202A      1.790199   203A      1.804505  
     204A      1.834081   205A      1.847193   206A      1.870756  
     207A      1.878214   208A      1.902706   209A      1.925988  
     210A      1.965535   211A      1.975140   212A      2.008527  
     213A      2.047353   214A      2.069968   215A      2.078111  
     216A      2.105512   217A      2.125605   218A      2.130239  
     219A      2.150620   220A      2.180702   221A      2.193004  
     222A      2.209115   223A      2.221786   224A      2.410158  
     225A      2.429336   226A      2.442376   227A      2.450474  
     228A      2.460554   229A      2.464181   230A      2.482673  
     231A      2.499054   232A      2.502629   233A      2.516605  
     234A      2.522733   235A      2.541606   236A      2.559417  
     237A      2.571677   238A      2.581169   239A      2.587876  
     240A      2.603254   241A      2.615070   242A      2.624567  
     243A      2.627219   244A      2.635508   245A      2.643582  
     246A      2.657382   247A      2.666132   248A      2.675200  
     249A      2.680126   250A      2.693530   251A      2.704180  
     252A      2.714717   253A      2.723064   254A      2.737279  
     255A      2.743192   256A      2.761932   257A      2.768973  
     258A      2.783563   259A      2.829123   260A      2.843257  
     261A      2.854687   262A      2.873064   263A      2.882436  
     264A      2.888574   265A      2.908142   266A      2.916499  
     267A      2.927144   268A      2.935977   269A      2.952111  
     270A      2.965415   271A      2.974357   272A      2.981635  
     273A      3.003194   274A      3.014312   275A      3.022709  
     276A      3.031154   277A      3.057558   278A      3.065323  
     279A      3.085975   280A      3.125391   281A      3.134096  
     282A      3.164359   283A      3.170961   284A      3.185005  
     285A      3.204562   286A      3.232371   287A      3.252258  
     288A      3.288353   289A      3.332434   290A      3.360253  
     291A      3.861280   292A      3.879205   293A      3.894269  
     294A      3.932773   295A      4.038455   296A      4.092379  
     297A      4.123263   298A      4.140207   299A      4.209752  
     300A      4.240861   301A      4.251432   302A      4.273954  
     303A      4.293894   304A      4.325811   305A      4.363975  
     306A      4.384443   307A      4.391904   308A      4.400623  
     309A      4.429733   310A      4.436998   311A      4.460853  
     312A      4.467020   313A      4.479633   314A      4.503641  
     315A      4.510263   316A      4.527574   317A      4.537037  
     318A      4.550292   319A      4.566414   320A      4.574531  
     321A      4.580822   322A      4.603062   323A      4.608985  
     324A      4.619923   325A      4.633975   326A      4.655991  
     327A      4.669096   328A      4.685764   329A      4.715698  
     330A      4.723005   331A      4.756582   332A      4.776155  
     333A      4.818018   334A      4.842508   335A      4.877315  
     336A      4.902035   337A      4.957088   338A      4.973188  
     339A      5.006374   340A      5.032389   341A      5.084665  
     342A      5.142782   343A      5.242733   344A      5.247535  
     345A      5.273593   346A      5.305525   347A      5.312600  
     348A      5.333546   349A      5.351576   350A      5.364962  
     351A      5.430477   352A      5.461405   353A      5.469310  
     354A      5.478870   355A      5.484295   356A      5.534815  
     357A      5.559849   358A      5.578209   359A      5.629370  
     360A      5.637471   361A      5.662359   362A      5.684430  
     363A      5.728633   364A      5.778185   365A      5.907126  
     366A      5.916022   367A      6.038301   368A      6.259699  
     369A      6.321858   370A      6.422366   371A      6.452085  
     372A      6.669482   373A      6.707082   374A      6.758299  
     375A      6.767172   376A      6.908190   377A      6.926514  
     378A      6.978688   379A      6.983853   380A      7.017400  
     381A      7.061933   382A      7.141091   383A      7.164240  
     384A      7.273407   385A      7.302451   386A      7.308299  
     387A      7.320133   388A      7.345913   389A      7.415684  
     390A      7.437366   391A      7.444517   392A      7.450436  
     393A      7.453712   394A      7.465494   395A      7.470065  
     396A      7.475675   397A      7.495669   398A      7.517762  
     399A      7.519463   400A      7.576250   401A      7.590787  
     402A      7.593274   403A      7.610025   404A      7.632267  
     405A      7.651314   406A      7.664094   407A      7.682904  
     408A      7.772853   409A      7.778417   410A      7.910609  
     411A      7.936987   412A      7.997339   413A      8.004189  
     414A      8.024110   415A      8.114804   416A      8.135195  
     417A      8.137578   418A      8.150892   419A      8.228439  
     420A      8.776559   421A      8.894183   422A      8.931579  
     423A      8.983024   424A     15.534772   425A     16.060188  
     426A     16.416830   427A     16.648775  

    Final Occupation by Irrep:
              A 
    DOCC [    38 ]
    NA   [    38 ]
    NB   [    38 ]

  @DF-RHF Final Energy: -2876.80434310827104

   => Energetics <=

    Nuclear Repulsion Energy =            343.8905789017497909
    One-Electron Energy =               -4703.9234279821503151
    Two-Electron Energy =                1483.2285059721291418
    Total Energy =                      -2876.8043431082714960

Computation Completed


Properties will be evaluated at   0.000000,   0.000000,   0.000000 [a0]

Properties computed using the SCF density matrix


 Multipole Moments:

 ------------------------------------------------------------------------------------
     Multipole            Electronic (a.u.)      Nuclear  (a.u.)        Total (a.u.)
 ------------------------------------------------------------------------------------

 L = 1.  Multiply by 2.5417464519 to convert [e a0] to [Debye]
 Dipole X            :        -17.1973220           16.7019513           -0.4953707
 Dipole Y            :        -37.1281654           36.3157362           -0.8124292
 Dipole Z            :        142.4173930         -141.2288785            1.1885145
 Magnitude           :                                                    1.5224980

 ------------------------------------------------------------------------------------

*** tstop() called on ddmfs1 at Thu Jan 18 20:59:46 2024
Module time:
	user time   =     133.55 seconds =       2.23 minutes
	system time =      14.29 seconds =       0.24 minutes
	total time  =         12 seconds =       0.20 minutes
Total time:
	user time   =     133.55 seconds =       2.23 minutes
	system time =      14.29 seconds =       0.24 minutes
	total time  =         12 seconds =       0.20 minutes

  //>>>>>>>>>>>>>>>>>>>>>>>>>>>>>>>>>>>//
  //            Monomer A HF           //
  //<<<<<<<<<<<<<<<<<<<<<<<<<<<<<<<<<<<//

   => Libint2 <=

    Primary   basis highest AM E, G, H:  5, 4, 3
    Auxiliary basis highest AM E, G, H:  6, 5, 4
    Onebody   basis highest AM E, G, H:  6, 5, 4
    Solid Harmonics ordering:            gaussian

*** tstart() called on ddmfs1
*** at Thu Jan 18 20:59:46 2024

   => Loading Basis Set <=

    Name: AUG-CC-PVTZ
    Role: ORBITAL
    Keyword: BASIS
    atoms 1                     entry BR         line  4208 file /ddmfs1b/softs/psi4conda/share/psi4/basis/aug-cc-pvtz.gbs 
    atoms 2, 5, 8, 11           entry O          line   331 file /ddmfs1b/softs/psi4conda/share/psi4/basis/aug-cc-pvtz.gbs 
    atoms 3-4, 6-7, 9-10, 12-13 entry H          line    40 file /ddmfs1b/softs/psi4conda/share/psi4/basis/aug-cc-pvtz.gbs 


         ---------------------------------------------------------
                                   SCF
               by Justin Turney, Rob Parrish, Andy Simmonett
                          and Daniel G. A. Smith
                              RHF Reference
                       20 Threads,  57220 MiB Core
         ---------------------------------------------------------

  ==> Geometry <==

    Molecular point group: c1
    Full point group: C1

    Geometry (in Angstrom), charge = -1, multiplicity = 1:

       Center              X                  Y                   Z               Mass       
    ------------   -----------------  -----------------  -----------------  -----------------
         BR           0.000000000000     0.000000000000     0.000000000000    78.918337600000
      Gh(O)          -0.944159000000     0.763135000000    -3.171296000000    15.994914619570
      Gh(H)          -0.418125000000     0.642488000000    -2.380292000000     1.007825032230
      Gh(H)          -1.515592000000     1.518947000000    -2.946457000000     1.007825032230
      Gh(O)           0.266373000000    -2.666671000000    -2.063433000000    15.994914619570
      Gh(H)          -0.507967000000    -3.216325000000    -2.144357000000     1.007825032230
      Gh(H)           0.169069000000    -1.929715000000    -1.427717000000     1.007825032230
      Gh(O)           2.278924000000     0.586830000000    -2.040328000000    15.994914619570
      Gh(H)           1.783721000000    -0.048625000000    -1.465647000000     1.007825032230
      Gh(H)           2.356833000000     0.210882000000    -2.962479000000     1.007825032230
      Gh(O)          -0.660034000000     3.338372000000    -0.252519000000    15.994914619570
      Gh(H)          -0.523899000000     2.351649000000    -0.216782000000     1.007825032230
      Gh(H)          -0.034580000000     3.514831000000    -0.970765000000     1.007825032230

  Running in c1 symmetry.

  Rotational constants: A =      0.03967  B =      0.03588  C =      0.02468 [cm^-1]
  Rotational constants: A =   1189.30220  B =   1075.68582  C =    740.03451 [MHz]
  Nuclear repulsion =    0.000000000000000

  Charge       = -1
  Multiplicity = 1
  Electrons    = 36
  Nalpha       = 18
  Nbeta        = 18

  ==> Algorithm <==

  SCF Algorithm Type is DF.
  DIIS enabled.
  MOM disabled.
  Fractional occupation disabled.
  Guess Type is SAD.
  Energy threshold   = 1.00e-08
  Density threshold  = 1.00e-08
  Integral threshold = 1.00e-12

  ==> Primary Basis <==

  Basis Set: AUG-CC-PVTZ
    Blend: AUG-CC-PVTZ
    Number of shells: 147
    Number of basis functions: 427
    Number of Cartesian functions: 489
    Spherical Harmonics?: true
    Max angular momentum: 3

   => Loading Basis Set <=

    Name: (AUG-CC-PVTZ AUX)
    Role: JKFIT
    Keyword: DF_BASIS_SCF
    atoms 1                     entry BR         line  1492 file /ddmfs1b/softs/psi4conda/share/psi4/basis/aug-cc-pvtz-jkfit.gbs 
    atoms 2, 5, 8, 11           entry O          line   286 file /ddmfs1b/softs/psi4conda/share/psi4/basis/aug-cc-pvtz-jkfit.gbs 
    atoms 3-4, 6-7, 9-10, 12-13 entry H          line    70 file /ddmfs1b/softs/psi4conda/share/psi4/basis/aug-cc-pvtz-jkfit.gbs 

  ==> Integral Setup <==

  ==> DiskDFJK: Density-Fitted J/K Matrices <==

    J tasked:                  Yes
    K tasked:                  Yes
    wK tasked:                  No
    OpenMP threads:             20
    Integrals threads:          20
    Memory [MiB]:            42915
    Algorithm:                Core
    Integral Cache:           LOAD
    Schwarz Cutoff:          1E-12
    Fitting Condition:       1E-10

   => Auxiliary Basis Set <=

  Basis Set: (AUG-CC-PVTZ AUX)
    Blend: AUG-CC-PVTZ-JKFIT
    Number of shells: 290
    Number of basis functions: 1032
    Number of Cartesian functions: 1293
    Spherical Harmonics?: true
    Max angular momentum: 4

  Minimum eigenvalue in the overlap matrix is 1.6169914255E-04.
  Reciprocal condition number of the overlap matrix is 1.2962544315E-05.
    Using symmetric orthogonalization.

  ==> Pre-Iterations <==

  SCF Guess: Superposition of Atomic Densities via on-the-fly atomic UHF (no occupation information).

   -------------------------
    Irrep   Nso     Nmo    
   -------------------------
     A        427     427 
   -------------------------
    Total     427     427
   -------------------------

  ==> Iterations <==

                           Total Energy        Delta E     RMS |[F,P]|

   @DF-RHF iter SAD: -2570.41423561705096   -2.57041e+03   0.00000e+00 
   @DF-RHF iter   1: -2572.25202221665995   -1.83779e+00   2.54081e-03 ADIIS/DIIS
   @DF-RHF iter   2: -2572.46220977569237   -2.10188e-01   1.42226e-03 ADIIS/DIIS
   @DF-RHF iter   3: -2572.53368615840145   -7.14764e-02   1.97342e-05 DIIS
   @DF-RHF iter   4: -2572.53371968862666   -3.35302e-05   2.96897e-06 DIIS
   @DF-RHF iter   5: -2572.53372138780742   -1.69918e-06   7.30999e-07 DIIS
   @DF-RHF iter   6: -2572.53372150452242   -1.16715e-07   1.50593e-07 DIIS
   @DF-RHF iter   7: -2572.53372152060501   -1.60826e-08   1.20647e-08 DIIS
   @DF-RHF iter   8: -2572.53372152066595   -6.09361e-11   2.98753e-09 DIIS
  Energy and wave function converged.


  ==> Post-Iterations <==

    Orbital Energies [Eh]
    ---------------------

    Doubly Occupied:                                                      

       1A   -489.721992     2A    -64.861629     3A    -58.216160  
       4A    -58.216158     5A    -58.216156     6A     -9.533234  
       7A     -7.140578     8A     -7.140562     9A     -7.140549  
      10A     -2.882278    11A     -2.882273    12A     -2.882268  
      13A     -2.882251    14A     -2.882236    15A     -0.685993  
      16A     -0.139339    17A     -0.139336    18A     -0.139332  

    Virtual:                                                              

      19A      0.118227    20A      0.127224    21A      0.134262  
      22A      0.141838    23A      0.161148    24A      0.165032  
      25A      0.180126    26A      0.180790    27A      0.221464  
      28A      0.239672    29A      0.249062    30A      0.251326  
      31A      0.254858    32A      0.262181    33A      0.267146  
      34A      0.269646    35A      0.273333    36A      0.284507  
      37A      0.296182    38A      0.299217    39A      0.307532  
      40A      0.312497    41A      0.315010    42A      0.323255  
      43A      0.335574    44A      0.344518    45A      0.358842  
      46A      0.369694    47A      0.390122    48A      0.413644  
      49A      0.422225    50A      0.433686    51A      0.438817  
      52A      0.446065    53A      0.452676    54A      0.458977  
      55A      0.466506    56A      0.481494    57A      0.486484  
      58A      0.492379    59A      0.502614    60A      0.506169  
      61A      0.508562    62A      0.516937    63A      0.531607  
      64A      0.540706    65A      0.546646    66A      0.558618  
      67A      0.562449    68A      0.570953    69A      0.574114  
      70A      0.587836    71A      0.593959    72A      0.598331  
      73A      0.607857    74A      0.631801    75A      0.645174  
      76A      0.657418    77A      0.661712    78A      0.684262  
      79A      0.686658    80A      0.711575    81A      0.728489  
      82A      0.733481    83A      0.767666    84A      0.815098  
      85A      0.821435    86A      0.832269    87A      0.843255  
      88A      0.856190    89A      0.861487    90A      0.873069  
      91A      0.885257    92A      0.886644    93A      0.898468  
      94A      0.911368    95A      0.929836    96A      0.937749  
      97A      0.942908    98A      0.951404    99A      0.957097  
     100A      0.963057   101A      0.967670   102A      0.971274  
     103A      0.978236   104A      0.980413   105A      0.987949  
     106A      0.996307   107A      1.011147   108A      1.013273  
     109A      1.015385   110A      1.020073   111A      1.027938  
     112A      1.033376   113A      1.046809   114A      1.053296  
     115A      1.054469   116A      1.069653   117A      1.073892  
     118A      1.085507   119A      1.089110   120A      1.094454  
     121A      1.103334   122A      1.106192   123A      1.111760  
     124A      1.125585   125A      1.134604   126A      1.144874  
     127A      1.148651   128A      1.161767   129A      1.168094  
     130A      1.175728   131A      1.183001   132A      1.202980  
     133A      1.206807   134A      1.217299   135A      1.231460  
     136A      1.240091   137A      1.247095   138A      1.259713  
     139A      1.273851   140A      1.284370   141A      1.289208  
     142A      1.297083   143A      1.316393   144A      1.318022  
     145A      1.336138   146A      1.338425   147A      1.358690  
     148A      1.366625   149A      1.388642   150A      1.409857  
     151A      1.418912   152A      1.433198   153A      1.440220  
     154A      1.459408   155A      1.475673   156A      1.492402  
     157A      1.509432   158A      1.512808   159A      1.527485  
     160A      1.543767   161A      1.564174   162A      1.571500  
     163A      1.577626   164A      1.603644   165A      1.615060  
     166A      1.623322   167A      1.645587   168A      1.663174  
     169A      1.683083   170A      1.721246   171A      1.728794  
     172A      1.731119   173A      1.741157   174A      1.755910  
     175A      1.780485   176A      1.792571   177A      1.800332  
     178A      1.826003   179A      1.850823   180A      1.862065  
     181A      1.875538   182A      1.891824   183A      1.904976  
     184A      1.913984   185A      1.924264   186A      1.933495  
     187A      1.952605   188A      1.962045   189A      1.975486  
     190A      1.998026   191A      2.004541   192A      2.018866  
     193A      2.037681   194A      2.046580   195A      2.052858  
     196A      2.074130   197A      2.090602   198A      2.098902  
     199A      2.111258   200A      2.132765   201A      2.174030  
     202A      2.188959   203A      2.229504   204A      2.248299  
     205A      2.317664   206A      2.353966   207A      2.398444  
     208A      2.565099   209A      2.593260   210A      2.600475  
     211A      2.604944   212A      2.615580   213A      2.619691  
     214A      2.635039   215A      2.649048   216A      2.656574  
     217A      2.677034   218A      2.682433   219A      2.701906  
     220A      2.707014   221A      2.712838   222A      2.720403  
     223A      2.725454   224A      2.731735   225A      2.735274  
     226A      2.750111   227A      2.760901   228A      2.765052  
     229A      2.779476   230A      2.788259   231A      2.797029  
     232A      2.804751   233A      2.810909   234A      2.826784  
     235A      2.838122   236A      2.854834   237A      2.871179  
     238A      2.875614   239A      2.887302   240A      2.916964  
     241A      2.939230   242A      2.947219   243A      2.955886  
     244A      2.977746   245A      2.986452   246A      2.995123  
     247A      3.023624   248A      3.035553   249A      3.050198  
     250A      3.115518   251A      3.128114   252A      3.141310  
     253A      3.193011   254A      3.200642   255A      3.223065  
     256A      3.253598   257A      3.278460   258A      3.298480  
     259A      3.342242   260A      3.356430   261A      3.363016  
     262A      3.370408   263A      3.382894   264A      3.388001  
     265A      3.403047   266A      3.420073   267A      3.505897  
     268A      3.523344   269A      3.550450   270A      3.566665  
     271A      3.584238   272A      3.608133   273A      3.614645  
     274A      3.660471   275A      3.678973   276A      3.684258  
     277A      3.721067   278A      3.751846   279A      3.772413  
     280A      3.796004   281A      3.815365   282A      3.859152  
     283A      3.959056   284A      3.980544   285A      4.001236  
     286A      4.033101   287A      4.536058   288A      4.573483  
     289A      4.588924   290A      4.600169   291A      4.617585  
     292A      4.631485   293A      4.645749   294A      4.648571  
     295A      4.672978   296A      4.711085   297A      4.757385  
     298A      4.770557   299A      4.779383   300A      4.799534  
     301A      4.824201   302A      4.844823   303A      4.859332  
     304A      4.872053   305A      4.885160   306A      4.920124  
     307A      4.988889   308A      4.993143   309A      5.021026  
     310A      5.026685   311A      5.053441   312A      5.063296  
     313A      5.081478   314A      5.105296   315A      5.110355  
     316A      5.150634   317A      5.182572   318A      5.199578  
     319A      5.225187   320A      5.277142   321A      5.297586  
     322A      5.336165   323A      5.389012   324A      5.407357  
     325A      5.467835   326A      5.521662   327A      5.585290  
     328A      5.672411   329A      5.695656   330A      5.706073  
     331A      5.727435   332A      5.742545   333A      5.762223  
     334A      5.769919   335A      5.770640   336A      5.784384  
     337A      5.830558   338A      5.858769   339A      5.891709  
     340A      5.955011   341A      5.973828   342A      6.055032  
     343A      6.097861   344A      6.324176   345A      6.328854  
     346A      6.333589   347A      6.344856   348A      6.412318  
     349A      6.460231   350A      6.524339   351A      6.657093  
     352A      6.785940   353A      6.825667   354A      6.858560  
     355A      7.068479   356A      7.136393   357A      7.180375  
     358A      7.268269   359A      7.280337   360A      7.846888  
     361A      7.877912   362A      7.907619   363A      7.920639  
     364A      7.945090   365A      7.993043   366A      8.040559  
     367A      8.087770   368A      8.174919   369A      8.218992  
     370A      8.231297   371A      8.249256   372A      8.288897  
     373A      8.392345   374A      8.400825   375A      8.416708  
     376A      8.421244   377A      8.422331   378A      8.471891  
     379A      8.512966   380A      8.803737   381A      8.840728  
     382A      8.911054   383A      8.921475   384A      8.948229  
     385A      9.016556   386A      9.127483   387A      9.220650  
     388A      9.840184   389A      9.871009   390A      9.898060  
     391A      9.975262   392A     10.010748   393A     10.047591  
     394A     10.053193   395A     10.065285   396A     10.187802  
     397A     10.248823   398A     10.256461   399A     10.268707  
     400A     10.386858   401A     10.437704   402A     10.485219  
     403A     10.510359   404A     11.153118   405A     11.256918  
     406A     11.311053   407A     11.374306   408A     11.830190  
     409A     11.891225   410A     11.924590   411A     11.985969  
     412A     12.014516   413A     12.109943   414A     12.293143  
     415A     12.342073   416A     13.580661   417A     13.704010  
     418A     13.747442   419A     13.768985   420A     14.075780  
     421A     14.118105   422A     14.133168   423A     14.161804  
     424A     64.178417   425A     65.340057   426A     65.894934  
     427A     66.410561  

    Final Occupation by Irrep:
              A 
    DOCC [    18 ]
    NA   [    18 ]
    NB   [    18 ]

  @DF-RHF Final Energy: -2572.53372152066595

   => Energetics <=

    Nuclear Repulsion Energy =              0.0000000000000000
    One-Electron Energy =               -3593.6627983658163430
    Two-Electron Energy =                1021.1290768451500526
    Total Energy =                      -2572.5337215206664041

Computation Completed


Properties will be evaluated at   0.000000,   0.000000,   0.000000 [a0]

Properties computed using the SCF density matrix


 Multipole Moments:

 ------------------------------------------------------------------------------------
     Multipole            Electronic (a.u.)      Nuclear  (a.u.)        Total (a.u.)
 ------------------------------------------------------------------------------------

 L = 1.  Multiply by 2.5417464519 to convert [e a0] to [Debye]
 Dipole X            :          0.0000609            0.0000000            0.0000609
 Dipole Y            :         -0.0000132            0.0000000           -0.0000132
 Dipole Z            :         -0.0001289            0.0000000           -0.0001289
 Magnitude           :                                                    0.0001431

 ------------------------------------------------------------------------------------

*** tstop() called on ddmfs1 at Thu Jan 18 20:59:55 2024
Module time:
	user time   =      89.87 seconds =       1.50 minutes
	system time =       6.14 seconds =       0.10 minutes
	total time  =          9 seconds =       0.15 minutes
Total time:
	user time   =     223.54 seconds =       3.73 minutes
	system time =      20.43 seconds =       0.34 minutes
	total time  =         21 seconds =       0.35 minutes

  //>>>>>>>>>>>>>>>>>>>>>>>>>>>>>>>>>>>//
  //            Monomer B HF           //
  //<<<<<<<<<<<<<<<<<<<<<<<<<<<<<<<<<<<//

   => Libint2 <=

    Primary   basis highest AM E, G, H:  5, 4, 3
    Auxiliary basis highest AM E, G, H:  6, 5, 4
    Onebody   basis highest AM E, G, H:  6, 5, 4
    Solid Harmonics ordering:            gaussian

*** tstart() called on ddmfs1
*** at Thu Jan 18 20:59:55 2024

   => Loading Basis Set <=

    Name: AUG-CC-PVTZ
    Role: ORBITAL
    Keyword: BASIS
    atoms 1                     entry BR         line  4208 file /ddmfs1b/softs/psi4conda/share/psi4/basis/aug-cc-pvtz.gbs 
    atoms 2, 5, 8, 11           entry O          line   331 file /ddmfs1b/softs/psi4conda/share/psi4/basis/aug-cc-pvtz.gbs 
    atoms 3-4, 6-7, 9-10, 12-13 entry H          line    40 file /ddmfs1b/softs/psi4conda/share/psi4/basis/aug-cc-pvtz.gbs 


         ---------------------------------------------------------
                                   SCF
               by Justin Turney, Rob Parrish, Andy Simmonett
                          and Daniel G. A. Smith
                              RHF Reference
                       20 Threads,  57220 MiB Core
         ---------------------------------------------------------

  ==> Geometry <==

    Molecular point group: c1
    Full point group: C1

    Geometry (in Angstrom), charge = 0, multiplicity = 1:

       Center              X                  Y                   Z               Mass       
    ------------   -----------------  -----------------  -----------------  -----------------
      Gh(BR)          0.000000000000     0.000000000000     0.000000000000    78.918337600000
         O           -0.944159000000     0.763135000000    -3.171296000000    15.994914619570
         H           -0.418125000000     0.642488000000    -2.380292000000     1.007825032230
         H           -1.515592000000     1.518947000000    -2.946457000000     1.007825032230
         O            0.266373000000    -2.666671000000    -2.063433000000    15.994914619570
         H           -0.507967000000    -3.216325000000    -2.144357000000     1.007825032230
         H            0.169069000000    -1.929715000000    -1.427717000000     1.007825032230
         O            2.278924000000     0.586830000000    -2.040328000000    15.994914619570
         H            1.783721000000    -0.048625000000    -1.465647000000     1.007825032230
         H            2.356833000000     0.210882000000    -2.962479000000     1.007825032230
         O           -0.660034000000     3.338372000000    -0.252519000000    15.994914619570
         H           -0.523899000000     2.351649000000    -0.216782000000     1.007825032230
         H           -0.034580000000     3.514831000000    -0.970765000000     1.007825032230

  Running in c1 symmetry.

  Rotational constants: A =      0.03967  B =      0.03588  C =      0.02468 [cm^-1]
  Rotational constants: A =   1189.30220  B =   1075.68582  C =    740.03451 [MHz]
  Nuclear repulsion =  114.878745783910688

  Charge       = 0
  Multiplicity = 1
  Electrons    = 40
  Nalpha       = 20
  Nbeta        = 20

  ==> Algorithm <==

  SCF Algorithm Type is DF.
  DIIS enabled.
  MOM disabled.
  Fractional occupation disabled.
  Guess Type is SAD.
  Energy threshold   = 1.00e-08
  Density threshold  = 1.00e-08
  Integral threshold = 1.00e-12

  ==> Primary Basis <==

  Basis Set: AUG-CC-PVTZ
    Blend: AUG-CC-PVTZ
    Number of shells: 147
    Number of basis functions: 427
    Number of Cartesian functions: 489
    Spherical Harmonics?: true
    Max angular momentum: 3

   => Loading Basis Set <=

    Name: (AUG-CC-PVTZ AUX)
    Role: JKFIT
    Keyword: DF_BASIS_SCF
    atoms 1                     entry BR         line  1492 file /ddmfs1b/softs/psi4conda/share/psi4/basis/aug-cc-pvtz-jkfit.gbs 
    atoms 2, 5, 8, 11           entry O          line   286 file /ddmfs1b/softs/psi4conda/share/psi4/basis/aug-cc-pvtz-jkfit.gbs 
    atoms 3-4, 6-7, 9-10, 12-13 entry H          line    70 file /ddmfs1b/softs/psi4conda/share/psi4/basis/aug-cc-pvtz-jkfit.gbs 

  ==> Integral Setup <==

  ==> DiskDFJK: Density-Fitted J/K Matrices <==

    J tasked:                  Yes
    K tasked:                  Yes
    wK tasked:                  No
    OpenMP threads:             20
    Integrals threads:          20
    Memory [MiB]:            42915
    Algorithm:                Core
    Integral Cache:           LOAD
    Schwarz Cutoff:          1E-12
    Fitting Condition:       1E-10

   => Auxiliary Basis Set <=

  Basis Set: (AUG-CC-PVTZ AUX)
    Blend: AUG-CC-PVTZ-JKFIT
    Number of shells: 290
    Number of basis functions: 1032
    Number of Cartesian functions: 1293
    Spherical Harmonics?: true
    Max angular momentum: 4

  Minimum eigenvalue in the overlap matrix is 1.6169914255E-04.
  Reciprocal condition number of the overlap matrix is 1.2962544315E-05.
    Using symmetric orthogonalization.

  ==> Pre-Iterations <==

  SCF Guess: Superposition of Atomic Densities via on-the-fly atomic UHF (no occupation information).

   -------------------------
    Irrep   Nso     Nmo    
   -------------------------
     A        427     427 
   -------------------------
    Total     427     427
   -------------------------

  ==> Iterations <==

                           Total Energy        Delta E     RMS |[F,P]|

   @DF-RHF iter SAD:  -301.89754039426725   -3.01898e+02   0.00000e+00 
   @DF-RHF iter   1:  -303.89140314165593   -1.99386e+00   2.16725e-03 ADIIS/DIIS
   @DF-RHF iter   2:  -304.09719400957624   -2.05791e-01   1.49375e-03 ADIIS/DIIS
   @DF-RHF iter   3:  -304.22387459930974   -1.26681e-01   1.05555e-04 ADIIS/DIIS
   @DF-RHF iter   4:  -304.22562448237693   -1.74988e-03   2.71392e-05 DIIS
   @DF-RHF iter   5:  -304.22574421520426   -1.19733e-04   8.65475e-06 DIIS
   @DF-RHF iter   6:  -304.22575621524152   -1.20000e-05   3.82698e-06 DIIS
   @DF-RHF iter   7:  -304.22575810331716   -1.88808e-06   8.08335e-07 DIIS
   @DF-RHF iter   8:  -304.22575827761653   -1.74299e-07   1.47784e-07 DIIS
   @DF-RHF iter   9:  -304.22575828300774   -5.39120e-09   3.60004e-08 DIIS
   @DF-RHF iter  10:  -304.22575828324284   -2.35104e-10   1.57428e-08 DIIS
   @DF-RHF iter  11:  -304.22575828327871   -3.58682e-11   5.56198e-09 DIIS
  Energy and wave function converged.


  ==> Post-Iterations <==

    Orbital Energies [Eh]
    ---------------------

    Doubly Occupied:                                                      

       1A    -20.587109     2A    -20.584439     3A    -20.579889  
       4A    -20.577727     5A     -1.359683     6A     -1.358648  
       7A     -1.355895     8A     -1.348440     9A     -0.747989  
      10A     -0.723669    11A     -0.719463    12A     -0.698729  
      13A     -0.605676    14A     -0.593397    15A     -0.585052  
      16A     -0.580435    17A     -0.526095    18A     -0.522786  
      19A     -0.520126    20A     -0.514708  

    Virtual:                                                              

      21A      0.012745    22A      0.036194    23A      0.038424  
      24A      0.045011    25A      0.056191    26A      0.063280  
      27A      0.070821    28A      0.074253    29A      0.088192  
      30A      0.099257    31A      0.106758    32A      0.122397  
      33A      0.139398    34A      0.146770    35A      0.156996  
      36A      0.162491    37A      0.169973    38A      0.177020  
      39A      0.179063    40A      0.180258    41A      0.191627  
      42A      0.196477    43A      0.202690    44A      0.209979  
      45A      0.211391    46A      0.218948    47A      0.230458  
      48A      0.243268    49A      0.245215    50A      0.252613  
      51A      0.264082    52A      0.266727    53A      0.279084  
      54A      0.294160    55A      0.299489    56A      0.304968  
      57A      0.309729    58A      0.315201    59A      0.320915  
      60A      0.329203    61A      0.338023    62A      0.342885  
      63A      0.359627    64A      0.377918    65A      0.386100  
      66A      0.395057    67A      0.403762    68A      0.409538  
      69A      0.418942    70A      0.421205    71A      0.437619  
      72A      0.445407    73A      0.452868    74A      0.456231  
      75A      0.460216    76A      0.470503    77A      0.475649  
      78A      0.485304    79A      0.496277    80A      0.501308  
      81A      0.525154    82A      0.540755    83A      0.555886  
      84A      0.561788    85A      0.589257    86A      0.590782  
      87A      0.602202    88A      0.613521    89A      0.630953  
      90A      0.647093    91A      0.660471    92A      0.674996  
      93A      0.676737    94A      0.680365    95A      0.700740  
      96A      0.706557    97A      0.715651    98A      0.729966  
      99A      0.742931   100A      0.751352   101A      0.756751  
     102A      0.767221   103A      0.772715   104A      0.773606  
     105A      0.780306   106A      0.786411   107A      0.808080  
     108A      0.818547   109A      0.826478   110A      0.835942  
     111A      0.866395   112A      0.868395   113A      0.869629  
     114A      0.877165   115A      0.883470   116A      0.898077  
     117A      0.908543   118A      0.914968   119A      0.922029  
     120A      0.933889   121A      0.935252   122A      0.952844  
     123A      0.960333   124A      0.967008   125A      0.975254  
     126A      0.984755   127A      0.987064   128A      0.992834  
     129A      1.010783   130A      1.016803   131A      1.025294  
     132A      1.030553   133A      1.036708   134A      1.049535  
     135A      1.054930   136A      1.059961   137A      1.064337  
     138A      1.070292   139A      1.076871   140A      1.085173  
     141A      1.091545   142A      1.094693   143A      1.112925  
     144A      1.123969   145A      1.133215   146A      1.152073  
     147A      1.154981   148A      1.158036   149A      1.172979  
     150A      1.184267   151A      1.205929   152A      1.207780  
     153A      1.220734   154A      1.230561   155A      1.241371  
     156A      1.249485   157A      1.261345   158A      1.266032  
     159A      1.276669   160A      1.289872   161A      1.297658  
     162A      1.317856   163A      1.320331   164A      1.330733  
     165A      1.340577   166A      1.361622   167A      1.370281  
     168A      1.386700   169A      1.400338   170A      1.418923  
     171A      1.444177   172A      1.457868   173A      1.471799  
     174A      1.488123   175A      1.501975   176A      1.508390  
     177A      1.527309   178A      1.543040   179A      1.555930  
     180A      1.563751   181A      1.575375   182A      1.583937  
     183A      1.599297   184A      1.600435   185A      1.622592  
     186A      1.645958   187A      1.656051   188A      1.665787  
     189A      1.693772   190A      1.697374   191A      1.708688  
     192A      1.737228   193A      1.747565   194A      1.791480  
     195A      1.812607   196A      1.830191   197A      1.840027  
     198A      1.890686   199A      1.910639   200A      1.931506  
     201A      1.937919   202A      1.968013   203A      1.978707  
     204A      2.000984   205A      2.030437   206A      2.044571  
     207A      2.052636   208A      2.066307   209A      2.090287  
     210A      2.270025   211A      2.294247   212A      2.310511  
     213A      2.314867   214A      2.322677   215A      2.361054  
     216A      2.369833   217A      2.376990   218A      2.391324  
     219A      2.424177   220A      2.441189   221A      2.450627  
     222A      2.454996   223A      2.471570   224A      2.474588  
     225A      2.481081   226A      2.490343   227A      2.491761  
     228A      2.504450   229A      2.521367   230A      2.534078  
     231A      2.545200   232A      2.555291   233A      2.570702  
     234A      2.580377   235A      2.596238   236A      2.617371  
     237A      2.626496   238A      2.657535   239A      2.699373  
     240A      2.716966   241A      2.729023   242A      2.735193  
     243A      2.761329   244A      2.772146   245A      2.784150  
     246A      2.790543   247A      2.803320   248A      2.811000  
     249A      2.817854   250A      2.841707   251A      2.855826  
     252A      2.875223   253A      2.904992   254A      2.919525  
     255A      2.952536   256A      2.978800   257A      2.986090  
     258A      2.996384   259A      3.010539   260A      3.039342  
     261A      3.056465   262A      3.098424   263A      3.213808  
     264A      3.232226   265A      3.276884   266A      3.316358  
     267A      3.344434   268A      3.385858   269A      3.423521  
     270A      3.438673   271A      3.463195   272A      3.479579  
     273A      3.510417   274A      3.550397   275A      3.610933  
     276A      3.687653   277A      3.703242   278A      3.724060  
     279A      3.735082   280A      3.784337   281A      3.840009  
     282A      3.927514   283A      3.973035   284A      4.015114  
     285A      4.042942   286A      4.076093   287A      4.085965  
     288A      4.101144   289A      4.112965   290A      4.148003  
     291A      4.166771   292A      4.203141   293A      4.219716  
     294A      4.239995   295A      4.260125   296A      4.270053  
     297A      4.287421   298A      4.300388   299A      4.308684  
     300A      4.322509   301A      4.346949   302A      4.353358  
     303A      4.379322   304A      4.383534   305A      4.397555  
     306A      4.408078   307A      4.414931   308A      4.416004  
     309A      4.438756   310A      4.449257   311A      4.458087  
     312A      4.474662   313A      4.486393   314A      4.502422  
     315A      4.517196   316A      4.547748   317A      4.564566  
     318A      4.594749   319A      4.616587   320A      4.655850  
     321A      4.685660   322A      4.716892   323A      4.740710  
     324A      4.802350   325A      4.814516   326A      4.846825  
     327A      4.875249   328A      4.925082   329A      4.982680  
     330A      5.076333   331A      5.082325   332A      5.107454  
     333A      5.145214   334A      5.148430   335A      5.168584  
     336A      5.194274   337A      5.202860   338A      5.271202  
     339A      5.289199   340A      5.305271   341A      5.320278  
     342A      5.325416   343A      5.378583   344A      5.393799  
     345A      5.417274   346A      5.469581   347A      5.494101  
     348A      5.503195   349A      5.529401   350A      5.589186  
     351A      5.727561   352A      5.752424   353A      5.850963  
     354A      6.095020   355A      6.153036   356A      6.261956  
     357A      6.294337   358A      6.507913   359A      6.548824  
     360A      6.598438   361A      6.600278   362A      6.747574  
     363A      6.767715   364A      6.812089   365A      6.822411  
     366A      6.856225   367A      6.897692   368A      6.981619  
     369A      7.004292   370A      7.115751   371A      7.138332  
     372A      7.146437   373A      7.159099   374A      7.185250  
     375A      7.249903   376A      7.274051   377A      7.285581  
     378A      7.292477   379A      7.295876   380A      7.302273  
     381A      7.306822   382A      7.314542   383A      7.335963  
     384A      7.347878   385A      7.358381   386A      7.414466  
     387A      7.425264   388A      7.430747   389A      7.447593  
     390A      7.463611   391A      7.487453   392A      7.501484  
     393A      7.520036   394A      7.598924   395A      7.614958  
     396A      7.741634   397A      7.772361   398A      7.833233  
     399A      7.838352   400A      7.860822   401A      7.956221  
     402A      7.968248   403A      7.976879   404A      7.988317  
     405A      8.065742   406A      8.604401   407A      8.729407  
     408A      8.768642   409A      8.820841   410A     10.976211  
     411A     13.653531   412A     13.817036   413A     13.979873  
     414A     15.371360   415A     15.928300   416A     16.266072  
     417A     16.498372   418A     26.237469   419A     26.278984  
     420A     26.334847   421A     26.468083   422A     26.632001  
     423A     46.472391   424A    138.745313   425A    139.008439  
     426A    139.311481   427A    711.755302  

    Final Occupation by Irrep:
              A 
    DOCC [    20 ]
    NA   [    20 ]
    NB   [    20 ]

  @DF-RHF Final Energy:  -304.22575828327871

   => Energetics <=

    Nuclear Repulsion Energy =            114.8787457839106878
    One-Electron Energy =                -648.0290886334820470
    Two-Electron Energy =                 228.9245845662926797
    Total Energy =                       -304.2257582832787648

Computation Completed


Properties will be evaluated at   0.000000,   0.000000,   0.000000 [a0]

Properties computed using the SCF density matrix


 Multipole Moments:

 ------------------------------------------------------------------------------------
     Multipole            Electronic (a.u.)      Nuclear  (a.u.)        Total (a.u.)
 ------------------------------------------------------------------------------------

 L = 1.  Multiply by 2.5417464519 to convert [e a0] to [Debye]
 Dipole X            :        -17.0583620           16.7019513           -0.3564107
 Dipole Y            :        -36.9717041           36.3157362           -0.6559679
 Dipole Z            :        141.4953294         -141.2288785            0.2664509
 Magnitude           :                                                    0.7926655

 ------------------------------------------------------------------------------------

*** tstop() called on ddmfs1 at Thu Jan 18 21:00:03 2024
Module time:
	user time   =     100.29 seconds =       1.67 minutes
	system time =       3.67 seconds =       0.06 minutes
	total time  =          8 seconds =       0.13 minutes
Total time:
	user time   =     323.95 seconds =       5.40 minutes
	system time =      24.10 seconds =       0.40 minutes
	total time  =         29 seconds =       0.48 minutes
  Constructing Basis Sets for SAPT...

   => Loading Basis Set <=

    Name: (AUG-CC-PVTZ AUX)
    Role: RIFIT
    Keyword: DF_BASIS_SAPT
    atoms 1                     entry BR         line  1248 file /ddmfs1b/softs/psi4conda/share/psi4/basis/aug-cc-pvtz-ri.gbs 
    atoms 2, 5, 8, 11           entry O          line   264 file /ddmfs1b/softs/psi4conda/share/psi4/basis/aug-cc-pvtz-ri.gbs 
    atoms 3-4, 6-7, 9-10, 12-13 entry H          line    30 file /ddmfs1b/softs/psi4conda/share/psi4/basis/aug-cc-pvtz-ri.gbs 

   => Loading Basis Set <=

    Name: (AUG-CC-PVTZ AUX)
    Role: JKFIT
    Keyword: DF_BASIS_ELST
    atoms 1                     entry BR         line  1492 file /ddmfs1b/softs/psi4conda/share/psi4/basis/aug-cc-pvtz-jkfit.gbs 
    atoms 2, 5, 8, 11           entry O          line   286 file /ddmfs1b/softs/psi4conda/share/psi4/basis/aug-cc-pvtz-jkfit.gbs 
    atoms 3-4, 6-7, 9-10, 12-13 entry H          line    70 file /ddmfs1b/softs/psi4conda/share/psi4/basis/aug-cc-pvtz-jkfit.gbs 


  //>>>>>>>>>>>>>>>>>>>>>>>>>>>>>>>>>>>//
  //               SAPT2+              //
  //<<<<<<<<<<<<<<<<<<<<<<<<<<<<<<<<<<<//


*** tstart() called on ddmfs1
*** at Thu Jan 18 21:00:03 2024

        SAPT2+  
    Ed Hohenstein
     6 June 2009

      Orbital Information
  --------------------------
    NSO        =       427
    NMO        =       427
    NRI        =       983
    NOCC A     =        18
    NOCC B     =        20
    FOCC A     =         0
    FOCC B     =         0
    NVIR A     =       409
    NVIR B     =       407

    Estimated memory usage: 2921.4 MB

    Natural Orbital Cutoff:   1.000E-06
    Disp(T3) Truncation:            Yes
    CCD (vv|vv) Truncation:         Yes
    MBPT T2 Truncation:             Yes

    Monomer A: 320 virtual orbitals dropped
    Monomer B: 88 virtual orbitals dropped

    Elst10,r            =    -0.081308333130 [Eh]
    Exch10 (S^2)        =     0.064844248907 [Eh]
    Exch10              =     0.065839100944 [Eh]
    Ind20,r (A<-B)      =    -0.037064498335 [Eh]
    Ind20,r (B<-A)      =    -0.019323202204 [Eh]
    Ind20,r             =    -0.056387700539 [Eh]
    Exch-Ind20,r (A<-B) =     0.027475610288 [Eh]
    Exch-Ind20,r (B<-A) =     0.008589733264 [Eh]
    Exch-Ind20,r        =     0.036065343552 [Eh]
    Disp20              =    -0.028579194886 [Eh]
    Disp20 (NO)         =    -0.025127559941 [Eh]
    Exch-Disp20         =     0.006848640570 [Eh]
    Elst12,r            =    -0.000770763316 [Eh]
    Exch11              =     0.002750506514 [Eh]
    Exch12              =     0.004948957373 [Eh]
    Ind22               =    -0.007449084826 [Eh]
    Disp21              =     0.002216925358 [Eh]
    Disp22 (SDQ)        =    -0.000021580434 [Eh]

    (i =   1 of  20)          9 seconds
    (i =   2 of  20)         18 seconds
    (i =   3 of  20)         27 seconds
    (i =   4 of  20)         36 seconds
    (i =   5 of  20)         45 seconds
    (i =   6 of  20)         54 seconds
    (i =   7 of  20)         63 seconds
    (i =   8 of  20)         72 seconds
    (i =   9 of  20)         81 seconds
    (i =  10 of  20)         90 seconds
    (i =  11 of  20)         99 seconds
    (i =  12 of  20)        108 seconds
    (i =  13 of  20)        117 seconds
    (i =  14 of  20)        126 seconds
    (i =  15 of  20)        135 seconds
    (i =  16 of  20)        144 seconds
    (i =  17 of  20)        153 seconds
    (i =  18 of  20)        162 seconds
    (i =  19 of  20)        171 seconds
    (i =  20 of  20)        180 seconds

    Disp220 (T)         =    -0.001906160914 [Eh]

    (i =   1 of  18)         66 seconds
    (i =   2 of  18)        133 seconds
    (i =   3 of  18)        200 seconds
    (i =   4 of  18)        267 seconds
    (i =   5 of  18)        333 seconds
    (i =   6 of  18)        400 seconds
    (i =   7 of  18)        467 seconds
    (i =   8 of  18)        533 seconds
    (i =   9 of  18)        600 seconds
    (i =  10 of  18)        667 seconds
    (i =  11 of  18)        734 seconds
    (i =  12 of  18)        801 seconds
    (i =  13 of  18)        868 seconds
    (i =  14 of  18)        935 seconds
    (i =  15 of  18)       1001 seconds
    (i =  16 of  18)       1069 seconds
    (i =  17 of  18)       1135 seconds
    (i =  18 of  18)       1203 seconds

    Disp202 (T)         =    -0.002612143005 [Eh]

    Disp22 (T)          =    -0.004518303919 [Eh]

    Est. Disp220 (T)    =    -0.002167999773 [Eh]
    Est. Disp202 (T)    =    -0.002970958747 [Eh]

    Est. Disp22 (T)     =    -0.005138958520 [Eh]

    SAPT Results 
  --------------------------------------------------------------------------------------------------------
    Electrostatics                -82.07909645 [mEh]     -51.50541062 [kcal/mol]    -215.49863803 [kJ/mol]
      Elst10,r                    -81.30833313 [mEh]     -51.02174934 [kcal/mol]    -213.47499922 [kJ/mol]
      Elst12,r                     -0.77076332 [mEh]      -0.48366128 [kcal/mol]      -2.02363881 [kJ/mol]

    Exchange                       73.53856483 [mEh]      46.14614612 [kcal/mol]     193.07547536 [kJ/mol]
      Exch10                       65.83910094 [mEh]      41.31465959 [kcal/mol]     172.86053571 [kJ/mol]
      Exch10(S^2)                  64.84424891 [mEh]      40.69038051 [kcal/mol]     170.24855205 [kJ/mol]
      Exch11(S^2)                   2.75050651 [mEh]       1.72596890 [kcal/mol]       7.22145386 [kJ/mol]
      Exch12(S^2)                   4.94895737 [mEh]       3.10551764 [kcal/mol]      12.99348579 [kJ/mol]

    Induction                     -32.07875266 [mEh]     -20.12972120 [kcal/mol]     -84.22275350 [kJ/mol]
      Ind20,r                     -56.38770054 [mEh]     -35.38381629 [kcal/mol]    -148.04588737 [kJ/mol]
      Ind22                        -7.44908483 [mEh]      -4.67437130 [kcal/mol]     -19.55756951 [kJ/mol]
      Exch-Ind20,r                 36.06534355 [mEh]      22.63134475 [kcal/mol]      94.68954645 [kJ/mol]
      Exch-Ind22                    4.76440431 [mEh]       2.98970884 [kcal/mol]      12.50894179 [kJ/mol]
      delta HF,r (2)               -9.07171515 [mEh]      -5.69258720 [kcal/mol]     -23.81778485 [kJ/mol]

    Dispersion                    -24.67416791 [mEh]     -15.48327412 [kcal/mol]     -64.78201893 [kJ/mol]
      Disp20                      -28.57919489 [mEh]     -17.93371554 [kcal/mol]     -75.03466584 [kJ/mol]
      Disp21                        2.21692536 [mEh]       1.39114166 [kcal/mol]       5.82053673 [kJ/mol]
      Disp22 (SDQ)                 -0.02158043 [mEh]      -0.01354193 [kcal/mol]      -0.05665942 [kJ/mol]
      Disp22 (T)                   -4.51830392 [mEh]      -2.83527851 [kcal/mol]     -11.86280530 [kJ/mol]
      Est. Disp22 (T)              -5.13895852 [mEh]      -3.22474516 [kcal/mol]     -13.49233374 [kJ/mol]
      Exch-Disp20                   6.84864057 [mEh]       4.29758684 [kcal/mol]      17.98110334 [kJ/mol]

  Total HF                        -44.86330433 [mEh]     -28.15214849 [kcal/mol]    -117.78858928 [kJ/mol]
  Total SAPT0                     -66.59385864 [mEh]     -41.78827719 [kcal/mol]    -174.84215178 [kJ/mol]
  Total SAPT2                     -62.34983859 [mEh]     -39.12511440 [kcal/mol]    -163.69947866 [kJ/mol]
  Total SAPT2+                    -65.29345218 [mEh]     -40.97225982 [kcal/mol]    -171.42793509 [kJ/mol]

  Special recipe for scaled SAPT0 (see Manual):
    Electrostatics sSAPT0         -81.30833313 [mEh]     -51.02174934 [kcal/mol]    -213.47499922 [kJ/mol]
    Exchange sSAPT0                65.83910094 [mEh]      41.31465959 [kcal/mol]     172.86053571 [kJ/mol]
    Induction sSAPT0              -27.70851164 [mEh]     -17.38735356 [kcal/mol]     -72.74868730 [kJ/mol]
    Dispersion sSAPT0             -21.41047424 [mEh]     -13.43527542 [kcal/mol]     -56.21319237 [kJ/mol]
  Total sSAPT0                    -64.58821807 [mEh]     -40.52971873 [kcal/mol]    -169.57634318 [kJ/mol]
  --------------------------------------------------------------------------------------------------------

*** tstop() called on ddmfs1 at Thu Jan 18 21:26:49 2024
Module time:
	user time   =   10447.54 seconds =     174.13 minutes
	system time =     175.15 seconds =       2.92 minutes
	total time  =       1606 seconds =      26.77 minutes
Total time:
	user time   =   10774.49 seconds =     179.57 minutes
	system time =     199.35 seconds =       3.32 minutes
	total time  =       1635 seconds =      27.25 minutes

    Psi4 stopped on: Thursday, 18 January 2024 09:26PM
    Psi4 wall time for execution: 0:27:14.40

*** Psi4 exiting successfully. Buy a developer a beer!
