
    -----------------------------------------------------------------------
          Psi4: An Open-Source Ab Initio Electronic Structure Package
                               Psi4 1.8.2 release

                         Git: Rev {} zzzzzzz 


    D. G. A. Smith, L. A. Burns, A. C. Simmonett, R. M. Parrish,
    M. C. Schieber, R. Galvelis, P. Kraus, H. Kruse, R. Di Remigio,
    A. Alenaizan, A. M. James, S. Lehtola, J. P. Misiewicz, M. Scheurer,
    R. A. Shaw, J. B. Schriber, Y. Xie, Z. L. Glick, D. A. Sirianni,
    J. S. O'Brien, J. M. Waldrop, A. Kumar, E. G. Hohenstein,
    B. P. Pritchard, B. R. Brooks, H. F. Schaefer III, A. Yu. Sokolov,
    K. Patkowski, A. E. DePrince III, U. Bozkaya, R. A. King,
    F. A. Evangelista, J. M. Turney, T. D. Crawford, C. D. Sherrill,
    J. Chem. Phys. 152(18) 184108 (2020). https://doi.org/10.1063/5.0006002

                            Additional Code Authors
    E. T. Seidl, C. L. Janssen, E. F. Valeev, M. L. Leininger,
    J. F. Gonthier, R. M. Richard, H. R. McAlexander, M. Saitow, X. Wang,
    P. Verma, M. H. Lechner, A. Jiang, S. Behnle, A. G. Heide,
    M. F. Herbst, and D. L. Poole

             Previous Authors, Complete List of Code Contributors,
                       and Citations for Specific Modules
    https://github.com/psi4/psi4/blob/master/codemeta.json
    https://github.com/psi4/psi4/graphs/contributors
    http://psicode.org/psi4manual/master/introduction.html#citing-psifour

    -----------------------------------------------------------------------


    Psi4 started on: Saturday, 20 January 2024 09:38AM

    Process ID: 22893
    Host:       ddmfs1
    PSIDATADIR: /ddmfs1b/softs/psi4conda/share/psi4
    Memory:     500.0 MiB
    Threads:    20
    
  ==> Input File <==

--------------------------------------------------------------------------
MEMORY 60 GB

molecule dimer {
-1 1
Br     0.000000     0.000000     0.000000
--
0 1
O     -0.532809     1.922738    -2.739100
H     -0.280531     1.490316    -1.875736
H     -0.953311     1.232509    -3.332771
O     -1.825040     1.989986     2.364796
H     -1.476176     1.902850     3.256188
H     -1.117718     1.930523     1.713505
O      1.897897    -0.527032    -2.560802
H      2.254682     0.294757    -2.824082
H      1.284234    -0.440483    -1.819197
O     -3.381797     0.146011    -0.729659
H     -3.647086     0.178508     0.207781
H     -2.420093     0.129388    -0.713625
O     -1.303184    -2.414765    -1.874233
H     -0.735005    -2.478283    -2.608129
H     -1.009543    -1.639149    -1.422000

units ang
no_reorient
no_com
symmetry c1
}

set {
basis        aug-cc-pVTZ
scf_type     df
}

energy("sapt2+")
--------------------------------------------------------------------------

  Memory set to  55.879 GiB by Python driver.

Scratch directory: /ddmfs1a/scratch/
   => Loading Basis Set <=

    Name: AUG-CC-PVTZ
    Role: ORBITAL
    Keyword: BASIS
    atoms 1                            entry BR         line  4208 file /ddmfs1b/softs/psi4conda/share/psi4/basis/aug-cc-pvtz.gbs 
    atoms 2, 5, 8, 11, 14              entry O          line   331 file /ddmfs1b/softs/psi4conda/share/psi4/basis/aug-cc-pvtz.gbs 
    atoms 3-4, 6-7, 9-10, 12-13, 15-16 entry H          line    40 file /ddmfs1b/softs/psi4conda/share/psi4/basis/aug-cc-pvtz.gbs 

   => Loading Basis Set <=

    Name: AUG-CC-PVTZ
    Role: ORBITAL
    Keyword: BASIS
    atoms 1                            entry BR         line  4208 file /ddmfs1b/softs/psi4conda/share/psi4/basis/aug-cc-pvtz.gbs 
    atoms 2, 5, 8, 11, 14              entry O          line   331 file /ddmfs1b/softs/psi4conda/share/psi4/basis/aug-cc-pvtz.gbs 
    atoms 3-4, 6-7, 9-10, 12-13, 15-16 entry H          line    40 file /ddmfs1b/softs/psi4conda/share/psi4/basis/aug-cc-pvtz.gbs 


  //>>>>>>>>>>>>>>>>>>>>>>>>>>>>>>>>>>>//
  //              Dimer HF             //
  //<<<<<<<<<<<<<<<<<<<<<<<<<<<<<<<<<<<//

   => Libint2 <=

    Primary   basis highest AM E, G, H:  5, 4, 3
    Auxiliary basis highest AM E, G, H:  6, 5, 4
    Onebody   basis highest AM E, G, H:  6, 5, 4
    Solid Harmonics ordering:            gaussian

*** tstart() called on ddmfs1
*** at Sat Jan 20 09:38:07 2024

   => Loading Basis Set <=

    Name: AUG-CC-PVTZ
    Role: ORBITAL
    Keyword: BASIS
    atoms 1                            entry BR         line  4208 file /ddmfs1b/softs/psi4conda/share/psi4/basis/aug-cc-pvtz.gbs 
    atoms 2, 5, 8, 11, 14              entry O          line   331 file /ddmfs1b/softs/psi4conda/share/psi4/basis/aug-cc-pvtz.gbs 
    atoms 3-4, 6-7, 9-10, 12-13, 15-16 entry H          line    40 file /ddmfs1b/softs/psi4conda/share/psi4/basis/aug-cc-pvtz.gbs 


         ---------------------------------------------------------
                                   SCF
               by Justin Turney, Rob Parrish, Andy Simmonett
                          and Daniel G. A. Smith
                              RHF Reference
                       20 Threads,  57220 MiB Core
         ---------------------------------------------------------

  ==> Geometry <==

    Molecular point group: c1
    Full point group: C1

    Geometry (in Angstrom), charge = -1, multiplicity = 1:

       Center              X                  Y                   Z               Mass       
    ------------   -----------------  -----------------  -----------------  -----------------
         BR           0.000000000000     0.000000000000     0.000000000000    78.918337600000
         O           -0.532809000000     1.922738000000    -2.739100000000    15.994914619570
         H           -0.280531000000     1.490316000000    -1.875736000000     1.007825032230
         H           -0.953311000000     1.232509000000    -3.332771000000     1.007825032230
         O           -1.825040000000     1.989986000000     2.364796000000    15.994914619570
         H           -1.476176000000     1.902850000000     3.256188000000     1.007825032230
         H           -1.117718000000     1.930523000000     1.713505000000     1.007825032230
         O            1.897897000000    -0.527032000000    -2.560802000000    15.994914619570
         H            2.254682000000     0.294757000000    -2.824082000000     1.007825032230
         H            1.284234000000    -0.440483000000    -1.819197000000     1.007825032230
         O           -3.381797000000     0.146011000000    -0.729659000000    15.994914619570
         H           -3.647086000000     0.178508000000     0.207781000000     1.007825032230
         H           -2.420093000000     0.129388000000    -0.713625000000     1.007825032230
         O           -1.303184000000    -2.414765000000    -1.874233000000    15.994914619570
         H           -0.735005000000    -2.478283000000    -2.608129000000     1.007825032230
         H           -1.009543000000    -1.639149000000    -1.422000000000     1.007825032230

  Running in c1 symmetry.

  Rotational constants: A =      0.03206  B =      0.02419  C =      0.02029 [cm^-1]
  Rotational constants: A =    961.08600  B =    725.07312  C =    608.31216 [MHz]
  Nuclear repulsion =  447.854271257249650

  Charge       = -1
  Multiplicity = 1
  Electrons    = 86
  Nalpha       = 43
  Nbeta        = 43

  ==> Algorithm <==

  SCF Algorithm Type is DF.
  DIIS enabled.
  MOM disabled.
  Fractional occupation disabled.
  Guess Type is SAD.
  Energy threshold   = 1.00e-08
  Density threshold  = 1.00e-08
  Integral threshold = 1.00e-12

  ==> Primary Basis <==

  Basis Set: AUG-CC-PVTZ
    Blend: AUG-CC-PVTZ
    Number of shells: 179
    Number of basis functions: 519
    Number of Cartesian functions: 594
    Spherical Harmonics?: true
    Max angular momentum: 3

   => Loading Basis Set <=

    Name: (AUG-CC-PVTZ AUX)
    Role: JKFIT
    Keyword: DF_BASIS_SCF
    atoms 1                            entry BR         line  1492 file /ddmfs1b/softs/psi4conda/share/psi4/basis/aug-cc-pvtz-jkfit.gbs 
    atoms 2, 5, 8, 11, 14              entry O          line   286 file /ddmfs1b/softs/psi4conda/share/psi4/basis/aug-cc-pvtz-jkfit.gbs 
    atoms 3-4, 6-7, 9-10, 12-13, 15-16 entry H          line    70 file /ddmfs1b/softs/psi4conda/share/psi4/basis/aug-cc-pvtz-jkfit.gbs 

  ==> Integral Setup <==

  ==> DiskDFJK: Density-Fitted J/K Matrices <==

    J tasked:                  Yes
    K tasked:                  Yes
    wK tasked:                  No
    OpenMP threads:             20
    Integrals threads:          20
    Memory [MiB]:            42915
    Algorithm:                Core
    Integral Cache:           SAVE
    Schwarz Cutoff:          1E-12
    Fitting Condition:       1E-10

   => Auxiliary Basis Set <=

  Basis Set: (AUG-CC-PVTZ AUX)
    Blend: AUG-CC-PVTZ-JKFIT
    Number of shells: 348
    Number of basis functions: 1228
    Number of Cartesian functions: 1534
    Spherical Harmonics?: true
    Max angular momentum: 4

  Minimum eigenvalue in the overlap matrix is 1.5574434410E-04.
  Reciprocal condition number of the overlap matrix is 1.1785787239E-05.
    Using symmetric orthogonalization.

  ==> Pre-Iterations <==

  SCF Guess: Superposition of Atomic Densities via on-the-fly atomic UHF (no occupation information).

   -------------------------
    Irrep   Nso     Nmo    
   -------------------------
     A        519     519 
   -------------------------
    Total     519     519
   -------------------------

  ==> Iterations <==

                           Total Energy        Delta E     RMS |[F,P]|

   @DF-RHF iter SAD: -2948.15734843050313   -2.94816e+03   0.00000e+00 
   @DF-RHF iter   1: -2952.27206825275834   -4.11472e+00   2.80675e-03 ADIIS/DIIS
   @DF-RHF iter   2: -2952.68992612366173   -4.17858e-01   1.65240e-03 ADIIS/DIIS
   @DF-RHF iter   3: -2952.87559178568654   -1.85666e-01   1.33722e-04 ADIIS/DIIS
   @DF-RHF iter   4: -2952.87799050374178   -2.39872e-03   6.32613e-05 DIIS
   @DF-RHF iter   5: -2952.87845864175324   -4.68138e-04   9.27314e-06 DIIS
   @DF-RHF iter   6: -2952.87848600228153   -2.73605e-05   2.64542e-06 DIIS
   @DF-RHF iter   7: -2952.87848811249887   -2.11022e-06   1.16544e-06 DIIS
   @DF-RHF iter   8: -2952.87848838167292   -2.69174e-07   3.31828e-07 DIIS
   @DF-RHF iter   9: -2952.87848841573214   -3.40592e-08   5.66511e-08 DIIS
   @DF-RHF iter  10: -2952.87848841684809   -1.11595e-09   1.41408e-08 DIIS
   @DF-RHF iter  11: -2952.87848841688310   -3.50155e-11   6.07006e-09 DIIS
  Energy and wave function converged.


  ==> Post-Iterations <==

    Orbital Energies [Eh]
    ---------------------

    Doubly Occupied:                                                      

       1A   -489.800897     2A    -64.941492     3A    -58.295982  
       4A    -58.295970     5A    -58.295940     6A    -20.442652  
       7A    -20.422888     8A    -20.412324     9A    -20.411966  
      10A    -20.409602    11A     -9.613950    12A     -7.221618  
      13A     -7.221391    14A     -7.221338    15A     -2.963201  
      16A     -2.963146    17A     -2.963060    18A     -2.962815  
      19A     -2.962800    20A     -1.225358    21A     -1.214001  
      22A     -1.207019    23A     -1.194000    24A     -1.184541  
      25A     -0.783438    26A     -0.605496    27A     -0.592857  
      28A     -0.579735    29A     -0.559928    30A     -0.558300  
      31A     -0.453085    32A     -0.443172    33A     -0.434752  
      34A     -0.432609    35A     -0.426763    36A     -0.387729  
      37A     -0.368165    38A     -0.363487    39A     -0.357550  
      40A     -0.354005    41A     -0.231265    42A     -0.227315  
      43A     -0.226622  

    Virtual:                                                              

      44A      0.113174    45A      0.123501    46A      0.135736  
      47A      0.140806    48A      0.146416    49A      0.157476  
      50A      0.167301    51A      0.176451    52A      0.185379  
      53A      0.195108    54A      0.215661    55A      0.239614  
      56A      0.241003    57A      0.255151    58A      0.259957  
      59A      0.271447    60A      0.279596    61A      0.285103  
      62A      0.287734    63A      0.290698    64A      0.293898  
      65A      0.296196    66A      0.306902    67A      0.310929  
      68A      0.320060    69A      0.323785    70A      0.331509  
      71A      0.338952    72A      0.346706    73A      0.351727  
      74A      0.355190    75A      0.359597    76A      0.363698  
      77A      0.375469    78A      0.380507    79A      0.385838  
      80A      0.391500    81A      0.409356    82A      0.419182  
      83A      0.429949    84A      0.434496    85A      0.443846  
      86A      0.450512    87A      0.454035    88A      0.458558  
      89A      0.460446    90A      0.466656    91A      0.473231  
      92A      0.486733    93A      0.487384    94A      0.505600  
      95A      0.516632    96A      0.520680    97A      0.531451  
      98A      0.534786    99A      0.543211   100A      0.546599  
     101A      0.552905   102A      0.558998   103A      0.564249  
     104A      0.576215   105A      0.580711   106A      0.591155  
     107A      0.593729   108A      0.596550   109A      0.608739  
     110A      0.619648   111A      0.627922   112A      0.641925  
     113A      0.655552   114A      0.665965   115A      0.669930  
     116A      0.679693   117A      0.707148   118A      0.712690  
     119A      0.723663   120A      0.735157   121A      0.745124  
     122A      0.760289   123A      0.763439   124A      0.787876  
     125A      0.796815   126A      0.807192   127A      0.822025  
     128A      0.822793   129A      0.831211   130A      0.840912  
     131A      0.847510   132A      0.855851   133A      0.859511  
     134A      0.866925   135A      0.875258   136A      0.879701  
     137A      0.884996   138A      0.892569   139A      0.909291  
     140A      0.912811   141A      0.916470   142A      0.919685  
     143A      0.926189   144A      0.930695   145A      0.935098  
     146A      0.944123   147A      0.953865   148A      0.960371  
     149A      0.966441   150A      0.972674   151A      0.986192  
     152A      0.994794   153A      0.999311   154A      1.010960  
     155A      1.017786   156A      1.023651   157A      1.030040  
     158A      1.044796   159A      1.048491   160A      1.049416  
     161A      1.059514   162A      1.062882   163A      1.076112  
     164A      1.080735   165A      1.089003   166A      1.098020  
     167A      1.102935   168A      1.108210   169A      1.119589  
     170A      1.123077   171A      1.131248   172A      1.140752  
     173A      1.141882   174A      1.148316   175A      1.153482  
     176A      1.155980   177A      1.164107   178A      1.173509  
     179A      1.180803   180A      1.184797   181A      1.188654  
     182A      1.194914   183A      1.197385   184A      1.209593  
     185A      1.212427   186A      1.224091   187A      1.232107  
     188A      1.235700   189A      1.246019   190A      1.254124  
     191A      1.267845   192A      1.286829   193A      1.292147  
     194A      1.305266   195A      1.310935   196A      1.319038  
     197A      1.325381   198A      1.334550   199A      1.347640  
     200A      1.360353   201A      1.362730   202A      1.365999  
     203A      1.373429   204A      1.380934   205A      1.396075  
     206A      1.401743   207A      1.405321   208A      1.412308  
     209A      1.421317   210A      1.429995   211A      1.440122  
     212A      1.444105   213A      1.453738   214A      1.462411  
     215A      1.469276   216A      1.488391   217A      1.489029  
     218A      1.516037   219A      1.532731   220A      1.535402  
     221A      1.545014   222A      1.567473   223A      1.584143  
     224A      1.600598   225A      1.603155   226A      1.616332  
     227A      1.634672   228A      1.674242   229A      1.679099  
     230A      1.682795   231A      1.686960   232A      1.701210  
     233A      1.713719   234A      1.722076   235A      1.731662  
     236A      1.737965   237A      1.747099   238A      1.768449  
     239A      1.775872   240A      1.779649   241A      1.791542  
     242A      1.796987   243A      1.815266   244A      1.831936  
     245A      1.848954   246A      1.868227   247A      1.892853  
     248A      1.905509   249A      1.917206   250A      1.923160  
     251A      1.930026   252A      1.938566   253A      1.977641  
     254A      2.006408   255A      2.010335   256A      2.024835  
     257A      2.060366   258A      2.067668   259A      2.074545  
     260A      2.108724   261A      2.131445   262A      2.142287  
     263A      2.154635   264A      2.167784   265A      2.189859  
     266A      2.197123   267A      2.243152   268A      2.260180  
     269A      2.315304   270A      2.421569   271A      2.430967  
     272A      2.436677   273A      2.451086   274A      2.464774  
     275A      2.468235   276A      2.486536   277A      2.489096  
     278A      2.514564   279A      2.526228   280A      2.537214  
     281A      2.538759   282A      2.542699   283A      2.551358  
     284A      2.555783   285A      2.568701   286A      2.575882  
     287A      2.581993   288A      2.591615   289A      2.601587  
     290A      2.606309   291A      2.613371   292A      2.627907  
     293A      2.637309   294A      2.645549   295A      2.661269  
     296A      2.666563   297A      2.671937   298A      2.680148  
     299A      2.685597   300A      2.699793   301A      2.711542  
     302A      2.724208   303A      2.731321   304A      2.739354  
     305A      2.743393   306A      2.756889   307A      2.763769  
     308A      2.776091   309A      2.794081   310A      2.799611  
     311A      2.821671   312A      2.837425   313A      2.850213  
     314A      2.853375   315A      2.873786   316A      2.885064  
     317A      2.899294   318A      2.905140   319A      2.908339  
     320A      2.926908   321A      2.934847   322A      2.943225  
     323A      2.957077   324A      2.970792   325A      2.985899  
     326A      2.992903   327A      3.007955   328A      3.025845  
     329A      3.036783   330A      3.045078   331A      3.050097  
     332A      3.061689   333A      3.078930   334A      3.102841  
     335A      3.119268   336A      3.134336   337A      3.161515  
     338A      3.176889   339A      3.182800   340A      3.207345  
     341A      3.230521   342A      3.233782   343A      3.250257  
     344A      3.259686   345A      3.307638   346A      3.338413  
     347A      3.344840   348A      3.395704   349A      3.822267  
     350A      3.867145   351A      3.923945   352A      3.944819  
     353A      3.970749   354A      3.986836   355A      4.099254  
     356A      4.111310   357A      4.162034   358A      4.180803  
     359A      4.190208   360A      4.218445   361A      4.237797  
     362A      4.248535   363A      4.320299   364A      4.352149  
     365A      4.354170   366A      4.367993   367A      4.383998  
     368A      4.392338   369A      4.412029   370A      4.420097  
     371A      4.426061   372A      4.438572   373A      4.451131  
     374A      4.455555   375A      4.467957   376A      4.482909  
     377A      4.489693   378A      4.500013   379A      4.505868  
     380A      4.528917   381A      4.542416   382A      4.548655  
     383A      4.551598   384A      4.555019   385A      4.568000  
     386A      4.577916   387A      4.587791   388A      4.599855  
     389A      4.604034   390A      4.617969   391A      4.635730  
     392A      4.648606   393A      4.654497   394A      4.661555  
     395A      4.685148   396A      4.700508   397A      4.701486  
     398A      4.704305   399A      4.721750   400A      4.730828  
     401A      4.794971   402A      4.827010   403A      4.838614  
     404A      4.868581   405A      4.877842   406A      4.942892  
     407A      4.954102   408A      4.957342   409A      4.992880  
     410A      5.025207   411A      5.088426   412A      5.106466  
     413A      5.218601   414A      5.240504   415A      5.258044  
     416A      5.266331   417A      5.304891   418A      5.320715  
     419A      5.336266   420A      5.361423   421A      5.386706  
     422A      5.395400   423A      5.407134   424A      5.420717  
     425A      5.448514   426A      5.465396   427A      5.483115  
     428A      5.498123   429A      5.523935   430A      5.544737  
     431A      5.560884   432A      5.601883   433A      5.609648  
     434A      5.619919   435A      5.666127   436A      5.714422  
     437A      5.728609   438A      5.774088   439A      5.840501  
     440A      5.873597   441A      5.908132   442A      5.929611  
     443A      5.988165   444A      6.088174   445A      6.258063  
     446A      6.317702   447A      6.374146   448A      6.410541  
     449A      6.461031   450A      6.698296   451A      6.711258  
     452A      6.738264   453A      6.747938   454A      6.751122  
     455A      6.878260   456A      6.933549   457A      6.948896  
     458A      6.986969   459A      6.991433   460A      6.994487  
     461A      7.025292   462A      7.048504   463A      7.106072  
     464A      7.186337   465A      7.288234   466A      7.301392  
     467A      7.308734   468A      7.330489   469A      7.358549  
     470A      7.417774   471A      7.422133   472A      7.425119  
     473A      7.438406   474A      7.441717   475A      7.456273  
     476A      7.477114   477A      7.480253   478A      7.485713  
     479A      7.504858   480A      7.509072   481A      7.517523  
     482A      7.525019   483A      7.535406   484A      7.547486  
     485A      7.554823   486A      7.569991   487A      7.586987  
     488A      7.596297   489A      7.612845   490A      7.617114  
     491A      7.658787   492A      7.671125   493A      7.675052  
     494A      7.700510   495A      7.734694   496A      7.799961  
     497A      7.901002   498A      7.988389   499A      8.003605  
     500A      8.017218   501A      8.051874   502A      8.094087  
     503A      8.121000   504A      8.134464   505A      8.140018  
     506A      8.148344   507A      8.196841   508A      8.235960  
     509A      8.274699   510A      8.737983   511A      8.887593  
     512A      8.961365   513A      9.001605   514A      9.138509  
     515A     15.757599   516A     16.080488   517A     16.531905  
     518A     17.517283   519A     17.722041  

    Final Occupation by Irrep:
              A 
    DOCC [    43 ]
    NA   [    43 ]
    NB   [    43 ]

  @DF-RHF Final Energy: -2952.87848841688310

   => Energetics <=

    Nuclear Repulsion Energy =            447.8542712572496498
    One-Electron Energy =               -5016.9970538641900930
    Two-Electron Energy =                1616.2642941900571714
    Total Energy =                      -2952.8784884168831013

Computation Completed


Properties will be evaluated at   0.000000,   0.000000,   0.000000 [a0]

Properties computed using the SCF density matrix


 Multipole Moments:

 ------------------------------------------------------------------------------------
     Multipole            Electronic (a.u.)      Nuclear  (a.u.)        Total (a.u.)
 ------------------------------------------------------------------------------------

 L = 1.  Multiply by 2.5417464519 to convert [e a0] to [Debye]
 Dipole X            :         94.8588969          -93.0879297            1.7709672
 Dipole Y            :        -21.6377306           21.8007121            0.1629814
 Dipole Z            :        103.4062866         -101.5350792            1.8712074
 Magnitude           :                                                    2.5815315

 ------------------------------------------------------------------------------------

*** tstop() called on ddmfs1 at Sat Jan 20 09:38:23 2024
Module time:
	user time   =     210.45 seconds =       3.51 minutes
	system time =      18.27 seconds =       0.30 minutes
	total time  =         16 seconds =       0.27 minutes
Total time:
	user time   =     210.45 seconds =       3.51 minutes
	system time =      18.27 seconds =       0.30 minutes
	total time  =         16 seconds =       0.27 minutes

  //>>>>>>>>>>>>>>>>>>>>>>>>>>>>>>>>>>>//
  //            Monomer A HF           //
  //<<<<<<<<<<<<<<<<<<<<<<<<<<<<<<<<<<<//

   => Libint2 <=

    Primary   basis highest AM E, G, H:  5, 4, 3
    Auxiliary basis highest AM E, G, H:  6, 5, 4
    Onebody   basis highest AM E, G, H:  6, 5, 4
    Solid Harmonics ordering:            gaussian

*** tstart() called on ddmfs1
*** at Sat Jan 20 09:38:23 2024

   => Loading Basis Set <=

    Name: AUG-CC-PVTZ
    Role: ORBITAL
    Keyword: BASIS
    atoms 1                            entry BR         line  4208 file /ddmfs1b/softs/psi4conda/share/psi4/basis/aug-cc-pvtz.gbs 
    atoms 2, 5, 8, 11, 14              entry O          line   331 file /ddmfs1b/softs/psi4conda/share/psi4/basis/aug-cc-pvtz.gbs 
    atoms 3-4, 6-7, 9-10, 12-13, 15-16 entry H          line    40 file /ddmfs1b/softs/psi4conda/share/psi4/basis/aug-cc-pvtz.gbs 


         ---------------------------------------------------------
                                   SCF
               by Justin Turney, Rob Parrish, Andy Simmonett
                          and Daniel G. A. Smith
                              RHF Reference
                       20 Threads,  57220 MiB Core
         ---------------------------------------------------------

  ==> Geometry <==

    Molecular point group: c1
    Full point group: C1

    Geometry (in Angstrom), charge = -1, multiplicity = 1:

       Center              X                  Y                   Z               Mass       
    ------------   -----------------  -----------------  -----------------  -----------------
         BR           0.000000000000     0.000000000000     0.000000000000    78.918337600000
      Gh(O)          -0.532809000000     1.922738000000    -2.739100000000    15.994914619570
      Gh(H)          -0.280531000000     1.490316000000    -1.875736000000     1.007825032230
      Gh(H)          -0.953311000000     1.232509000000    -3.332771000000     1.007825032230
      Gh(O)          -1.825040000000     1.989986000000     2.364796000000    15.994914619570
      Gh(H)          -1.476176000000     1.902850000000     3.256188000000     1.007825032230
      Gh(H)          -1.117718000000     1.930523000000     1.713505000000     1.007825032230
      Gh(O)           1.897897000000    -0.527032000000    -2.560802000000    15.994914619570
      Gh(H)           2.254682000000     0.294757000000    -2.824082000000     1.007825032230
      Gh(H)           1.284234000000    -0.440483000000    -1.819197000000     1.007825032230
      Gh(O)          -3.381797000000     0.146011000000    -0.729659000000    15.994914619570
      Gh(H)          -3.647086000000     0.178508000000     0.207781000000     1.007825032230
      Gh(H)          -2.420093000000     0.129388000000    -0.713625000000     1.007825032230
      Gh(O)          -1.303184000000    -2.414765000000    -1.874233000000    15.994914619570
      Gh(H)          -0.735005000000    -2.478283000000    -2.608129000000     1.007825032230
      Gh(H)          -1.009543000000    -1.639149000000    -1.422000000000     1.007825032230

  Running in c1 symmetry.

  Rotational constants: A =      0.03206  B =      0.02419  C =      0.02029 [cm^-1]
  Rotational constants: A =    961.08600  B =    725.07312  C =    608.31216 [MHz]
  Nuclear repulsion =    0.000000000000000

  Charge       = -1
  Multiplicity = 1
  Electrons    = 36
  Nalpha       = 18
  Nbeta        = 18

  ==> Algorithm <==

  SCF Algorithm Type is DF.
  DIIS enabled.
  MOM disabled.
  Fractional occupation disabled.
  Guess Type is SAD.
  Energy threshold   = 1.00e-08
  Density threshold  = 1.00e-08
  Integral threshold = 1.00e-12

  ==> Primary Basis <==

  Basis Set: AUG-CC-PVTZ
    Blend: AUG-CC-PVTZ
    Number of shells: 179
    Number of basis functions: 519
    Number of Cartesian functions: 594
    Spherical Harmonics?: true
    Max angular momentum: 3

   => Loading Basis Set <=

    Name: (AUG-CC-PVTZ AUX)
    Role: JKFIT
    Keyword: DF_BASIS_SCF
    atoms 1                            entry BR         line  1492 file /ddmfs1b/softs/psi4conda/share/psi4/basis/aug-cc-pvtz-jkfit.gbs 
    atoms 2, 5, 8, 11, 14              entry O          line   286 file /ddmfs1b/softs/psi4conda/share/psi4/basis/aug-cc-pvtz-jkfit.gbs 
    atoms 3-4, 6-7, 9-10, 12-13, 15-16 entry H          line    70 file /ddmfs1b/softs/psi4conda/share/psi4/basis/aug-cc-pvtz-jkfit.gbs 

  ==> Integral Setup <==

  ==> DiskDFJK: Density-Fitted J/K Matrices <==

    J tasked:                  Yes
    K tasked:                  Yes
    wK tasked:                  No
    OpenMP threads:             20
    Integrals threads:          20
    Memory [MiB]:            42915
    Algorithm:                Core
    Integral Cache:           LOAD
    Schwarz Cutoff:          1E-12
    Fitting Condition:       1E-10

   => Auxiliary Basis Set <=

  Basis Set: (AUG-CC-PVTZ AUX)
    Blend: AUG-CC-PVTZ-JKFIT
    Number of shells: 348
    Number of basis functions: 1228
    Number of Cartesian functions: 1534
    Spherical Harmonics?: true
    Max angular momentum: 4

  Minimum eigenvalue in the overlap matrix is 1.5574434410E-04.
  Reciprocal condition number of the overlap matrix is 1.1785787239E-05.
    Using symmetric orthogonalization.

  ==> Pre-Iterations <==

  SCF Guess: Superposition of Atomic Densities via on-the-fly atomic UHF (no occupation information).

   -------------------------
    Irrep   Nso     Nmo    
   -------------------------
     A        519     519 
   -------------------------
    Total     519     519
   -------------------------

  ==> Iterations <==

                           Total Energy        Delta E     RMS |[F,P]|

   @DF-RHF iter SAD: -2570.41423568054734   -2.57041e+03   0.00000e+00 
   @DF-RHF iter   1: -2572.25136488309636   -1.83713e+00   2.10188e-03 ADIIS/DIIS
   @DF-RHF iter   2: -2572.46173975555530   -2.10375e-01   1.17875e-03 ADIIS/DIIS
   @DF-RHF iter   3: -2572.53369276306512   -7.19530e-02   1.66564e-05 DIIS
   @DF-RHF iter   4: -2572.53372834263700   -3.55796e-05   2.50135e-06 DIIS
   @DF-RHF iter   5: -2572.53373020310664   -1.86047e-06   6.12766e-07 DIIS
   @DF-RHF iter   6: -2572.53373033157823   -1.28472e-07   1.28745e-07 DIIS
   @DF-RHF iter   7: -2572.53373034948891   -1.79107e-08   1.02178e-08 DIIS
   @DF-RHF iter   8: -2572.53373034954393   -5.50244e-11   2.40702e-09 DIIS
  Energy and wave function converged.


  ==> Post-Iterations <==

    Orbital Energies [Eh]
    ---------------------

    Doubly Occupied:                                                      

       1A   -489.722242     2A    -64.861817     3A    -58.216354  
       4A    -58.216352     5A    -58.216352     6A     -9.533298  
       7A     -7.140631     8A     -7.140625     9A     -7.140615  
      10A     -2.882345    11A     -2.882342    12A     -2.882317  
      13A     -2.882314    14A     -2.882308    15A     -0.685992  
      16A     -0.139336    17A     -0.139334    18A     -0.139332  

    Virtual:                                                              

      19A      0.118819    20A      0.122957    21A      0.132869  
      22A      0.135566    23A      0.141593    24A      0.159748  
      25A      0.167160    26A      0.171751    27A      0.175068  
      28A      0.183456    29A      0.223541    30A      0.236459  
      31A      0.238885    32A      0.252456    33A      0.255178  
      34A      0.260166    35A      0.263854    36A      0.267839  
      37A      0.270627    38A      0.275134    39A      0.283901  
      40A      0.291117    41A      0.295634    42A      0.301383  
      43A      0.307187    44A      0.310702    45A      0.314086  
      46A      0.318486    47A      0.329484    48A      0.336516  
      49A      0.340394    50A      0.352621    51A      0.355424  
      52A      0.379295    53A      0.393932    54A      0.400209  
      55A      0.420585    56A      0.421043    57A      0.440423  
      58A      0.446645    59A      0.448339    60A      0.449481  
      61A      0.459965    62A      0.470394    63A      0.477241  
      64A      0.484463    65A      0.487758    66A      0.492734  
      67A      0.494640    68A      0.498725    69A      0.501139  
      70A      0.510628    71A      0.515819    72A      0.525371  
      73A      0.532937    74A      0.539173    75A      0.545306  
      76A      0.549346    77A      0.559151    78A      0.566873  
      79A      0.573897    80A      0.581273    81A      0.586571  
      82A      0.593118    83A      0.597702    84A      0.618201  
      85A      0.623953    86A      0.633498    87A      0.646025  
      88A      0.658631    89A      0.668253    90A      0.679922  
      91A      0.685973    92A      0.697610    93A      0.704521  
      94A      0.719730    95A      0.733831    96A      0.766265  
      97A      0.779565    98A      0.804472    99A      0.818186  
     100A      0.835689   101A      0.838366   102A      0.860260  
     103A      0.864826   104A      0.877655   105A      0.883828  
     106A      0.889104   107A      0.897627   108A      0.901656  
     109A      0.907675   110A      0.909997   111A      0.917098  
     112A      0.925749   113A      0.937322   114A      0.939433  
     115A      0.950942   116A      0.959602   117A      0.965766  
     118A      0.969517   119A      0.971535   120A      0.978053  
     121A      0.981404   122A      0.989125   123A      0.999293  
     124A      1.002104   125A      1.005005   126A      1.015696  
     127A      1.018061   128A      1.026996   129A      1.031896  
     130A      1.035910   131A      1.041302   132A      1.052446  
     133A      1.053855   134A      1.067765   135A      1.072984  
     136A      1.073734   137A      1.082544   138A      1.082672  
     139A      1.090068   140A      1.091406   141A      1.105859  
     142A      1.114359   143A      1.120569   144A      1.127735  
     145A      1.133392   146A      1.137118   147A      1.142179  
     148A      1.149611   149A      1.157979   150A      1.162266  
     151A      1.165590   152A      1.175231   153A      1.184796  
     154A      1.195794   155A      1.200811   156A      1.209491  
     157A      1.213904   158A      1.221452   159A      1.231240  
     160A      1.233389   161A      1.240720   162A      1.242683  
     163A      1.256673   164A      1.263135   165A      1.275812  
     166A      1.283104   167A      1.289521   168A      1.302056  
     169A      1.315019   170A      1.322290   171A      1.324216  
     172A      1.342470   173A      1.343481   174A      1.357641  
     175A      1.362151   176A      1.380013   177A      1.392143  
     178A      1.406262   179A      1.413703   180A      1.428650  
     181A      1.441107   182A      1.452467   183A      1.467145  
     184A      1.473195   185A      1.487123   186A      1.497699  
     187A      1.503460   188A      1.523260   189A      1.541475  
     190A      1.549492   191A      1.559288   192A      1.568328  
     193A      1.589123   194A      1.599879   195A      1.606253  
     196A      1.617045   197A      1.625566   198A      1.629211  
     199A      1.645612   200A      1.670798   201A      1.672989  
     202A      1.692232   203A      1.721556   204A      1.747941  
     205A      1.749944   206A      1.774430   207A      1.778542  
     208A      1.782430   209A      1.816488   210A      1.819927  
     211A      1.826872   212A      1.841049   213A      1.870659  
     214A      1.879345   215A      1.886290   216A      1.899101  
     217A      1.906155   218A      1.908789   219A      1.920198  
     220A      1.926299   221A      1.945490   222A      1.952194  
     223A      1.958908   224A      1.968742   225A      1.983030  
     226A      1.993335   227A      2.001355   228A      2.013630  
     229A      2.024102   230A      2.036747   231A      2.044207  
     232A      2.048832   233A      2.062488   234A      2.074853  
     235A      2.112418   236A      2.121464   237A      2.131799  
     238A      2.149434   239A      2.164581   240A      2.169655  
     241A      2.174006   242A      2.213209   243A      2.220253  
     244A      2.228915   245A      2.272670   246A      2.323246  
     247A      2.349928   248A      2.430127   249A      2.550448  
     250A      2.588560   251A      2.603110   252A      2.608227  
     253A      2.613656   254A      2.620398   255A      2.626066  
     256A      2.638561   257A      2.650135   258A      2.664091  
     259A      2.667270   260A      2.672395   261A      2.684804  
     262A      2.691794   263A      2.705268   264A      2.708625  
     265A      2.714256   266A      2.722415   267A      2.731533  
     268A      2.738960   269A      2.753055   270A      2.762952  
     271A      2.766076   272A      2.781996   273A      2.787511  
     274A      2.796314   275A      2.800967   276A      2.819791  
     277A      2.825108   278A      2.832630   279A      2.845573  
     280A      2.853128   281A      2.856262   282A      2.862398  
     283A      2.883254   284A      2.896287   285A      2.913346  
     286A      2.922153   287A      2.923306   288A      2.950141  
     289A      2.966092   290A      2.971198   291A      2.979034  
     292A      2.984444   293A      3.016928   294A      3.031252  
     295A      3.053108   296A      3.069177   297A      3.073871  
     298A      3.098525   299A      3.116010   300A      3.132030  
     301A      3.146486   302A      3.171641   303A      3.209539  
     304A      3.215574   305A      3.247461   306A      3.262646  
     307A      3.309997   308A      3.334001   309A      3.344125  
     310A      3.356874   311A      3.359263   312A      3.374216  
     313A      3.394700   314A      3.401750   315A      3.411448  
     316A      3.429257   317A      3.443884   318A      3.458227  
     319A      3.462499   320A      3.475453   321A      3.502768  
     322A      3.542051   323A      3.548296   324A      3.582395  
     325A      3.618857   326A      3.629545   327A      3.644698  
     328A      3.663202   329A      3.668199   330A      3.702318  
     331A      3.729549   332A      3.734588   333A      3.754989  
     334A      3.778503   335A      3.803733   336A      3.844922  
     337A      3.853051   338A      3.881555   339A      3.888538  
     340A      3.983768   341A      4.011719   342A      4.031393  
     343A      4.088335   344A      4.530260   345A      4.560101  
     346A      4.571144   347A      4.597712   348A      4.621681  
     349A      4.623138   350A      4.629401   351A      4.654824  
     352A      4.666056   353A      4.678662   354A      4.710989  
     355A      4.736386   356A      4.768488   357A      4.776065  
     358A      4.790987   359A      4.801010   360A      4.806345  
     361A      4.818877   362A      4.836660   363A      4.848648  
     364A      4.853325   365A      4.877798   366A      4.888045  
     367A      4.891550   368A      4.904559   369A      4.942914  
     370A      5.019427   371A      5.029483   372A      5.037672  
     373A      5.050665   374A      5.066418   375A      5.071407  
     376A      5.079767   377A      5.103225   378A      5.117048  
     379A      5.121086   380A      5.130989   381A      5.165154  
     382A      5.196742   383A      5.217926   384A      5.234151  
     385A      5.247074   386A      5.277933   387A      5.314563  
     388A      5.324268   389A      5.356513   390A      5.389975  
     391A      5.413456   392A      5.466780   393A      5.490963  
     394A      5.571809   395A      5.624041   396A      5.653598  
     397A      5.702617   398A      5.737890   399A      5.747289  
     400A      5.770288   401A      5.781813   402A      5.823850  
     403A      5.840783   404A      5.843494   405A      5.870086  
     406A      5.895174   407A      5.908376   408A      5.932503  
     409A      5.936820   410A      5.945815   411A      6.013853  
     412A      6.034001   413A      6.066857   414A      6.176178  
     415A      6.304265   416A      6.314027   417A      6.325060  
     418A      6.368272   419A      6.373748   420A      6.464996  
     421A      6.488992   422A      6.614747   423A      6.652114  
     424A      6.749633   425A      6.803342   426A      6.836304  
     427A      6.937913   428A      6.994481   429A      7.098056  
     430A      7.134413   431A      7.226907   432A      7.278509  
     433A      7.365393   434A      7.409184   435A      7.837679  
     436A      7.866439   437A      7.890064   438A      7.920614  
     439A      7.929860   440A      7.935901   441A      7.966539  
     442A      7.982264   443A      8.009638   444A      8.083239  
     445A      8.217884   446A      8.251049   447A      8.254240  
     448A      8.277937   449A      8.351684   450A      8.366456  
     451A      8.389940   452A      8.396859   453A      8.416900  
     454A      8.435052   455A      8.468693   456A      8.474712  
     457A      8.502144   458A      8.536711   459A      8.559534  
     460A      8.773059   461A      8.924199   462A      8.931192  
     463A      8.967160   464A      8.996307   465A      9.027809  
     466A      9.116316   467A      9.168069   468A      9.322484  
     469A      9.361632   470A      9.824826   471A      9.899504  
     472A      9.922991   473A      9.949057   474A      9.954425  
     475A     10.013473   476A     10.031464   477A     10.044726  
     478A     10.068347   479A     10.079718   480A     10.213317  
     481A     10.222930   482A     10.248084   483A     10.271889  
     484A     10.286539   485A     10.345195   486A     10.458345  
     487A     10.490529   488A     10.493987   489A     10.523842  
     490A     11.117546   491A     11.302078   492A     11.343039  
     493A     11.395438   494A     11.578511   495A     11.817247  
     496A     11.871806   497A     11.902143   498A     11.950176  
     499A     11.972069   500A     12.002909   501A     12.276127  
     502A     12.287496   503A     12.519142   504A     12.607559  
     505A     13.569319   506A     13.684633   507A     13.766321  
     508A     13.945391   509A     13.960266   510A     14.017648  
     511A     14.131340   512A     14.135044   513A     14.206483  
     514A     14.244618   515A     64.793102   516A     65.077901  
     517A     66.195983   518A     68.081679   519A     68.510872  

    Final Occupation by Irrep:
              A 
    DOCC [    18 ]
    NA   [    18 ]
    NB   [    18 ]

  @DF-RHF Final Energy: -2572.53373034954393

   => Energetics <=

    Nuclear Repulsion Energy =              0.0000000000000000
    One-Electron Energy =               -3593.6596504995072792
    Two-Electron Energy =                1021.1259201499633491
    Total Energy =                      -2572.5337303495439301

Computation Completed


Properties will be evaluated at   0.000000,   0.000000,   0.000000 [a0]

Properties computed using the SCF density matrix


 Multipole Moments:

 ------------------------------------------------------------------------------------
     Multipole            Electronic (a.u.)      Nuclear  (a.u.)        Total (a.u.)
 ------------------------------------------------------------------------------------

 L = 1.  Multiply by 2.5417464519 to convert [e a0] to [Debye]
 Dipole X            :         -0.0002252            0.0000000           -0.0002252
 Dipole Y            :          0.0000137            0.0000000            0.0000137
 Dipole Z            :         -0.0001258            0.0000000           -0.0001258
 Magnitude           :                                                    0.0002583

 ------------------------------------------------------------------------------------

*** tstop() called on ddmfs1 at Sat Jan 20 09:38:34 2024
Module time:
	user time   =     132.27 seconds =       2.20 minutes
	system time =       7.01 seconds =       0.12 minutes
	total time  =         11 seconds =       0.18 minutes
Total time:
	user time   =     342.83 seconds =       5.71 minutes
	system time =      25.29 seconds =       0.42 minutes
	total time  =         27 seconds =       0.45 minutes

  //>>>>>>>>>>>>>>>>>>>>>>>>>>>>>>>>>>>//
  //            Monomer B HF           //
  //<<<<<<<<<<<<<<<<<<<<<<<<<<<<<<<<<<<//

   => Libint2 <=

    Primary   basis highest AM E, G, H:  5, 4, 3
    Auxiliary basis highest AM E, G, H:  6, 5, 4
    Onebody   basis highest AM E, G, H:  6, 5, 4
    Solid Harmonics ordering:            gaussian

*** tstart() called on ddmfs1
*** at Sat Jan 20 09:38:34 2024

   => Loading Basis Set <=

    Name: AUG-CC-PVTZ
    Role: ORBITAL
    Keyword: BASIS
    atoms 1                            entry BR         line  4208 file /ddmfs1b/softs/psi4conda/share/psi4/basis/aug-cc-pvtz.gbs 
    atoms 2, 5, 8, 11, 14              entry O          line   331 file /ddmfs1b/softs/psi4conda/share/psi4/basis/aug-cc-pvtz.gbs 
    atoms 3-4, 6-7, 9-10, 12-13, 15-16 entry H          line    40 file /ddmfs1b/softs/psi4conda/share/psi4/basis/aug-cc-pvtz.gbs 


         ---------------------------------------------------------
                                   SCF
               by Justin Turney, Rob Parrish, Andy Simmonett
                          and Daniel G. A. Smith
                              RHF Reference
                       20 Threads,  57220 MiB Core
         ---------------------------------------------------------

  ==> Geometry <==

    Molecular point group: c1
    Full point group: C1

    Geometry (in Angstrom), charge = 0, multiplicity = 1:

       Center              X                  Y                   Z               Mass       
    ------------   -----------------  -----------------  -----------------  -----------------
      Gh(BR)          0.000000000000     0.000000000000     0.000000000000    78.918337600000
         O           -0.532809000000     1.922738000000    -2.739100000000    15.994914619570
         H           -0.280531000000     1.490316000000    -1.875736000000     1.007825032230
         H           -0.953311000000     1.232509000000    -3.332771000000     1.007825032230
         O           -1.825040000000     1.989986000000     2.364796000000    15.994914619570
         H           -1.476176000000     1.902850000000     3.256188000000     1.007825032230
         H           -1.117718000000     1.930523000000     1.713505000000     1.007825032230
         O            1.897897000000    -0.527032000000    -2.560802000000    15.994914619570
         H            2.254682000000     0.294757000000    -2.824082000000     1.007825032230
         H            1.284234000000    -0.440483000000    -1.819197000000     1.007825032230
         O           -3.381797000000     0.146011000000    -0.729659000000    15.994914619570
         H           -3.647086000000     0.178508000000     0.207781000000     1.007825032230
         H           -2.420093000000     0.129388000000    -0.713625000000     1.007825032230
         O           -1.303184000000    -2.414765000000    -1.874233000000    15.994914619570
         H           -0.735005000000    -2.478283000000    -2.608129000000     1.007825032230
         H           -1.009543000000    -1.639149000000    -1.422000000000     1.007825032230

  Running in c1 symmetry.

  Rotational constants: A =      0.03206  B =      0.02419  C =      0.02029 [cm^-1]
  Rotational constants: A =    961.08600  B =    725.07312  C =    608.31216 [MHz]
  Nuclear repulsion =  167.291192780864463

  Charge       = 0
  Multiplicity = 1
  Electrons    = 50
  Nalpha       = 25
  Nbeta        = 25

  ==> Algorithm <==

  SCF Algorithm Type is DF.
  DIIS enabled.
  MOM disabled.
  Fractional occupation disabled.
  Guess Type is SAD.
  Energy threshold   = 1.00e-08
  Density threshold  = 1.00e-08
  Integral threshold = 1.00e-12

  ==> Primary Basis <==

  Basis Set: AUG-CC-PVTZ
    Blend: AUG-CC-PVTZ
    Number of shells: 179
    Number of basis functions: 519
    Number of Cartesian functions: 594
    Spherical Harmonics?: true
    Max angular momentum: 3

   => Loading Basis Set <=

    Name: (AUG-CC-PVTZ AUX)
    Role: JKFIT
    Keyword: DF_BASIS_SCF
    atoms 1                            entry BR         line  1492 file /ddmfs1b/softs/psi4conda/share/psi4/basis/aug-cc-pvtz-jkfit.gbs 
    atoms 2, 5, 8, 11, 14              entry O          line   286 file /ddmfs1b/softs/psi4conda/share/psi4/basis/aug-cc-pvtz-jkfit.gbs 
    atoms 3-4, 6-7, 9-10, 12-13, 15-16 entry H          line    70 file /ddmfs1b/softs/psi4conda/share/psi4/basis/aug-cc-pvtz-jkfit.gbs 

  ==> Integral Setup <==

  ==> DiskDFJK: Density-Fitted J/K Matrices <==

    J tasked:                  Yes
    K tasked:                  Yes
    wK tasked:                  No
    OpenMP threads:             20
    Integrals threads:          20
    Memory [MiB]:            42915
    Algorithm:                Core
    Integral Cache:           LOAD
    Schwarz Cutoff:          1E-12
    Fitting Condition:       1E-10

   => Auxiliary Basis Set <=

  Basis Set: (AUG-CC-PVTZ AUX)
    Blend: AUG-CC-PVTZ-JKFIT
    Number of shells: 348
    Number of basis functions: 1228
    Number of Cartesian functions: 1534
    Spherical Harmonics?: true
    Max angular momentum: 4

  Minimum eigenvalue in the overlap matrix is 1.5574434410E-04.
  Reciprocal condition number of the overlap matrix is 1.1785787239E-05.
    Using symmetric orthogonalization.

  ==> Pre-Iterations <==

  SCF Guess: Superposition of Atomic Densities via on-the-fly atomic UHF (no occupation information).

   -------------------------
    Irrep   Nso     Nmo    
   -------------------------
     A        519     519 
   -------------------------
    Total     519     519
   -------------------------

  ==> Iterations <==

                           Total Energy        Delta E     RMS |[F,P]|

   @DF-RHF iter SAD:  -377.43506957178943   -3.77435e+02   0.00000e+00 
   @DF-RHF iter   1:  -379.86311940366170   -2.42805e+00   2.01071e-03 ADIIS/DIIS
   @DF-RHF iter   2:  -380.12499091784980   -2.61872e-01   1.37123e-03 ADIIS/DIIS
   @DF-RHF iter   3:  -380.28225131625368   -1.57260e-01   9.71775e-05 DIIS
   @DF-RHF iter   4:  -380.28439149699318   -2.14018e-03   2.63506e-05 DIIS
   @DF-RHF iter   5:  -380.28453263120196   -1.41134e-04   9.74139e-06 DIIS
   @DF-RHF iter   6:  -380.28454974962688   -1.71184e-05   3.38299e-06 DIIS
   @DF-RHF iter   7:  -380.28455233044434   -2.58082e-06   6.77857e-07 DIIS
   @DF-RHF iter   8:  -380.28455251997593   -1.89532e-07   1.48241e-07 DIIS
   @DF-RHF iter   9:  -380.28455252626770   -6.29177e-09   6.44660e-08 DIIS
   @DF-RHF iter  10:  -380.28455252692970   -6.61998e-10   1.45572e-08 DIIS
   @DF-RHF iter  11:  -380.28455252698689   -5.71845e-11   4.25603e-09 DIIS
  Energy and wave function converged.


  ==> Post-Iterations <==

    Orbital Energies [Eh]
    ---------------------

    Doubly Occupied:                                                      

       1A    -20.592123     2A    -20.585700     3A    -20.583954  
       4A    -20.574473     5A    -20.570255     6A     -1.376079  
       7A     -1.374748     8A     -1.365420     9A     -1.349614  
      10A     -1.348768    11A     -0.760656    12A     -0.745462  
      13A     -0.739960    14A     -0.721786    15A     -0.713623  
      16A     -0.599346    17A     -0.596436    18A     -0.590820  
      19A     -0.586223    20A     -0.582486    21A     -0.534808  
      22A     -0.526813    23A     -0.522958    24A     -0.521969  
      25A     -0.509004  

    Virtual:                                                              

      26A      0.004212    27A      0.027784    28A      0.040480  
      29A      0.041690    30A      0.047841    31A      0.053665  
      32A      0.062219    33A      0.070550    34A      0.077764  
      35A      0.084125    36A      0.092266    37A      0.101520  
      38A      0.102562    39A      0.116560    40A      0.133321  
      41A      0.149684    42A      0.154779    43A      0.157363  
      44A      0.164775    45A      0.169967    46A      0.174904  
      47A      0.180005    48A      0.185141    49A      0.189330  
      50A      0.191199    51A      0.196828    52A      0.203522  
      53A      0.207191    54A      0.218277    55A      0.221138  
      56A      0.224515    57A      0.236972    58A      0.239929  
      59A      0.243399    60A      0.253317    61A      0.261447  
      62A      0.265334    63A      0.265392    64A      0.269533  
      65A      0.274807    66A      0.286820    67A      0.298278  
      68A      0.308611    69A      0.309220    70A      0.322410  
      71A      0.325526    72A      0.328275    73A      0.331077  
      74A      0.340429    75A      0.344811    76A      0.352695  
      77A      0.359900    78A      0.377902    79A      0.389364  
      80A      0.397410    81A      0.400250    82A      0.410655  
      83A      0.411058    84A      0.422179    85A      0.433049  
      86A      0.435334    87A      0.440075    88A      0.447620  
      89A      0.455755    90A      0.457871    91A      0.467545  
      92A      0.477677    93A      0.479876    94A      0.485538  
      95A      0.489045    96A      0.502840    97A      0.515011  
      98A      0.527601    99A      0.537781   100A      0.541972  
     101A      0.555455   102A      0.574356   103A      0.580073  
     104A      0.595456   105A      0.611793   106A      0.616301  
     107A      0.620843   108A      0.628723   109A      0.633276  
     110A      0.662068   111A      0.668002   112A      0.683361  
     113A      0.692212   114A      0.696197   115A      0.705675  
     116A      0.714244   117A      0.723849   118A      0.726400  
     119A      0.733825   120A      0.737276   121A      0.749245  
     122A      0.754204   123A      0.763112   124A      0.773453  
     125A      0.775316   126A      0.782253   127A      0.794411  
     128A      0.799690   129A      0.805327   130A      0.811125  
     131A      0.820274   132A      0.835984   133A      0.840327  
     134A      0.844392   135A      0.856090   136A      0.866681  
     137A      0.870470   138A      0.877509   139A      0.881400  
     140A      0.897263   141A      0.903979   142A      0.910871  
     143A      0.915575   144A      0.919701   145A      0.927244  
     146A      0.932224   147A      0.941578   148A      0.944952  
     149A      0.956786   150A      0.964597   151A      0.971187  
     152A      0.975771   153A      0.983847   154A      0.989721  
     155A      0.995419   156A      1.002977   157A      1.006919  
     158A      1.019764   159A      1.028093   160A      1.033727  
     161A      1.036336   162A      1.043067   163A      1.046558  
     164A      1.053195   165A      1.055696   166A      1.062640  
     167A      1.064693   168A      1.077641   169A      1.085921  
     170A      1.089485   171A      1.101275   172A      1.103863  
     173A      1.117521   174A      1.118307   175A      1.136214  
     176A      1.144834   177A      1.150688   178A      1.154174  
     179A      1.164552   180A      1.179135   181A      1.186335  
     182A      1.193765   183A      1.210016   184A      1.215125  
     185A      1.218150   186A      1.229966   187A      1.233990  
     188A      1.239694   189A      1.250971   190A      1.254892  
     191A      1.261201   192A      1.271114   193A      1.276631  
     194A      1.283221   195A      1.293985   196A      1.303944  
     197A      1.319307   198A      1.328358   199A      1.337711  
     200A      1.343029   201A      1.358624   202A      1.365641  
     203A      1.367458   204A      1.390731   205A      1.402835  
     206A      1.415400   207A      1.442423   208A      1.447061  
     209A      1.454844   210A      1.462139   211A      1.483894  
     212A      1.492163   213A      1.510488   214A      1.530530  
     215A      1.539580   216A      1.554733   217A      1.568264  
     218A      1.573832   219A      1.581063   220A      1.598094  
     221A      1.603424   222A      1.618740   223A      1.628811  
     224A      1.642463   225A      1.645361   226A      1.656712  
     227A      1.666639   228A      1.681159   229A      1.692725  
     230A      1.707486   231A      1.731767   232A      1.734111  
     233A      1.759035   234A      1.770845   235A      1.780178  
     236A      1.794932   237A      1.801920   238A      1.810433  
     239A      1.845188   240A      1.866576   241A      1.869240  
     242A      1.892247   243A      1.924019   244A      1.937897  
     245A      1.955318   246A      1.989173   247A      1.990379  
     248A      2.021473   249A      2.034543   250A      2.038056  
     251A      2.051667   252A      2.059697   253A      2.114248  
     254A      2.119331   255A      2.192757   256A      2.289936  
     257A      2.299549   258A      2.308348   259A      2.340982  
     260A      2.342682   261A      2.362126   262A      2.365231  
     263A      2.379780   264A      2.384500   265A      2.406070  
     266A      2.418180   267A      2.423661   268A      2.429525  
     269A      2.436377   270A      2.444781   271A      2.460073  
     272A      2.462743   273A      2.467914   274A      2.473043  
     275A      2.481565   276A      2.491978   277A      2.504574  
     278A      2.512900   279A      2.524551   280A      2.531006  
     281A      2.539223   282A      2.548500   283A      2.557474  
     284A      2.573185   285A      2.586984   286A      2.600768  
     287A      2.611401   288A      2.633148   289A      2.638899  
     290A      2.659365   291A      2.673087   292A      2.688844  
     293A      2.701878   294A      2.716172   295A      2.741143  
     296A      2.749243   297A      2.756300   298A      2.762787  
     299A      2.772001   300A      2.778802   301A      2.798111  
     302A      2.814963   303A      2.829909   304A      2.838618  
     305A      2.873421   306A      2.875378   307A      2.901198  
     308A      2.907280   309A      2.917732   310A      2.946936  
     311A      2.965536   312A      2.972800   313A      2.981879  
     314A      3.005120   315A      3.020912   316A      3.038331  
     317A      3.058676   318A      3.068504   319A      3.079407  
     320A      3.162164   321A      3.237479   322A      3.301436  
     323A      3.332415   324A      3.354124   325A      3.393174  
     326A      3.433337   327A      3.471268   328A      3.500020  
     329A      3.513949   330A      3.523594   331A      3.539545  
     332A      3.657849   333A      3.678962   334A      3.700688  
     335A      3.710527   336A      3.738284   337A      3.778944  
     338A      3.802805   339A      3.823780   340A      3.850719  
     341A      3.899513   342A      3.969704   343A      4.000777  
     344A      4.021918   345A      4.042818   346A      4.058944  
     347A      4.070979   348A      4.083056   349A      4.137214  
     350A      4.159326   351A      4.202731   352A      4.208744  
     353A      4.217191   354A      4.224840   355A      4.243687  
     356A      4.256046   357A      4.264962   358A      4.271576  
     359A      4.280745   360A      4.294052   361A      4.297340  
     362A      4.306660   363A      4.329200   364A      4.331165  
     365A      4.340837   366A      4.343122   367A      4.377715  
     368A      4.385940   369A      4.394468   370A      4.402914  
     371A      4.410460   372A      4.418541   373A      4.423086  
     374A      4.427335   375A      4.445309   376A      4.455968  
     377A      4.457474   378A      4.471621   379A      4.493191  
     380A      4.500167   381A      4.512582   382A      4.518037  
     383A      4.532124   384A      4.543737   385A      4.547379  
     386A      4.557639   387A      4.565884   388A      4.638499  
     389A      4.672144   390A      4.679911   391A      4.712830  
     392A      4.735559   393A      4.778727   394A      4.806373  
     395A      4.818752   396A      4.833445   397A      4.873065  
     398A      4.932841   399A      4.951642   400A      5.057588  
     401A      5.081323   402A      5.096309   403A      5.118088  
     404A      5.162797   405A      5.165488   406A      5.180347  
     407A      5.192064   408A      5.217666   409A      5.232250  
     410A      5.239320   411A      5.261116   412A      5.304397  
     413A      5.320603   414A      5.338014   415A      5.344846  
     416A      5.362746   417A      5.382107   418A      5.401795  
     419A      5.435208   420A      5.448432   421A      5.478491  
     422A      5.507433   423A      5.552692   424A      5.568146  
     425A      5.612282   426A      5.705905   427A      5.736899  
     428A      5.785321   429A      5.813631   430A      5.864460  
     431A      6.117819   432A      6.150049   433A      6.207437  
     434A      6.252054   435A      6.291504   436A      6.551608  
     437A      6.561557   438A      6.571712   439A      6.582790  
     440A      6.589015   441A      6.738285   442A      6.770456  
     443A      6.783670   444A      6.827773   445A      6.836885  
     446A      6.848605   447A      6.864225   448A      6.883338  
     449A      6.950564   450A      7.025220   451A      7.137612  
     452A      7.145550   453A      7.160802   454A      7.170672  
     455A      7.194847   456A      7.255940   457A      7.277747  
     458A      7.279529   459A      7.286982   460A      7.290753  
     461A      7.305256   462A      7.310369   463A      7.317408  
     464A      7.318216   465A      7.344661   466A      7.351555  
     467A      7.354138   468A      7.368069   469A      7.373576  
     470A      7.390160   471A      7.408411   472A      7.413627  
     473A      7.432498   474A      7.442160   475A      7.454225  
     476A      7.456016   477A      7.494090   478A      7.507997  
     479A      7.510550   480A      7.534270   481A      7.592632  
     482A      7.630643   483A      7.732575   484A      7.818644  
     485A      7.849572   486A      7.863089   487A      7.888850  
     488A      7.923047   489A      7.972701   490A      7.974618  
     491A      7.982380   492A      7.993976   493A      8.035125  
     494A      8.074406   495A      8.107242   496A      8.570271  
     497A      8.746441   498A      8.804210   499A      8.829667  
     500A      8.975153   501A     11.174615   502A     13.765068  
     503A     13.843535   504A     13.967016   505A     15.634099  
     506A     15.940766   507A     16.385971   508A     17.375828  
     509A     17.571100   510A     26.267654   511A     26.294972  
     512A     26.497227   513A     26.534298   514A     26.590399  
     515A     46.599641   516A    138.987832   517A    139.077480  
     518A    139.310300   519A    712.151823  

    Final Occupation by Irrep:
              A 
    DOCC [    25 ]
    NA   [    25 ]
    NB   [    25 ]

  @DF-RHF Final Energy:  -380.28455252698689

   => Energetics <=

    Nuclear Repulsion Energy =            167.2911927808644634
    One-Electron Energy =                -857.2045164810449478
    Two-Electron Energy =                 309.6287711731936270
    Total Energy =                       -380.2845525269868858

Computation Completed


Properties will be evaluated at   0.000000,   0.000000,   0.000000 [a0]

Properties computed using the SCF density matrix


 Multipole Moments:

 ------------------------------------------------------------------------------------
     Multipole            Electronic (a.u.)      Nuclear  (a.u.)        Total (a.u.)
 ------------------------------------------------------------------------------------

 L = 1.  Multiply by 2.5417464519 to convert [e a0] to [Debye]
 Dipole X            :         94.4839906          -93.0879297            1.3960609
 Dipole Y            :        -21.5004689           21.8007121            0.3002431
 Dipole Z            :        102.5517773         -101.5350792            1.0166981
 Magnitude           :                                                    1.7529424

 ------------------------------------------------------------------------------------

*** tstop() called on ddmfs1 at Sat Jan 20 09:38:46 2024
Module time:
	user time   =     161.84 seconds =       2.70 minutes
	system time =       4.70 seconds =       0.08 minutes
	total time  =         12 seconds =       0.20 minutes
Total time:
	user time   =     504.79 seconds =       8.41 minutes
	system time =      29.99 seconds =       0.50 minutes
	total time  =         39 seconds =       0.65 minutes
  Constructing Basis Sets for SAPT...

   => Loading Basis Set <=

    Name: (AUG-CC-PVTZ AUX)
    Role: RIFIT
    Keyword: DF_BASIS_SAPT
    atoms 1                            entry BR         line  1248 file /ddmfs1b/softs/psi4conda/share/psi4/basis/aug-cc-pvtz-ri.gbs 
    atoms 2, 5, 8, 11, 14              entry O          line   264 file /ddmfs1b/softs/psi4conda/share/psi4/basis/aug-cc-pvtz-ri.gbs 
    atoms 3-4, 6-7, 9-10, 12-13, 15-16 entry H          line    30 file /ddmfs1b/softs/psi4conda/share/psi4/basis/aug-cc-pvtz-ri.gbs 

   => Loading Basis Set <=

    Name: (AUG-CC-PVTZ AUX)
    Role: JKFIT
    Keyword: DF_BASIS_ELST
    atoms 1                            entry BR         line  1492 file /ddmfs1b/softs/psi4conda/share/psi4/basis/aug-cc-pvtz-jkfit.gbs 
    atoms 2, 5, 8, 11, 14              entry O          line   286 file /ddmfs1b/softs/psi4conda/share/psi4/basis/aug-cc-pvtz-jkfit.gbs 
    atoms 3-4, 6-7, 9-10, 12-13, 15-16 entry H          line    70 file /ddmfs1b/softs/psi4conda/share/psi4/basis/aug-cc-pvtz-jkfit.gbs 


  //>>>>>>>>>>>>>>>>>>>>>>>>>>>>>>>>>>>//
  //               SAPT2+              //
  //<<<<<<<<<<<<<<<<<<<<<<<<<<<<<<<<<<<//


*** tstart() called on ddmfs1
*** at Sat Jan 20 09:38:46 2024

        SAPT2+  
    Ed Hohenstein
     6 June 2009

      Orbital Information
  --------------------------
    NSO        =       519
    NMO        =       519
    NRI        =      1181
    NOCC A     =        18
    NOCC B     =        25
    FOCC A     =         0
    FOCC B     =         0
    NVIR A     =       501
    NVIR B     =       494

    Estimated memory usage: 6136.5 MB

    Natural Orbital Cutoff:   1.000E-06
    Disp(T3) Truncation:            Yes
    CCD (vv|vv) Truncation:         Yes
    MBPT T2 Truncation:             Yes

    Monomer A: 407 virtual orbitals dropped
    Monomer B: 96 virtual orbitals dropped

    Elst10,r            =    -0.098129491443 [Eh]
    Exch10 (S^2)        =     0.069502005756 [Eh]
    Exch10              =     0.070521106992 [Eh]
    Ind20,r (A<-B)      =    -0.038298353444 [Eh]
    Ind20,r (B<-A)      =    -0.022389045576 [Eh]
    Ind20,r             =    -0.060687399020 [Eh]
    Exch-Ind20,r (A<-B) =     0.027595753149 [Eh]
    Exch-Ind20,r (B<-A) =     0.009859147831 [Eh]
    Exch-Ind20,r        =     0.037454900979 [Eh]
    Disp20              =    -0.031954872802 [Eh]
    Disp20 (NO)         =    -0.027979231022 [Eh]
    Exch-Disp20         =     0.007414142114 [Eh]
    Elst12,r            =    -0.000201081375 [Eh]
    Exch11              =     0.003333487838 [Eh]
    Exch12              =     0.005579702452 [Eh]
    Ind22               =    -0.008531833873 [Eh]
    Disp21              =     0.002344673913 [Eh]
    Disp22 (SDQ)        =    -0.000110323243 [Eh]

    (i =   1 of  25)         13 seconds
    (i =   2 of  25)         26 seconds
    (i =   3 of  25)         39 seconds
    (i =   4 of  25)         52 seconds
    (i =   5 of  25)         65 seconds
    (i =   6 of  25)         79 seconds
    (i =   7 of  25)         92 seconds
    (i =   8 of  25)        105 seconds
    (i =   9 of  25)        118 seconds
    (i =  10 of  25)        131 seconds
    (i =  11 of  25)        144 seconds
    (i =  12 of  25)        157 seconds
    (i =  13 of  25)        171 seconds
    (i =  14 of  25)        184 seconds
    (i =  15 of  25)        197 seconds
    (i =  16 of  25)        210 seconds
    (i =  17 of  25)        223 seconds
    (i =  18 of  25)        236 seconds
    (i =  19 of  25)        249 seconds
    (i =  20 of  25)        263 seconds
    (i =  21 of  25)        276 seconds
    (i =  22 of  25)        289 seconds
    (i =  23 of  25)        302 seconds
    (i =  24 of  25)        315 seconds
    (i =  25 of  25)        328 seconds

    Disp220 (T)         =    -0.002140632355 [Eh]

    (i =   1 of  18)        204 seconds
    (i =   2 of  18)        408 seconds
    (i =   3 of  18)        612 seconds
    (i =   4 of  18)        816 seconds
    (i =   5 of  18)       1020 seconds
    (i =   6 of  18)       1223 seconds
    (i =   7 of  18)       1427 seconds
    (i =   8 of  18)       1631 seconds
    (i =   9 of  18)       1835 seconds
    (i =  10 of  18)       2039 seconds
    (i =  11 of  18)       2243 seconds
    (i =  12 of  18)       2447 seconds
    (i =  13 of  18)       2650 seconds
    (i =  14 of  18)       2854 seconds
    (i =  15 of  18)       3058 seconds
    (i =  16 of  18)       3263 seconds
    (i =  17 of  18)       3467 seconds
    (i =  18 of  18)       3672 seconds

    Disp202 (T)         =    -0.002949727100 [Eh]

    Disp22 (T)          =    -0.005090359455 [Eh]

    Est. Disp220 (T)    =    -0.002444800380 [Eh]
    Est. Disp202 (T)    =    -0.003368861503 [Eh]

    Est. Disp22 (T)     =    -0.005813661882 [Eh]

    SAPT Results 
  --------------------------------------------------------------------------------------------------------
    Electrostatics                -98.33057282 [mEh]     -61.70336601 [kcal/mol]    -258.16688337 [kJ/mol]
      Elst10,r                    -98.12949144 [mEh]     -61.57718554 [kcal/mol]    -257.63894429 [kJ/mol]
      Elst12,r                     -0.20108137 [mEh]      -0.12618047 [kcal/mol]      -0.52793908 [kJ/mol]

    Exchange                       79.43429728 [mEh]      49.84577409 [kcal/mol]     208.55471878 [kJ/mol]
      Exch10                       70.52110699 [mEh]      44.25266274 [kcal/mol]     185.15314090 [kJ/mol]
      Exch10(S^2)                  69.50200576 [mEh]      43.61316706 [kcal/mol]     182.47749097 [kJ/mol]
      Exch11(S^2)                   3.33348784 [mEh]       2.09179520 [kcal/mol]       8.75207111 [kJ/mol]
      Exch12(S^2)                   5.57970245 [mEh]       3.50131615 [kcal/mol]      14.64950677 [kJ/mol]

    Induction                     -35.86333334 [mEh]     -22.50458143 [kcal/mol]     -94.15916872 [kJ/mol]
      Ind20,r                     -60.68739902 [mEh]     -38.08191782 [kcal/mol]    -159.33474417 [kJ/mol]
      Ind22                        -8.53183387 [mEh]      -5.35380658 [kcal/mol]     -22.40032675 [kJ/mol]
      Exch-Ind20,r                 37.45490098 [mEh]      23.50330520 [kcal/mol]      98.33782897 [kJ/mol]
      Exch-Ind22                    5.26565643 [mEh]       3.30424930 [kcal/mol]      13.82497905 [kJ/mol]
      delta HF,r (2)               -9.36465786 [mEh]      -5.87641153 [kcal/mol]     -24.58690583 [kJ/mol]

    Dispersion                    -28.12004190 [mEh]     -17.64559270 [kcal/mol]     -73.82915984 [kJ/mol]
      Disp20                      -31.95487280 [mEh]     -20.05198542 [kcal/mol]     -83.89750698 [kJ/mol]
      Disp21                        2.34467391 [mEh]       1.47130509 [kcal/mol]       6.15594051 [kJ/mol]
      Disp22 (SDQ)                 -0.11032324 [mEh]      -0.06922888 [kcal/mol]      -0.28965364 [kJ/mol]
      Disp22 (T)                   -5.09035945 [mEh]      -3.19424878 [kcal/mol]     -13.36473691 [kJ/mol]
      Est. Disp22 (T)              -5.81366188 [mEh]      -3.64812791 [kcal/mol]     -15.26376717 [kJ/mol]
      Exch-Disp20                   7.41414211 [mEh]       4.65244442 [kcal/mol]      19.46582744 [kJ/mol]

  Total HF                        -60.20554035 [mEh]     -37.77954694 [kcal/mol]    -158.06962442 [kJ/mol]
  Total SAPT0                     -84.74627104 [mEh]     -53.17908795 [kcal/mol]    -222.50130396 [kJ/mol]
  Total SAPT2                     -79.30033957 [mEh]     -49.76171435 [kcal/mol]    -208.20301285 [kJ/mol]
  Total SAPT2+                    -82.87965078 [mEh]     -52.00776605 [kcal/mol]    -217.60049314 [kJ/mol]

  Special recipe for scaled SAPT0 (see Manual):
    Electrostatics sSAPT0         -98.12949144 [mEh]     -61.57718554 [kcal/mol]    -257.63894429 [kJ/mol]
    Exchange sSAPT0                70.52110699 [mEh]      44.25266274 [kcal/mol]     185.15314090 [kJ/mol]
    Induction sSAPT0              -30.92528648 [mEh]     -19.40591024 [kcal/mol]     -81.19432846 [kJ/mol]
    Dispersion sSAPT0             -24.20978661 [mEh]     -15.19187046 [kcal/mol]     -63.56278600 [kJ/mol]
  Total sSAPT0                    -82.74345754 [mEh]     -51.92230350 [kcal/mol]    -217.24291785 [kJ/mol]
  --------------------------------------------------------------------------------------------------------

*** tstop() called on ddmfs1 at Sat Jan 20 10:53:56 2024
Module time:
	user time   =   22933.40 seconds =     382.22 minutes
	system time =     273.99 seconds =       4.57 minutes
	total time  =       4510 seconds =      75.17 minutes
Total time:
	user time   =   23440.95 seconds =     390.68 minutes
	system time =     304.10 seconds =       5.07 minutes
	total time  =       4549 seconds =      75.82 minutes

    Psi4 stopped on: Saturday, 20 January 2024 10:53AM
    Psi4 wall time for execution: 1:15:49.62

*** Psi4 exiting successfully. Buy a developer a beer!
