
    -----------------------------------------------------------------------
          Psi4: An Open-Source Ab Initio Electronic Structure Package
                               Psi4 1.8.2 release

                         Git: Rev {} zzzzzzz 


    D. G. A. Smith, L. A. Burns, A. C. Simmonett, R. M. Parrish,
    M. C. Schieber, R. Galvelis, P. Kraus, H. Kruse, R. Di Remigio,
    A. Alenaizan, A. M. James, S. Lehtola, J. P. Misiewicz, M. Scheurer,
    R. A. Shaw, J. B. Schriber, Y. Xie, Z. L. Glick, D. A. Sirianni,
    J. S. O'Brien, J. M. Waldrop, A. Kumar, E. G. Hohenstein,
    B. P. Pritchard, B. R. Brooks, H. F. Schaefer III, A. Yu. Sokolov,
    K. Patkowski, A. E. DePrince III, U. Bozkaya, R. A. King,
    F. A. Evangelista, J. M. Turney, T. D. Crawford, C. D. Sherrill,
    J. Chem. Phys. 152(18) 184108 (2020). https://doi.org/10.1063/5.0006002

                            Additional Code Authors
    E. T. Seidl, C. L. Janssen, E. F. Valeev, M. L. Leininger,
    J. F. Gonthier, R. M. Richard, H. R. McAlexander, M. Saitow, X. Wang,
    P. Verma, M. H. Lechner, A. Jiang, S. Behnle, A. G. Heide,
    M. F. Herbst, and D. L. Poole

             Previous Authors, Complete List of Code Contributors,
                       and Citations for Specific Modules
    https://github.com/psi4/psi4/blob/master/codemeta.json
    https://github.com/psi4/psi4/graphs/contributors
    http://psicode.org/psi4manual/master/introduction.html#citing-psifour

    -----------------------------------------------------------------------


    Psi4 started on: Monday, 15 January 2024 01:46PM

    Process ID: 290790
    Host:       ddmfs1
    PSIDATADIR: /ddmfs1b/softs/psi4conda/share/psi4
    Memory:     500.0 MiB
    Threads:    20
    
  ==> Input File <==

--------------------------------------------------------------------------
MEMORY 60 GB

molecule dimer {
-1 1
Br     0.000000     0.000000     0.000000
--
0 1
O      1.521234     1.209788    -2.685367
H      2.096141     0.409973    -2.642532
H      1.413599     1.432485    -3.599181
O      2.137029    -0.858665     2.437340
H      1.531524    -0.762129     1.688950
H      1.596637    -0.978037     3.206662
O      1.238938     1.972390     2.398987
H      0.860966     1.485662     1.615154
H      1.150578     1.320561     3.162309
O      0.117012    -3.331974     0.636691
H      0.665240    -3.509200     1.434153
H      0.025395    -2.338891     0.576819
O     -1.361959    -0.368772     3.303538
H     -0.708171    -0.442974     3.989043
H     -0.893664    -0.189371     2.459854
O     -1.248477     2.143362    -2.447598
H     -0.346353     1.847909    -2.331410
H     -1.185038     2.892626    -1.867573

units ang
no_reorient
no_com
symmetry c1
}

set {
basis        aug-cc-pVTZ
scf_type     df
}

energy("sapt2+")
--------------------------------------------------------------------------

  Memory set to  55.879 GiB by Python driver.

Scratch directory: /ddmfs1a/scratch/
   => Loading Basis Set <=

    Name: AUG-CC-PVTZ
    Role: ORBITAL
    Keyword: BASIS
    atoms 1                                   entry BR         line  4208 file /ddmfs1b/softs/psi4conda/share/psi4/basis/aug-cc-pvtz.gbs 
    atoms 2, 5, 8, 11, 14, 17                 entry O          line   331 file /ddmfs1b/softs/psi4conda/share/psi4/basis/aug-cc-pvtz.gbs 
    atoms 3-4, 6-7, 9-10, 12-13, 15-16, 18-19 entry H          line    40 file /ddmfs1b/softs/psi4conda/share/psi4/basis/aug-cc-pvtz.gbs 

   => Loading Basis Set <=

    Name: AUG-CC-PVTZ
    Role: ORBITAL
    Keyword: BASIS
    atoms 1                                   entry BR         line  4208 file /ddmfs1b/softs/psi4conda/share/psi4/basis/aug-cc-pvtz.gbs 
    atoms 2, 5, 8, 11, 14, 17                 entry O          line   331 file /ddmfs1b/softs/psi4conda/share/psi4/basis/aug-cc-pvtz.gbs 
    atoms 3-4, 6-7, 9-10, 12-13, 15-16, 18-19 entry H          line    40 file /ddmfs1b/softs/psi4conda/share/psi4/basis/aug-cc-pvtz.gbs 


  //>>>>>>>>>>>>>>>>>>>>>>>>>>>>>>>>>>>//
  //              Dimer HF             //
  //<<<<<<<<<<<<<<<<<<<<<<<<<<<<<<<<<<<//

   => Libint2 <=

    Primary   basis highest AM E, G, H:  5, 4, 3
    Auxiliary basis highest AM E, G, H:  6, 5, 4
    Onebody   basis highest AM E, G, H:  6, 5, 4
    Solid Harmonics ordering:            gaussian

*** tstart() called on ddmfs1
*** at Mon Jan 15 13:46:58 2024

   => Loading Basis Set <=

    Name: AUG-CC-PVTZ
    Role: ORBITAL
    Keyword: BASIS
    atoms 1                                   entry BR         line  4208 file /ddmfs1b/softs/psi4conda/share/psi4/basis/aug-cc-pvtz.gbs 
    atoms 2, 5, 8, 11, 14, 17                 entry O          line   331 file /ddmfs1b/softs/psi4conda/share/psi4/basis/aug-cc-pvtz.gbs 
    atoms 3-4, 6-7, 9-10, 12-13, 15-16, 18-19 entry H          line    40 file /ddmfs1b/softs/psi4conda/share/psi4/basis/aug-cc-pvtz.gbs 


         ---------------------------------------------------------
                                   SCF
               by Justin Turney, Rob Parrish, Andy Simmonett
                          and Daniel G. A. Smith
                              RHF Reference
                       20 Threads,  57220 MiB Core
         ---------------------------------------------------------

  ==> Geometry <==

    Molecular point group: c1
    Full point group: C1

    Geometry (in Angstrom), charge = -1, multiplicity = 1:

       Center              X                  Y                   Z               Mass       
    ------------   -----------------  -----------------  -----------------  -----------------
         BR           0.000000000000     0.000000000000     0.000000000000    78.918337600000
         O            1.521234000000     1.209788000000    -2.685367000000    15.994914619570
         H            2.096141000000     0.409973000000    -2.642532000000     1.007825032230
         H            1.413599000000     1.432485000000    -3.599181000000     1.007825032230
         O            2.137029000000    -0.858665000000     2.437340000000    15.994914619570
         H            1.531524000000    -0.762129000000     1.688950000000     1.007825032230
         H            1.596637000000    -0.978037000000     3.206662000000     1.007825032230
         O            1.238938000000     1.972390000000     2.398987000000    15.994914619570
         H            0.860966000000     1.485662000000     1.615154000000     1.007825032230
         H            1.150578000000     1.320561000000     3.162309000000     1.007825032230
         O            0.117012000000    -3.331974000000     0.636691000000    15.994914619570
         H            0.665240000000    -3.509200000000     1.434153000000     1.007825032230
         H            0.025395000000    -2.338891000000     0.576819000000     1.007825032230
         O           -1.361959000000    -0.368772000000     3.303538000000    15.994914619570
         H           -0.708171000000    -0.442974000000     3.989043000000     1.007825032230
         H           -0.893664000000    -0.189371000000     2.459854000000     1.007825032230
         O           -1.248477000000     2.143362000000    -2.447598000000    15.994914619570
         H           -0.346353000000     1.847909000000    -2.331410000000     1.007825032230
         H           -1.185038000000     2.892626000000    -1.867573000000     1.007825032230

  Running in c1 symmetry.

  Rotational constants: A =      0.03308  B =      0.01784  C =      0.01601 [cm^-1]
  Rotational constants: A =    991.81571  B =    534.97395  C =    480.04782 [MHz]
  Nuclear repulsion =  562.162116020870258

  Charge       = -1
  Multiplicity = 1
  Electrons    = 96
  Nalpha       = 48
  Nbeta        = 48

  ==> Algorithm <==

  SCF Algorithm Type is DF.
  DIIS enabled.
  MOM disabled.
  Fractional occupation disabled.
  Guess Type is SAD.
  Energy threshold   = 1.00e-08
  Density threshold  = 1.00e-08
  Integral threshold = 1.00e-12

  ==> Primary Basis <==

  Basis Set: AUG-CC-PVTZ
    Blend: AUG-CC-PVTZ
    Number of shells: 211
    Number of basis functions: 611
    Number of Cartesian functions: 699
    Spherical Harmonics?: true
    Max angular momentum: 3

   => Loading Basis Set <=

    Name: (AUG-CC-PVTZ AUX)
    Role: JKFIT
    Keyword: DF_BASIS_SCF
    atoms 1                                   entry BR         line  1492 file /ddmfs1b/softs/psi4conda/share/psi4/basis/aug-cc-pvtz-jkfit.gbs 
    atoms 2, 5, 8, 11, 14, 17                 entry O          line   286 file /ddmfs1b/softs/psi4conda/share/psi4/basis/aug-cc-pvtz-jkfit.gbs 
    atoms 3-4, 6-7, 9-10, 12-13, 15-16, 18-19 entry H          line    70 file /ddmfs1b/softs/psi4conda/share/psi4/basis/aug-cc-pvtz-jkfit.gbs 

  ==> Integral Setup <==

  ==> DiskDFJK: Density-Fitted J/K Matrices <==

    J tasked:                  Yes
    K tasked:                  Yes
    wK tasked:                  No
    OpenMP threads:             20
    Integrals threads:          20
    Memory [MiB]:            42915
    Algorithm:                Core
    Integral Cache:           SAVE
    Schwarz Cutoff:          1E-12
    Fitting Condition:       1E-10

   => Auxiliary Basis Set <=

  Basis Set: (AUG-CC-PVTZ AUX)
    Blend: AUG-CC-PVTZ-JKFIT
    Number of shells: 406
    Number of basis functions: 1424
    Number of Cartesian functions: 1775
    Spherical Harmonics?: true
    Max angular momentum: 4

  Minimum eigenvalue in the overlap matrix is 1.0244415032E-04.
  Reciprocal condition number of the overlap matrix is 7.0712510710E-06.
    Using symmetric orthogonalization.

  ==> Pre-Iterations <==

  SCF Guess: Superposition of Atomic Densities via on-the-fly atomic UHF (no occupation information).

   -------------------------
    Irrep   Nso     Nmo    
   -------------------------
     A        611     611 
   -------------------------
    Total     611     611
   -------------------------

  ==> Iterations <==

                           Total Energy        Delta E     RMS |[F,P]|

   @DF-RHF iter SAD: -3023.72561752077763   -3.02373e+03   0.00000e+00 
   @DF-RHF iter   1: -3028.22130223625982   -4.49568e+00   2.49621e-03 DIIS/ADIIS
   @DF-RHF iter   2: -3028.69107398980805   -4.69772e-01   1.50476e-03 DIIS/ADIIS
   @DF-RHF iter   3: -3028.91333973733754   -2.22266e-01   1.22742e-04 DIIS/ADIIS
   @DF-RHF iter   4: -3028.91637492367909   -3.03519e-03   5.88296e-05 DIIS
   @DF-RHF iter   5: -3028.91695725253339   -5.82329e-04   9.36148e-06 DIIS
   @DF-RHF iter   6: -3028.91699623781096   -3.89853e-05   2.93116e-06 DIIS
   @DF-RHF iter   7: -3028.91699947450479   -3.23669e-06   1.25003e-06 DIIS
   @DF-RHF iter   8: -3028.91699993332986   -4.58825e-07   3.18223e-07 DIIS
   @DF-RHF iter   9: -3028.91699997879141   -4.54615e-08   7.00940e-08 DIIS
   @DF-RHF iter  10: -3028.91699998082004   -2.02863e-09   2.24758e-08 DIIS
   @DF-RHF iter  11: -3028.91699998100330   -1.83263e-10   6.63477e-09 DIIS
  Energy and wave function converged.


  ==> Post-Iterations <==

    Orbital Energies [Eh]
    ---------------------

    Doubly Occupied:                                                      

       1A   -489.786939     2A    -64.927447     3A    -58.281928  
       4A    -58.281924     5A    -58.281895     6A    -20.466358  
       7A    -20.441019     8A    -20.432332     9A    -20.421663  
      10A    -20.420360    11A    -20.414158    12A     -9.599837  
      13A     -7.207436    14A     -7.207375    15A     -7.207089  
      16A     -2.949121    17A     -2.949105    18A     -2.948777  
      19A     -2.948723    20A     -2.948632    21A     -1.249771  
      22A     -1.225661    23A     -1.222784    24A     -1.216738  
      25A     -1.187763    26A     -1.176640    27A     -0.768143  
      28A     -0.620511    29A     -0.596729    30A     -0.592798  
      31A     -0.562044    32A     -0.555847    33A     -0.540402  
      34A     -0.485021    35A     -0.466693    36A     -0.454383  
      37A     -0.448298    38A     -0.434404    39A     -0.427849  
      40A     -0.408776    41A     -0.385852    42A     -0.381060  
      43A     -0.369853    44A     -0.359573    45A     -0.346619  
      46A     -0.215766    47A     -0.214964    48A     -0.210617  

    Virtual:                                                              

      49A      0.107570    50A      0.113494    51A      0.128184  
      52A      0.134304    53A      0.139519    54A      0.142619  
      55A      0.152528    56A      0.163414    57A      0.171896  
      58A      0.176306    59A      0.178797    60A      0.189951  
      61A      0.224171    62A      0.232749    63A      0.239890  
      64A      0.256433    65A      0.260671    66A      0.263564  
      67A      0.267641    68A      0.277111    69A      0.282410  
      70A      0.287461    71A      0.290175    72A      0.295355  
      73A      0.299377    74A      0.308871    75A      0.309447  
      76A      0.312705    77A      0.321106    78A      0.324695  
      79A      0.329310    80A      0.337096    81A      0.339320  
      82A      0.341251    83A      0.349594    84A      0.354961  
      85A      0.356430    86A      0.359518    87A      0.369218  
      88A      0.373756    89A      0.377642    90A      0.387021  
      91A      0.397648    92A      0.401659    93A      0.417637  
      94A      0.423709    95A      0.427290    96A      0.431371  
      97A      0.432937    98A      0.447452    99A      0.462186  
     100A      0.468154   101A      0.471850   102A      0.474458  
     103A      0.478753   104A      0.488527   105A      0.488982  
     106A      0.493562   107A      0.497426   108A      0.499722  
     109A      0.510496   110A      0.518312   111A      0.524395  
     112A      0.538580   113A      0.540028   114A      0.547998  
     115A      0.549836   116A      0.556970   117A      0.558119  
     118A      0.567951   119A      0.572590   120A      0.577955  
     121A      0.581967   122A      0.589357   123A      0.598003  
     124A      0.606395   125A      0.612059   126A      0.618036  
     127A      0.626320   128A      0.633141   129A      0.640207  
     130A      0.649389   131A      0.651410   132A      0.664743  
     133A      0.669777   134A      0.684957   135A      0.690957  
     136A      0.697502   137A      0.720042   138A      0.724345  
     139A      0.734681   140A      0.743303   141A      0.762854  
     142A      0.769289   143A      0.785716   144A      0.791991  
     145A      0.793652   146A      0.804952   147A      0.807985  
     148A      0.817098   149A      0.824652   150A      0.836791  
     151A      0.851957   152A      0.861445   153A      0.864791  
     154A      0.871236   155A      0.874343   156A      0.881150  
     157A      0.886367   158A      0.887081   159A      0.897999  
     160A      0.905976   161A      0.911135   162A      0.916110  
     163A      0.918656   164A      0.922037   165A      0.928988  
     166A      0.938390   167A      0.942016   168A      0.954610  
     169A      0.958122   170A      0.963175   171A      0.973644  
     172A      0.979027   173A      0.989411   174A      0.998788  
     175A      1.003489   176A      1.005636   177A      1.011827  
     178A      1.018941   179A      1.027813   180A      1.041182  
     181A      1.045305   182A      1.047458   183A      1.055899  
     184A      1.059617   185A      1.061300   186A      1.066806  
     187A      1.068718   188A      1.078466   189A      1.082780  
     190A      1.094283   191A      1.098618   192A      1.104722  
     193A      1.112545   194A      1.125327   195A      1.129902  
     196A      1.134739   197A      1.141970   198A      1.147013  
     199A      1.149935   200A      1.151207   201A      1.158355  
     202A      1.168341   203A      1.171754   204A      1.177575  
     205A      1.180758   206A      1.187521   207A      1.194256  
     208A      1.197489   209A      1.206242   210A      1.214131  
     211A      1.216432   212A      1.224405   213A      1.227061  
     214A      1.235312   215A      1.240736   216A      1.253198  
     217A      1.256838   218A      1.258564   219A      1.266888  
     220A      1.270994   221A      1.281367   222A      1.287270  
     223A      1.293430   224A      1.298228   225A      1.302446  
     226A      1.320929   227A      1.323910   228A      1.335221  
     229A      1.338269   230A      1.346691   231A      1.350976  
     232A      1.362791   233A      1.369176   234A      1.375406  
     235A      1.387281   236A      1.395858   237A      1.412458  
     238A      1.415651   239A      1.422937   240A      1.429197  
     241A      1.436886   242A      1.441032   243A      1.453680  
     244A      1.461275   245A      1.466857   246A      1.475138  
     247A      1.491688   248A      1.493422   249A      1.503703  
     250A      1.513806   251A      1.524561   252A      1.536532  
     253A      1.542859   254A      1.547851   255A      1.554463  
     256A      1.562624   257A      1.577745   258A      1.584556  
     259A      1.588606   260A      1.612717   261A      1.621806  
     262A      1.643267   263A      1.646387   264A      1.653373  
     265A      1.667704   266A      1.674856   267A      1.679565  
     268A      1.692934   269A      1.696756   270A      1.706709  
     271A      1.719480   272A      1.721007   273A      1.732524  
     274A      1.737648   275A      1.752468   276A      1.760239  
     277A      1.766382   278A      1.779102   279A      1.790348  
     280A      1.799466   281A      1.816999   282A      1.823311  
     283A      1.827606   284A      1.835567   285A      1.846619  
     286A      1.869559   287A      1.877463   288A      1.880959  
     289A      1.918758   290A      1.933498   291A      1.944347  
     292A      1.954162   293A      1.974992   294A      2.005474  
     295A      2.011903   296A      2.022933   297A      2.031993  
     298A      2.054202   299A      2.065971   300A      2.079998  
     301A      2.091007   302A      2.109145   303A      2.113409  
     304A      2.129370   305A      2.133285   306A      2.143642  
     307A      2.163914   308A      2.165290   309A      2.200711  
     310A      2.219094   311A      2.247195   312A      2.271854  
     313A      2.304177   314A      2.325352   315A      2.434249  
     316A      2.442945   317A      2.448276   318A      2.463055  
     319A      2.468270   320A      2.479330   321A      2.482022  
     322A      2.498107   323A      2.505804   324A      2.518872  
     325A      2.528757   326A      2.547903   327A      2.560473  
     328A      2.566725   329A      2.569610   330A      2.577380  
     331A      2.581624   332A      2.596763   333A      2.607494  
     334A      2.608631   335A      2.615898   336A      2.625116  
     337A      2.631842   338A      2.636939   339A      2.644283  
     340A      2.646133   341A      2.655047   342A      2.660013  
     343A      2.672244   344A      2.675153   345A      2.690365  
     346A      2.701496   347A      2.703215   348A      2.705931  
     349A      2.721741   350A      2.731734   351A      2.740755  
     352A      2.742026   353A      2.747916   354A      2.761254  
     355A      2.769244   356A      2.773318   357A      2.783366  
     358A      2.792997   359A      2.802537   360A      2.820629  
     361A      2.828531   362A      2.841709   363A      2.844363  
     364A      2.858946   365A      2.862378   366A      2.873007  
     367A      2.877934   368A      2.890198   369A      2.900755  
     370A      2.909749   371A      2.917708   372A      2.929509  
     373A      2.933949   374A      2.941254   375A      2.961549  
     376A      2.965784   377A      2.979059   378A      2.986582  
     379A      3.001259   380A      3.003880   381A      3.026851  
     382A      3.030334   383A      3.043759   384A      3.052637  
     385A      3.059684   386A      3.074720   387A      3.080010  
     388A      3.087630   389A      3.101921   390A      3.111258  
     391A      3.132934   392A      3.139007   393A      3.161416  
     394A      3.168519   395A      3.179139   396A      3.188042  
     397A      3.217119   398A      3.227253   399A      3.247992  
     400A      3.274067   401A      3.287109   402A      3.312484  
     403A      3.319354   404A      3.344629   405A      3.360732  
     406A      3.423028   407A      3.853645   408A      3.891195  
     409A      3.909694   410A      3.924835   411A      3.930938  
     412A      3.987343   413A      3.997245   414A      4.077002  
     415A      4.094560   416A      4.114230   417A      4.141499  
     418A      4.183654   419A      4.209010   420A      4.243638  
     421A      4.250729   422A      4.288607   423A      4.293268  
     424A      4.315173   425A      4.323376   426A      4.348393  
     427A      4.370322   428A      4.384262   429A      4.392005  
     430A      4.402308   431A      4.403463   432A      4.410036  
     433A      4.414665   434A      4.420543   435A      4.429870  
     436A      4.433872   437A      4.441458   438A      4.453356  
     439A      4.461853   440A      4.473321   441A      4.473750  
     442A      4.496323   443A      4.508005   444A      4.510089  
     445A      4.518044   446A      4.530623   447A      4.532368  
     448A      4.556700   449A      4.564669   450A      4.571671  
     451A      4.583393   452A      4.598833   453A      4.615024  
     454A      4.616527   455A      4.621244   456A      4.632544  
     457A      4.640158   458A      4.652263   459A      4.661702  
     460A      4.668867   461A      4.714497   462A      4.721363  
     463A      4.728395   464A      4.740048   465A      4.751248  
     466A      4.756481   467A      4.773615   468A      4.803207  
     469A      4.822547   470A      4.841802   471A      4.854085  
     472A      4.902967   473A      4.910972   474A      4.921789  
     475A      4.954874   476A      4.965536   477A      4.980838  
     478A      5.013489   479A      5.034696   480A      5.046749  
     481A      5.073905   482A      5.126465   483A      5.149764  
     484A      5.167435   485A      5.245994   486A      5.249663  
     487A      5.255281   488A      5.259900   489A      5.296295  
     490A      5.298732   491A      5.321140   492A      5.349401  
     493A      5.360988   494A      5.375114   495A      5.388246  
     496A      5.429636   497A      5.436612   498A      5.442702  
     499A      5.464091   500A      5.473479   501A      5.476037  
     502A      5.491841   503A      5.500222   504A      5.540666  
     505A      5.569670   506A      5.575891   507A      5.589153  
     508A      5.596377   509A      5.604935   510A      5.638653  
     511A      5.651479   512A      5.656638   513A      5.746693  
     514A      5.781499   515A      5.816201   516A      5.862630  
     517A      5.875063   518A      5.923033   519A      5.929612  
     520A      5.973826   521A      6.116630   522A      6.350071  
     523A      6.368040   524A      6.370849   525A      6.444120  
     526A      6.463117   527A      6.494909   528A      6.678145  
     529A      6.720729   530A      6.730891   531A      6.737055  
     532A      6.750139   533A      6.760544   534A      6.913714  
     535A      6.934584   536A      6.945964   537A      6.964598  
     538A      6.977552   539A      6.997086   540A      7.016467  
     541A      7.048294   542A      7.058742   543A      7.090116  
     544A      7.138248   545A      7.248935   546A      7.283505  
     547A      7.285730   548A      7.334668   549A      7.345630  
     550A      7.367868   551A      7.379864   552A      7.393428  
     553A      7.402926   554A      7.407034   555A      7.424968  
     556A      7.439388   557A      7.450559   558A      7.458871  
     559A      7.478192   560A      7.479807   561A      7.483589  
     562A      7.492860   563A      7.494898   564A      7.497269  
     565A      7.507205   566A      7.508958   567A      7.523915  
     568A      7.528443   569A      7.531031   570A      7.544750  
     571A      7.566362   572A      7.578006   573A      7.593445  
     574A      7.599455   575A      7.617201   576A      7.624668  
     577A      7.630927   578A      7.638901   579A      7.642108  
     580A      7.688816   581A      7.709177   582A      7.817438  
     583A      7.839207   584A      7.858086   585A      7.882051  
     586A      7.935548   587A      7.963043   588A      8.010655  
     589A      8.049201   590A      8.053640   591A      8.081279  
     592A      8.099537   593A      8.114288   594A      8.138651  
     595A      8.151557   596A      8.161015   597A      8.174993  
     598A      8.193817   599A      8.237457   600A      8.781066  
     601A      8.810612   602A      8.911539   603A      8.937834  
     604A      8.995967   605A      9.135169   606A     15.675232  
     607A     15.869074   608A     15.973632   609A     16.587232  
     610A     17.243299   611A     17.328752  

    Final Occupation by Irrep:
              A 
    DOCC [    48 ]
    NA   [    48 ]
    NB   [    48 ]

  @DF-RHF Final Energy: -3028.91699998100330

   => Energetics <=

    Nuclear Repulsion Energy =            562.1621160208702577
    One-Electron Energy =               -5351.6628662178773084
    Two-Electron Energy =                1760.5837502160034092
    Total Energy =                      -3028.9169999810033005

Computation Completed


Properties will be evaluated at   0.000000,   0.000000,   0.000000 [a0]

Properties computed using the SCF density matrix


 Multipole Moments:

 ------------------------------------------------------------------------------------
     Multipole            Electronic (a.u.)      Nuclear  (a.u.)        Total (a.u.)
 ------------------------------------------------------------------------------------

 L = 1.  Multiply by 2.5417464519 to convert [e a0] to [Debye]
 Dipole X            :        -47.3481462           48.0690957            0.7209495
 Dipole Y            :        -13.8305171           13.7905523           -0.0399648
 Dipole Z            :        -70.4525904           69.6193548           -0.8332356
 Magnitude           :                                                    1.1025638

 ------------------------------------------------------------------------------------

*** tstop() called on ddmfs1 at Mon Jan 15 13:47:21 2024
Module time:
	user time   =     316.19 seconds =       5.27 minutes
	system time =      24.45 seconds =       0.41 minutes
	total time  =         23 seconds =       0.38 minutes
Total time:
	user time   =     316.19 seconds =       5.27 minutes
	system time =      24.45 seconds =       0.41 minutes
	total time  =         23 seconds =       0.38 minutes

  //>>>>>>>>>>>>>>>>>>>>>>>>>>>>>>>>>>>//
  //            Monomer A HF           //
  //<<<<<<<<<<<<<<<<<<<<<<<<<<<<<<<<<<<//

   => Libint2 <=

    Primary   basis highest AM E, G, H:  5, 4, 3
    Auxiliary basis highest AM E, G, H:  6, 5, 4
    Onebody   basis highest AM E, G, H:  6, 5, 4
    Solid Harmonics ordering:            gaussian

*** tstart() called on ddmfs1
*** at Mon Jan 15 13:47:21 2024

   => Loading Basis Set <=

    Name: AUG-CC-PVTZ
    Role: ORBITAL
    Keyword: BASIS
    atoms 1                                   entry BR         line  4208 file /ddmfs1b/softs/psi4conda/share/psi4/basis/aug-cc-pvtz.gbs 
    atoms 2, 5, 8, 11, 14, 17                 entry O          line   331 file /ddmfs1b/softs/psi4conda/share/psi4/basis/aug-cc-pvtz.gbs 
    atoms 3-4, 6-7, 9-10, 12-13, 15-16, 18-19 entry H          line    40 file /ddmfs1b/softs/psi4conda/share/psi4/basis/aug-cc-pvtz.gbs 


         ---------------------------------------------------------
                                   SCF
               by Justin Turney, Rob Parrish, Andy Simmonett
                          and Daniel G. A. Smith
                              RHF Reference
                       20 Threads,  57220 MiB Core
         ---------------------------------------------------------

  ==> Geometry <==

    Molecular point group: c1
    Full point group: C1

    Geometry (in Angstrom), charge = -1, multiplicity = 1:

       Center              X                  Y                   Z               Mass       
    ------------   -----------------  -----------------  -----------------  -----------------
         BR           0.000000000000     0.000000000000     0.000000000000    78.918337600000
      Gh(O)           1.521234000000     1.209788000000    -2.685367000000    15.994914619570
      Gh(H)           2.096141000000     0.409973000000    -2.642532000000     1.007825032230
      Gh(H)           1.413599000000     1.432485000000    -3.599181000000     1.007825032230
      Gh(O)           2.137029000000    -0.858665000000     2.437340000000    15.994914619570
      Gh(H)           1.531524000000    -0.762129000000     1.688950000000     1.007825032230
      Gh(H)           1.596637000000    -0.978037000000     3.206662000000     1.007825032230
      Gh(O)           1.238938000000     1.972390000000     2.398987000000    15.994914619570
      Gh(H)           0.860966000000     1.485662000000     1.615154000000     1.007825032230
      Gh(H)           1.150578000000     1.320561000000     3.162309000000     1.007825032230
      Gh(O)           0.117012000000    -3.331974000000     0.636691000000    15.994914619570
      Gh(H)           0.665240000000    -3.509200000000     1.434153000000     1.007825032230
      Gh(H)           0.025395000000    -2.338891000000     0.576819000000     1.007825032230
      Gh(O)          -1.361959000000    -0.368772000000     3.303538000000    15.994914619570
      Gh(H)          -0.708171000000    -0.442974000000     3.989043000000     1.007825032230
      Gh(H)          -0.893664000000    -0.189371000000     2.459854000000     1.007825032230
      Gh(O)          -1.248477000000     2.143362000000    -2.447598000000    15.994914619570
      Gh(H)          -0.346353000000     1.847909000000    -2.331410000000     1.007825032230
      Gh(H)          -1.185038000000     2.892626000000    -1.867573000000     1.007825032230

  Running in c1 symmetry.

  Rotational constants: A =      0.03308  B =      0.01784  C =      0.01601 [cm^-1]
  Rotational constants: A =    991.81571  B =    534.97395  C =    480.04782 [MHz]
  Nuclear repulsion =    0.000000000000000

  Charge       = -1
  Multiplicity = 1
  Electrons    = 36
  Nalpha       = 18
  Nbeta        = 18

  ==> Algorithm <==

  SCF Algorithm Type is DF.
  DIIS enabled.
  MOM disabled.
  Fractional occupation disabled.
  Guess Type is SAD.
  Energy threshold   = 1.00e-08
  Density threshold  = 1.00e-08
  Integral threshold = 1.00e-12

  ==> Primary Basis <==

  Basis Set: AUG-CC-PVTZ
    Blend: AUG-CC-PVTZ
    Number of shells: 211
    Number of basis functions: 611
    Number of Cartesian functions: 699
    Spherical Harmonics?: true
    Max angular momentum: 3

   => Loading Basis Set <=

    Name: (AUG-CC-PVTZ AUX)
    Role: JKFIT
    Keyword: DF_BASIS_SCF
    atoms 1                                   entry BR         line  1492 file /ddmfs1b/softs/psi4conda/share/psi4/basis/aug-cc-pvtz-jkfit.gbs 
    atoms 2, 5, 8, 11, 14, 17                 entry O          line   286 file /ddmfs1b/softs/psi4conda/share/psi4/basis/aug-cc-pvtz-jkfit.gbs 
    atoms 3-4, 6-7, 9-10, 12-13, 15-16, 18-19 entry H          line    70 file /ddmfs1b/softs/psi4conda/share/psi4/basis/aug-cc-pvtz-jkfit.gbs 

  ==> Integral Setup <==

  ==> DiskDFJK: Density-Fitted J/K Matrices <==

    J tasked:                  Yes
    K tasked:                  Yes
    wK tasked:                  No
    OpenMP threads:             20
    Integrals threads:          20
    Memory [MiB]:            42915
    Algorithm:                Core
    Integral Cache:           LOAD
    Schwarz Cutoff:          1E-12
    Fitting Condition:       1E-10

   => Auxiliary Basis Set <=

  Basis Set: (AUG-CC-PVTZ AUX)
    Blend: AUG-CC-PVTZ-JKFIT
    Number of shells: 406
    Number of basis functions: 1424
    Number of Cartesian functions: 1775
    Spherical Harmonics?: true
    Max angular momentum: 4

  Minimum eigenvalue in the overlap matrix is 1.0244415032E-04.
  Reciprocal condition number of the overlap matrix is 7.0712510710E-06.
    Using symmetric orthogonalization.

  ==> Pre-Iterations <==

  SCF Guess: Superposition of Atomic Densities via on-the-fly atomic UHF (no occupation information).

   -------------------------
    Irrep   Nso     Nmo    
   -------------------------
     A        611     611 
   -------------------------
    Total     611     611
   -------------------------

  ==> Iterations <==

                           Total Energy        Delta E     RMS |[F,P]|

   @DF-RHF iter SAD: -2570.41423570475763   -2.57041e+03   0.00000e+00 
   @DF-RHF iter   1: -2572.25149047372224   -1.83725e+00   1.78403e-03 DIIS/ADIIS
   @DF-RHF iter   2: -2572.46176982842644   -2.10279e-01   1.00023e-03 DIIS/ADIIS
   @DF-RHF iter   3: -2572.53369274612214   -7.19229e-02   1.42894e-05 DIIS
   @DF-RHF iter   4: -2572.53372929739635   -3.65513e-05   2.12468e-06 DIIS
   @DF-RHF iter   5: -2572.53373125599728   -1.95860e-06   5.33025e-07 DIIS
   @DF-RHF iter   6: -2572.53373139321548   -1.37218e-07   1.12395e-07 DIIS
   @DF-RHF iter   7: -2572.53373141251723   -1.93018e-08   8.21642e-09 DIIS
   @DF-RHF iter   8: -2572.53373141257998   -6.27551e-11   1.69752e-09 DIIS
  Energy and wave function converged.


  ==> Post-Iterations <==

    Orbital Energies [Eh]
    ---------------------

    Doubly Occupied:                                                      

       1A   -489.722188     2A    -64.861781     3A    -58.216317  
       4A    -58.216316     5A    -58.216312     6A     -9.533286  
       7A     -7.140629     8A     -7.140609     9A     -7.140600  
      10A     -2.882335    11A     -2.882320    12A     -2.882307  
      13A     -2.882301    14A     -2.882294    15A     -0.685989  
      16A     -0.139337    17A     -0.139331    18A     -0.139329  

    Virtual:                                                              

      19A      0.117526    20A      0.120297    21A      0.129338  
      22A      0.135578    23A      0.137677    24A      0.146635  
      25A      0.153610    26A      0.161298    27A      0.166721  
      28A      0.171930    29A      0.174711    30A      0.184309  
      31A      0.226420    32A      0.231483    33A      0.237889  
      34A      0.245566    35A      0.252222    36A      0.257407  
      37A      0.261170    38A      0.262420    39A      0.267719  
      40A      0.269721    41A      0.277294    42A      0.281421  
      43A      0.294822    44A      0.301890    45A      0.305578  
      46A      0.306830    47A      0.310862    48A      0.314151  
      49A      0.320504    50A      0.326299    51A      0.327642  
      52A      0.331021    53A      0.342468    54A      0.349853  
      55A      0.356096    56A      0.357025    57A      0.373481  
      58A      0.391156    59A      0.394807    60A      0.406641  
      61A      0.418624    62A      0.423310    63A      0.433160  
      64A      0.436657    65A      0.444286    66A      0.453589  
      67A      0.458299    68A      0.459516    69A      0.461676  
      70A      0.468502    71A      0.474463    72A      0.483296  
      73A      0.488021    74A      0.497331    75A      0.502889  
      76A      0.505233    77A      0.510732    78A      0.512661  
      79A      0.518788    80A      0.523986    81A      0.527305  
      82A      0.534096    83A      0.539774    84A      0.545301  
      85A      0.549822    86A      0.553168    87A      0.564136  
      88A      0.565667    89A      0.570258    90A      0.573280  
      91A      0.577566    92A      0.590725    93A      0.595341  
      94A      0.606879    95A      0.612800    96A      0.620946  
      97A      0.627407    98A      0.636691    99A      0.651962  
     100A      0.659288   101A      0.662077   102A      0.672750  
     103A      0.686360   104A      0.690983   105A      0.702426  
     106A      0.711425   107A      0.722388   108A      0.733249  
     109A      0.740148   110A      0.765369   111A      0.775087  
     112A      0.808285   113A      0.822034   114A      0.847000  
     115A      0.849944   116A      0.855044   117A      0.860987  
     118A      0.871640   119A      0.875922   120A      0.885672  
     121A      0.893895   122A      0.898535   123A      0.906775  
     124A      0.910908   125A      0.919604   126A      0.930516  
     127A      0.934988   128A      0.937312   129A      0.939849  
     130A      0.947376   131A      0.957230   132A      0.961964  
     133A      0.968020   134A      0.973617   135A      0.980443  
     136A      0.983309   137A      0.989714   138A      0.995029  
     139A      1.000775   140A      1.007073   141A      1.009946  
     142A      1.012194   143A      1.018652   144A      1.021227  
     145A      1.029580   146A      1.034733   147A      1.036796  
     148A      1.041462   149A      1.048167   150A      1.052953  
     151A      1.054725   152A      1.058858   153A      1.064961  
     154A      1.074145   155A      1.075935   156A      1.083280  
     157A      1.089766   158A      1.097847   159A      1.102122  
     160A      1.110541   161A      1.116453   162A      1.118797  
     163A      1.120172   164A      1.129056   165A      1.131989  
     166A      1.135597   167A      1.145251   168A      1.158844  
     169A      1.162235   170A      1.167956   171A      1.176543  
     172A      1.179412   173A      1.181990   174A      1.190179  
     175A      1.195482   176A      1.203265   177A      1.209144  
     178A      1.217058   179A      1.222982   180A      1.225910  
     181A      1.230192   182A      1.243165   183A      1.246275  
     184A      1.255572   185A      1.269796   186A      1.273594  
     187A      1.278635   188A      1.282359   189A      1.289342  
     190A      1.298692   191A      1.301674   192A      1.306880  
     193A      1.322392   194A      1.330840   195A      1.337716  
     196A      1.347004   197A      1.350333   198A      1.356562  
     199A      1.364292   200A      1.371775   201A      1.375690  
     202A      1.388529   203A      1.393855   204A      1.408512  
     205A      1.410144   206A      1.421662   207A      1.434501  
     208A      1.455897   209A      1.467830   210A      1.471869  
     211A      1.476941   212A      1.502249   213A      1.507453  
     214A      1.514331   215A      1.534554   216A      1.543970  
     217A      1.558458   218A      1.568083   219A      1.581367  
     220A      1.592865   221A      1.596385   222A      1.600701  
     223A      1.603876   224A      1.616960   225A      1.637651  
     226A      1.642548   227A      1.647595   228A      1.670327  
     229A      1.674602   230A      1.683030   231A      1.691727  
     232A      1.706450   233A      1.719589   234A      1.721928  
     235A      1.735123   236A      1.746244   237A      1.750813  
     238A      1.768983   239A      1.774493   240A      1.779029  
     241A      1.783844   242A      1.809900   243A      1.815053  
     244A      1.817514   245A      1.834500   246A      1.844523  
     247A      1.855438   248A      1.869646   249A      1.873661  
     250A      1.891113   251A      1.901811   252A      1.908970  
     253A      1.921280   254A      1.934884   255A      1.941446  
     256A      1.946895   257A      1.957207   258A      1.968297  
     259A      1.975265   260A      1.982737   261A      1.993903  
     262A      1.998691   263A      2.015249   264A      2.021858  
     265A      2.025778   266A      2.034279   267A      2.050784  
     268A      2.052354   269A      2.062099   270A      2.075664  
     271A      2.088254   272A      2.103492   273A      2.118139  
     274A      2.125304   275A      2.134301   276A      2.140466  
     277A      2.157031   278A      2.186298   279A      2.220056  
     280A      2.226654   281A      2.243452   282A      2.262589  
     283A      2.264126   284A      2.266653   285A      2.319872  
     286A      2.333940   287A      2.354147   288A      2.377785  
     289A      2.392439   290A      2.580363   291A      2.614053  
     292A      2.624010   293A      2.630646   294A      2.636560  
     295A      2.653796   296A      2.659065   297A      2.661725  
     298A      2.680745   299A      2.685203   300A      2.690461  
     301A      2.702766   302A      2.707710   303A      2.712440  
     304A      2.719875   305A      2.729463   306A      2.733633  
     307A      2.740731   308A      2.747349   309A      2.757223  
     310A      2.763268   311A      2.775535   312A      2.777021  
     313A      2.784074   314A      2.793737   315A      2.800214  
     316A      2.806976   317A      2.809507   318A      2.820354  
     319A      2.826261   320A      2.830031   321A      2.838318  
     322A      2.850298   323A      2.863512   324A      2.867817  
     325A      2.876085   326A      2.884588   327A      2.896312  
     328A      2.903902   329A      2.911525   330A      2.930902  
     331A      2.934307   332A      2.943777   333A      2.957941  
     334A      2.962215   335A      2.971928   336A      2.980805  
     337A      2.991224   338A      3.002653   339A      3.017256  
     340A      3.038448   341A      3.054283   342A      3.065196  
     343A      3.069813   344A      3.083189   345A      3.104918  
     346A      3.127065   347A      3.154339   348A      3.161761  
     349A      3.181948   350A      3.195035   351A      3.216971  
     352A      3.228579   353A      3.243724   354A      3.256532  
     355A      3.268954   356A      3.287038   357A      3.316027  
     358A      3.338698   359A      3.350630   360A      3.359692  
     361A      3.381316   362A      3.385153   363A      3.394092  
     364A      3.397720   365A      3.409870   366A      3.424680  
     367A      3.432001   368A      3.441213   369A      3.461293  
     370A      3.485835   371A      3.490725   372A      3.512655  
     373A      3.540800   374A      3.562533   375A      3.597297  
     376A      3.600947   377A      3.606245   378A      3.614793  
     379A      3.623137   380A      3.630954   381A      3.642309  
     382A      3.662534   383A      3.676622   384A      3.687537  
     385A      3.700145   386A      3.726950   387A      3.737841  
     388A      3.763726   389A      3.786473   390A      3.799390  
     391A      3.809218   392A      3.823333   393A      3.888293  
     394A      3.909331   395A      3.919682   396A      3.984638  
     397A      4.016800   398A      4.045046   399A      4.071926  
     400A      4.079362   401A      4.551617   402A      4.568524  
     403A      4.593474   404A      4.611053   405A      4.612920  
     406A      4.624732   407A      4.632111   408A      4.651408  
     409A      4.658039   410A      4.669719   411A      4.681633  
     412A      4.707862   413A      4.716417   414A      4.720778  
     415A      4.750622   416A      4.757013   417A      4.759223  
     418A      4.780051   419A      4.798607   420A      4.815141  
     421A      4.820295   422A      4.828399   423A      4.833722  
     424A      4.878403   425A      4.889429   426A      4.894383  
     427A      4.919456   428A      4.922630   429A      4.927694  
     430A      4.936471   431A      4.995158   432A      5.001051  
     433A      5.012686   434A      5.023192   435A      5.030593  
     436A      5.045600   437A      5.070337   438A      5.077073  
     439A      5.097376   440A      5.110946   441A      5.126978  
     442A      5.136599   443A      5.143456   444A      5.168015  
     445A      5.182503   446A      5.185108   447A      5.189825  
     448A      5.225694   449A      5.278806   450A      5.284385  
     451A      5.324140   452A      5.347417   453A      5.371679  
     454A      5.400886   455A      5.417265   456A      5.444295  
     457A      5.480807   458A      5.524973   459A      5.531626  
     460A      5.571794   461A      5.605970   462A      5.655823  
     463A      5.671721   464A      5.678663   465A      5.682559  
     466A      5.697396   467A      5.742245   468A      5.752540  
     469A      5.767624   470A      5.778366   471A      5.795276  
     472A      5.825480   473A      5.849571   474A      5.854022  
     475A      5.875688   476A      5.884318   477A      5.922836  
     478A      5.929259   479A      5.955878   480A      5.963764  
     481A      6.009110   482A      6.074374   483A      6.138335  
     484A      6.167469   485A      6.204753   486A      6.317518  
     487A      6.331469   488A      6.376304   489A      6.386877  
     490A      6.395417   491A      6.431073   492A      6.484120  
     493A      6.532554   494A      6.541681   495A      6.566710  
     496A      6.629886   497A      6.707971   498A      6.742342  
     499A      6.782557   500A      6.890353   501A      6.919901  
     502A      6.970588   503A      6.974787   504A      7.144690  
     505A      7.148570   506A      7.261472   507A      7.271819  
     508A      7.321112   509A      7.353845   510A      7.875287  
     511A      7.892074   512A      7.911858   513A      7.916367  
     514A      7.924748   515A      7.949744   516A      7.975962  
     517A      7.986236   518A      7.987286   519A      8.024559  
     520A      8.092250   521A      8.151468   522A      8.202376  
     523A      8.211271   524A      8.268924   525A      8.280668  
     526A      8.310807   527A      8.336513   528A      8.352398  
     529A      8.372786   530A      8.380370   531A      8.394103  
     532A      8.398562   533A      8.427537   534A      8.443079  
     535A      8.481819   536A      8.490513   537A      8.519416  
     538A      8.538026   539A      8.566013   540A      8.824898  
     541A      8.836732   542A      8.926104   543A      8.971189  
     544A      8.983468   545A      8.992150   546A      9.022283  
     547A      9.057672   548A      9.067424   549A      9.172615  
     550A      9.197060   551A      9.219841   552A      9.875700  
     553A      9.887889   554A      9.905153   555A      9.940688  
     556A      9.973167   557A     10.008024   558A     10.027433  
     559A     10.051370   560A     10.074014   561A     10.080120  
     562A     10.105039   563A     10.129809   564A     10.202047  
     565A     10.224209   566A     10.234767   567A     10.246189  
     568A     10.265559   569A     10.311555   570A     10.379014  
     571A     10.448172   572A     10.471812   573A     10.502763  
     574A     10.518536   575A     10.534540   576A     11.148900  
     577A     11.191319   578A     11.305756   579A     11.322801  
     580A     11.414024   581A     11.541885   582A     11.829835  
     583A     11.851864   584A     11.893415   585A     11.909818  
     586A     11.932505   587A     11.994382   588A     12.025660  
     589A     12.081276   590A     12.310646   591A     12.340984  
     592A     12.449763   593A     12.583746   594A     13.593662  
     595A     13.663667   596A     13.710315   597A     13.784980  
     598A     13.888597   599A     13.986141   600A     14.075357  
     601A     14.125501   602A     14.144173   603A     14.172038  
     604A     14.189018   605A     14.203856   606A     64.649836  
     607A     65.001972   608A     65.087877   609A     66.353883  
     610A     67.606462   611A     67.772483  

    Final Occupation by Irrep:
              A 
    DOCC [    18 ]
    NA   [    18 ]
    NB   [    18 ]

  @DF-RHF Final Energy: -2572.53373141257998

   => Energetics <=

    Nuclear Repulsion Energy =              0.0000000000000000
    One-Electron Energy =               -3593.6603046348677708
    Two-Electron Energy =                1021.1265732222880160
    Total Energy =                      -2572.5337314125799821

Computation Completed


Properties will be evaluated at   0.000000,   0.000000,   0.000000 [a0]

Properties computed using the SCF density matrix


 Multipole Moments:

 ------------------------------------------------------------------------------------
     Multipole            Electronic (a.u.)      Nuclear  (a.u.)        Total (a.u.)
 ------------------------------------------------------------------------------------

 L = 1.  Multiply by 2.5417464519 to convert [e a0] to [Debye]
 Dipole X            :          0.0000631            0.0000000            0.0000631
 Dipole Y            :         -0.0000038            0.0000000           -0.0000038
 Dipole Z            :          0.0000016            0.0000000            0.0000016
 Magnitude           :                                                    0.0000632

 ------------------------------------------------------------------------------------

*** tstop() called on ddmfs1 at Mon Jan 15 13:47:36 2024
Module time:
	user time   =     194.06 seconds =       3.23 minutes
	system time =       8.07 seconds =       0.13 minutes
	total time  =         15 seconds =       0.25 minutes
Total time:
	user time   =     510.37 seconds =       8.51 minutes
	system time =      32.52 seconds =       0.54 minutes
	total time  =         38 seconds =       0.63 minutes

  //>>>>>>>>>>>>>>>>>>>>>>>>>>>>>>>>>>>//
  //            Monomer B HF           //
  //<<<<<<<<<<<<<<<<<<<<<<<<<<<<<<<<<<<//

   => Libint2 <=

    Primary   basis highest AM E, G, H:  5, 4, 3
    Auxiliary basis highest AM E, G, H:  6, 5, 4
    Onebody   basis highest AM E, G, H:  6, 5, 4
    Solid Harmonics ordering:            gaussian

*** tstart() called on ddmfs1
*** at Mon Jan 15 13:47:36 2024

   => Loading Basis Set <=

    Name: AUG-CC-PVTZ
    Role: ORBITAL
    Keyword: BASIS
    atoms 1                                   entry BR         line  4208 file /ddmfs1b/softs/psi4conda/share/psi4/basis/aug-cc-pvtz.gbs 
    atoms 2, 5, 8, 11, 14, 17                 entry O          line   331 file /ddmfs1b/softs/psi4conda/share/psi4/basis/aug-cc-pvtz.gbs 
    atoms 3-4, 6-7, 9-10, 12-13, 15-16, 18-19 entry H          line    40 file /ddmfs1b/softs/psi4conda/share/psi4/basis/aug-cc-pvtz.gbs 


         ---------------------------------------------------------
                                   SCF
               by Justin Turney, Rob Parrish, Andy Simmonett
                          and Daniel G. A. Smith
                              RHF Reference
                       20 Threads,  57220 MiB Core
         ---------------------------------------------------------

  ==> Geometry <==

    Molecular point group: c1
    Full point group: C1

    Geometry (in Angstrom), charge = 0, multiplicity = 1:

       Center              X                  Y                   Z               Mass       
    ------------   -----------------  -----------------  -----------------  -----------------
      Gh(BR)          0.000000000000     0.000000000000     0.000000000000    78.918337600000
         O            1.521234000000     1.209788000000    -2.685367000000    15.994914619570
         H            2.096141000000     0.409973000000    -2.642532000000     1.007825032230
         H            1.413599000000     1.432485000000    -3.599181000000     1.007825032230
         O            2.137029000000    -0.858665000000     2.437340000000    15.994914619570
         H            1.531524000000    -0.762129000000     1.688950000000     1.007825032230
         H            1.596637000000    -0.978037000000     3.206662000000     1.007825032230
         O            1.238938000000     1.972390000000     2.398987000000    15.994914619570
         H            0.860966000000     1.485662000000     1.615154000000     1.007825032230
         H            1.150578000000     1.320561000000     3.162309000000     1.007825032230
         O            0.117012000000    -3.331974000000     0.636691000000    15.994914619570
         H            0.665240000000    -3.509200000000     1.434153000000     1.007825032230
         H            0.025395000000    -2.338891000000     0.576819000000     1.007825032230
         O           -1.361959000000    -0.368772000000     3.303538000000    15.994914619570
         H           -0.708171000000    -0.442974000000     3.989043000000     1.007825032230
         H           -0.893664000000    -0.189371000000     2.459854000000     1.007825032230
         O           -1.248477000000     2.143362000000    -2.447598000000    15.994914619570
         H           -0.346353000000     1.847909000000    -2.331410000000     1.007825032230
         H           -1.185038000000     2.892626000000    -1.867573000000     1.007825032230

  Running in c1 symmetry.

  Rotational constants: A =      0.03308  B =      0.01784  C =      0.01601 [cm^-1]
  Rotational constants: A =    991.81571  B =    534.97395  C =    480.04782 [MHz]
  Nuclear repulsion =  230.558544834417631

  Charge       = 0
  Multiplicity = 1
  Electrons    = 60
  Nalpha       = 30
  Nbeta        = 30

  ==> Algorithm <==

  SCF Algorithm Type is DF.
  DIIS enabled.
  MOM disabled.
  Fractional occupation disabled.
  Guess Type is SAD.
  Energy threshold   = 1.00e-08
  Density threshold  = 1.00e-08
  Integral threshold = 1.00e-12

  ==> Primary Basis <==

  Basis Set: AUG-CC-PVTZ
    Blend: AUG-CC-PVTZ
    Number of shells: 211
    Number of basis functions: 611
    Number of Cartesian functions: 699
    Spherical Harmonics?: true
    Max angular momentum: 3

   => Loading Basis Set <=

    Name: (AUG-CC-PVTZ AUX)
    Role: JKFIT
    Keyword: DF_BASIS_SCF
    atoms 1                                   entry BR         line  1492 file /ddmfs1b/softs/psi4conda/share/psi4/basis/aug-cc-pvtz-jkfit.gbs 
    atoms 2, 5, 8, 11, 14, 17                 entry O          line   286 file /ddmfs1b/softs/psi4conda/share/psi4/basis/aug-cc-pvtz-jkfit.gbs 
    atoms 3-4, 6-7, 9-10, 12-13, 15-16, 18-19 entry H          line    70 file /ddmfs1b/softs/psi4conda/share/psi4/basis/aug-cc-pvtz-jkfit.gbs 

  ==> Integral Setup <==

  ==> DiskDFJK: Density-Fitted J/K Matrices <==

    J tasked:                  Yes
    K tasked:                  Yes
    wK tasked:                  No
    OpenMP threads:             20
    Integrals threads:          20
    Memory [MiB]:            42915
    Algorithm:                Core
    Integral Cache:           LOAD
    Schwarz Cutoff:          1E-12
    Fitting Condition:       1E-10

   => Auxiliary Basis Set <=

  Basis Set: (AUG-CC-PVTZ AUX)
    Blend: AUG-CC-PVTZ-JKFIT
    Number of shells: 406
    Number of basis functions: 1424
    Number of Cartesian functions: 1775
    Spherical Harmonics?: true
    Max angular momentum: 4

  Minimum eigenvalue in the overlap matrix is 1.0244415032E-04.
  Reciprocal condition number of the overlap matrix is 7.0712510710E-06.
    Using symmetric orthogonalization.

  ==> Pre-Iterations <==

  SCF Guess: Superposition of Atomic Densities via on-the-fly atomic UHF (no occupation information).

   -------------------------
    Irrep   Nso     Nmo    
   -------------------------
     A        611     611 
   -------------------------
    Total     611     611
   -------------------------

  ==> Iterations <==

                           Total Energy        Delta E     RMS |[F,P]|

   @DF-RHF iter SAD:  -453.02782106100096   -4.53028e+02   0.00000e+00 
   @DF-RHF iter   1:  -455.83679152662239   -2.80897e+00   1.84476e-03 DIIS/ADIIS
   @DF-RHF iter   2:  -456.14651712780699   -3.09726e-01   1.26014e-03 DIIS/ADIIS
   @DF-RHF iter   3:  -456.33158918256885   -1.85072e-01   9.31569e-05 DIIS
   @DF-RHF iter   4:  -456.33433715531856   -2.74797e-03   2.75850e-05 DIIS
   @DF-RHF iter   5:  -456.33453056055157   -1.93405e-04   1.06062e-05 DIIS
   @DF-RHF iter   6:  -456.33455797477069   -2.74142e-05   3.09223e-06 DIIS
   @DF-RHF iter   7:  -456.33456141716505   -3.44239e-06   6.31365e-07 DIIS
   @DF-RHF iter   8:  -456.33456163211014   -2.14945e-07   1.51317e-07 DIIS
   @DF-RHF iter   9:  -456.33456163920567   -7.09554e-09   6.67028e-08 DIIS
   @DF-RHF iter  10:  -456.33456164022215   -1.01647e-09   1.27351e-08 DIIS
   @DF-RHF iter  11:  -456.33456164029070   -6.85532e-11   3.90773e-09 DIIS
  Energy and wave function converged.


  ==> Post-Iterations <==

    Orbital Energies [Eh]
    ---------------------

    Doubly Occupied:                                                      

       1A    -20.606346     2A    -20.599363     3A    -20.597542  
       4A    -20.587312     5A    -20.586989     6A    -20.552720  
       7A     -1.394680     8A     -1.380730     9A     -1.379370  
      10A     -1.350357    11A     -1.347265    12A     -1.344541  
      13A     -0.764179    14A     -0.752000    15A     -0.750968  
      16A     -0.717198    17A     -0.706329    18A     -0.692515  
      19A     -0.627861    20A     -0.617414    21A     -0.604867  
      22A     -0.593741    23A     -0.587793    24A     -0.583417  
      25A     -0.550041    26A     -0.540145    27A     -0.539448  
      28A     -0.521391    29A     -0.513740    30A     -0.498874  

    Virtual:                                                              

      31A      0.007559    32A      0.021892    33A      0.036526  
      34A      0.037806    35A      0.046393    36A      0.052177  
      37A      0.057669    38A      0.065901    39A      0.067255  
      40A      0.074989    41A      0.081071    42A      0.089770  
      43A      0.095381    44A      0.109331    45A      0.114643  
      46A      0.123308    47A      0.129820    48A      0.142818  
      49A      0.149059    50A      0.151632    51A      0.156225  
      52A      0.165213    53A      0.170176    54A      0.180521  
      55A      0.184329    56A      0.188246    57A      0.191717  
      58A      0.194765    59A      0.196329    60A      0.203364  
      61A      0.204508    62A      0.206589    63A      0.214713  
      64A      0.222068    65A      0.230273    66A      0.234024  
      67A      0.238465    68A      0.243486    69A      0.247343  
      70A      0.248318    71A      0.251699    72A      0.258016  
      73A      0.268675    74A      0.274350    75A      0.280442  
      76A      0.284418    77A      0.285437    78A      0.297411  
      79A      0.308668    80A      0.310550    81A      0.311461  
      82A      0.312554    83A      0.318984    84A      0.333899  
      85A      0.344812    86A      0.346982    87A      0.358594  
      88A      0.363541    89A      0.364947    90A      0.371504  
      91A      0.373835    92A      0.379313    93A      0.385681  
      94A      0.393898    95A      0.402735    96A      0.409810  
      97A      0.411514    98A      0.418864    99A      0.428014  
     100A      0.435593   101A      0.437937   102A      0.444218  
     103A      0.448282   104A      0.452497   105A      0.459710  
     106A      0.465213   107A      0.471732   108A      0.480079  
     109A      0.483146   110A      0.485240   111A      0.497098  
     112A      0.498803   113A      0.512390   114A      0.516584  
     115A      0.525100   116A      0.532998   117A      0.536932  
     118A      0.553194   119A      0.563437   120A      0.568002  
     121A      0.586266   122A      0.590174   123A      0.609578  
     124A      0.615677   125A      0.625914   126A      0.636812  
     127A      0.639577   128A      0.651358   129A      0.653231  
     130A      0.655522   131A      0.666878   132A      0.686490  
     133A      0.691634   134A      0.692597   135A      0.702681  
     136A      0.718208   137A      0.722311   138A      0.728721  
     139A      0.731642   140A      0.735095   141A      0.747280  
     142A      0.749583   143A      0.756715   144A      0.765636  
     145A      0.775189   146A      0.783753   147A      0.785247  
     148A      0.796220   149A      0.798552   150A      0.802992  
     151A      0.807885   152A      0.824148   153A      0.826715  
     154A      0.832313   155A      0.836735   156A      0.851655  
     157A      0.857529   158A      0.867936   159A      0.871177  
     160A      0.871717   161A      0.883396   162A      0.890277  
     163A      0.900135   164A      0.907412   165A      0.911051  
     166A      0.918971   167A      0.927203   168A      0.929725  
     169A      0.934103   170A      0.937120   171A      0.940337  
     172A      0.949917   173A      0.958657   174A      0.963770  
     175A      0.972633   176A      0.977783   177A      0.988161  
     178A      0.990879   179A      0.995119   180A      1.000301  
     181A      1.011421   182A      1.014110   183A      1.021090  
     184A      1.027357   185A      1.033280   186A      1.041980  
     187A      1.046283   188A      1.049315   189A      1.053216  
     190A      1.056715   191A      1.061055   192A      1.072873  
     193A      1.077777   194A      1.082834   195A      1.087790  
     196A      1.091859   197A      1.096453   198A      1.104047  
     199A      1.108474   200A      1.116460   201A      1.123003  
     202A      1.126391   203A      1.133724   204A      1.141568  
     205A      1.142869   206A      1.150820   207A      1.159776  
     208A      1.171219   209A      1.173692   210A      1.177874  
     211A      1.180711   212A      1.193606   213A      1.203245  
     214A      1.211316   215A      1.215289   216A      1.218013  
     217A      1.228535   218A      1.240418   219A      1.254519  
     220A      1.262930   221A      1.266303   222A      1.279108  
     223A      1.291384   224A      1.294703   225A      1.305654  
     226A      1.307243   227A      1.322273   228A      1.326652  
     229A      1.334648   230A      1.344419   231A      1.345850  
     232A      1.352064   233A      1.355501   234A      1.375651  
     235A      1.385875   236A      1.393580   237A      1.394447  
     238A      1.407500   239A      1.416336   240A      1.417302  
     241A      1.429527   242A      1.440970   243A      1.452171  
     244A      1.460946   245A      1.469469   246A      1.487243  
     247A      1.500887   248A      1.517176   249A      1.520537  
     250A      1.531031   251A      1.533418   252A      1.541886  
     253A      1.550806   254A      1.555388   255A      1.573271  
     256A      1.576125   257A      1.586820   258A      1.598154  
     259A      1.610595   260A      1.614234   261A      1.622017  
     262A      1.626682   263A      1.648235   264A      1.657213  
     265A      1.675917   266A      1.685769   267A      1.689644  
     268A      1.702025   269A      1.703567   270A      1.713621  
     271A      1.721420   272A      1.732750   273A      1.740425  
     274A      1.747291   275A      1.789174   276A      1.803221  
     277A      1.805592   278A      1.833829   279A      1.851072  
     280A      1.858256   281A      1.868892   282A      1.891266  
     283A      1.896773   284A      1.922788   285A      1.929033  
     286A      1.951702   287A      1.956716   288A      1.968847  
     289A      1.983971   290A      2.001973   291A      2.005715  
     292A      2.016324   293A      2.022725   294A      2.043100  
     295A      2.077516   296A      2.091730   297A      2.108195  
     298A      2.130992   299A      2.180670   300A      2.185910  
     301A      2.298439   302A      2.311953   303A      2.326938  
     304A      2.335388   305A      2.349641   306A      2.361832  
     307A      2.373842   308A      2.380698   309A      2.384719  
     310A      2.405663   311A      2.415733   312A      2.420464  
     313A      2.438129   314A      2.445870   315A      2.450965  
     316A      2.465302   317A      2.469605   318A      2.475612  
     319A      2.485518   320A      2.498503   321A      2.510723  
     322A      2.513159   323A      2.518815   324A      2.519883  
     325A      2.534652   326A      2.543698   327A      2.548560  
     328A      2.564745   329A      2.567861   330A      2.570842  
     331A      2.577166   332A      2.592884   333A      2.593170  
     334A      2.602391   335A      2.617225   336A      2.632533  
     337A      2.643522   338A      2.659640   339A      2.660607  
     340A      2.669890   341A      2.672587   342A      2.684680  
     343A      2.700809   344A      2.713403   345A      2.732187  
     346A      2.742410   347A      2.751896   348A      2.759401  
     349A      2.768953   350A      2.774401   351A      2.781337  
     352A      2.790409   353A      2.797193   354A      2.817646  
     355A      2.820718   356A      2.829400   357A      2.843294  
     358A      2.859965   359A      2.873997   360A      2.887687  
     361A      2.897209   362A      2.916989   363A      2.928143  
     364A      2.938793   365A      2.951239   366A      2.957576  
     367A      2.971349   368A      2.977708   369A      2.992481  
     370A      2.995183   371A      3.018876   372A      3.029713  
     373A      3.052219   374A      3.074759   375A      3.085966  
     376A      3.102778   377A      3.136079   378A      3.187979  
     379A      3.219671   380A      3.257723   381A      3.367192  
     382A      3.380432   383A      3.415784   384A      3.455988  
     385A      3.469774   386A      3.485603   387A      3.559704  
     388A      3.583080   389A      3.608640   390A      3.644164  
     391A      3.683914   392A      3.703966   393A      3.734292  
     394A      3.747762   395A      3.780298   396A      3.802041  
     397A      3.811895   398A      3.822297   399A      3.868035  
     400A      3.914727   401A      3.952554   402A      3.958935  
     403A      4.012312   404A      4.015138   405A      4.042113  
     406A      4.089031   407A      4.110038   408A      4.126764  
     409A      4.144482   410A      4.163043   411A      4.169193  
     412A      4.188209   413A      4.203711   414A      4.218736  
     415A      4.232050   416A      4.238771   417A      4.243794  
     418A      4.247444   419A      4.252074   420A      4.269964  
     421A      4.270945   422A      4.280234   423A      4.286554  
     424A      4.290357   425A      4.301020   426A      4.310250  
     427A      4.317967   428A      4.331599   429A      4.347168  
     430A      4.352435   431A      4.366505   432A      4.374764  
     433A      4.378061   434A      4.397541   435A      4.409897  
     436A      4.417997   437A      4.427628   438A      4.434499  
     439A      4.450857   440A      4.457458   441A      4.467516  
     442A      4.479932   443A      4.489481   444A      4.491766  
     445A      4.506099   446A      4.511365   447A      4.531784  
     448A      4.547650   449A      4.560240   450A      4.578367  
     451A      4.583220   452A      4.605226   453A      4.608293  
     454A      4.627941   455A      4.644847   456A      4.656125  
     457A      4.689694   458A      4.715958   459A      4.742562  
     460A      4.760720   461A      4.778525   462A      4.799341  
     463A      4.812232   464A      4.836715   465A      4.850368  
     466A      4.893387   467A      4.906706   468A      4.913847  
     469A      4.963230   470A      4.991227   471A      5.037103  
     472A      5.083914   473A      5.088394   474A      5.092669  
     475A      5.117637   476A      5.135471   477A      5.160566  
     478A      5.168245   479A      5.189557   480A      5.205560  
     481A      5.221650   482A      5.230048   483A      5.265328  
     484A      5.281664   485A      5.297816   486A      5.307880  
     487A      5.316081   488A      5.333068   489A      5.347829  
     490A      5.361081   491A      5.387640   492A      5.410697  
     493A      5.422126   494A      5.437772   495A      5.441581  
     496A      5.465806   497A      5.485953   498A      5.496424  
     499A      5.512980   500A      5.577705   501A      5.652131  
     502A      5.681328   503A      5.708168   504A      5.744938  
     505A      5.774232   506A      5.795276   507A      5.830308  
     508A      6.180392   509A      6.212601   510A      6.236375  
     511A      6.274924   512A      6.293460   513A      6.364008  
     514A      6.547430   515A      6.565545   516A      6.575015  
     517A      6.581626   518A      6.589363   519A      6.600146  
     520A      6.774238   521A      6.782354   522A      6.790077  
     523A      6.810885   524A      6.826719   525A      6.836120  
     526A      6.883587   527A      6.888184   528A      6.897848  
     529A      6.925544   530A      6.970516   531A      7.116828  
     532A      7.124408   533A      7.153042   534A      7.172239  
     535A      7.200292   536A      7.214993   537A      7.232496  
     538A      7.238812   539A      7.243058   540A      7.250221  
     541A      7.265777   542A      7.291322   543A      7.304490  
     544A      7.308253   545A      7.315780   546A      7.327747  
     547A      7.335722   548A      7.343062   549A      7.347251  
     550A      7.351806   551A      7.359115   552A      7.360552  
     553A      7.366411   554A      7.375682   555A      7.381333  
     556A      7.396139   557A      7.410142   558A      7.427387  
     559A      7.431035   560A      7.439839   561A      7.456559  
     562A      7.463247   563A      7.469581   564A      7.475591  
     565A      7.501905   566A      7.519521   567A      7.576312  
     568A      7.650690   569A      7.683341   570A      7.710227  
     571A      7.747534   572A      7.769035   573A      7.791989  
     574A      7.878822   575A      7.886354   576A      7.919864  
     577A      7.922642   578A      7.931692   579A      7.949846  
     580A      7.972513   581A      7.981207   582A      8.017326  
     583A      8.022276   584A      8.032758   585A      8.108011  
     586A      8.609754   587A      8.644687   588A      8.753091  
     589A      8.807063   590A      8.822793   591A      9.004926  
     592A     11.281597   593A     13.693181   594A     13.894002  
     595A     13.973100   596A     15.564032   597A     15.722039  
     598A     15.844883   599A     16.440999   600A     17.095635  
     601A     17.191848   602A     26.261265   603A     26.368636  
     604A     26.476805   605A     26.525273   606A     26.600253  
     607A     46.680038   608A    138.811603   609A    139.205474  
     610A    139.290597   611A    712.349593  

    Final Occupation by Irrep:
              A 
    DOCC [    30 ]
    NA   [    30 ]
    NB   [    30 ]

  @DF-RHF Final Energy:  -456.33456164029070

   => Energetics <=

    Nuclear Repulsion Energy =            230.5585448344176314
    One-Electron Energy =               -1088.0079374041579285
    Two-Electron Energy =                 401.1148309294496244
    Total Energy =                       -456.3345616402907012

Computation Completed


Properties will be evaluated at   0.000000,   0.000000,   0.000000 [a0]

Properties computed using the SCF density matrix


 Multipole Moments:

 ------------------------------------------------------------------------------------
     Multipole            Electronic (a.u.)      Nuclear  (a.u.)        Total (a.u.)
 ------------------------------------------------------------------------------------

 L = 1.  Multiply by 2.5417464519 to convert [e a0] to [Debye]
 Dipole X            :        -46.9366472           48.0690957            1.1324485
 Dipole Y            :        -14.1057038           13.7905523           -0.3151515
 Dipole Z            :        -69.3774735           69.6193548            0.2418813
 Magnitude           :                                                    1.2001111

 ------------------------------------------------------------------------------------

*** tstop() called on ddmfs1 at Mon Jan 15 13:47:53 2024
Module time:
	user time   =     252.38 seconds =       4.21 minutes
	system time =       7.69 seconds =       0.13 minutes
	total time  =         17 seconds =       0.28 minutes
Total time:
	user time   =     762.86 seconds =      12.71 minutes
	system time =      40.21 seconds =       0.67 minutes
	total time  =         55 seconds =       0.92 minutes
  Constructing Basis Sets for SAPT...

   => Loading Basis Set <=

    Name: (AUG-CC-PVTZ AUX)
    Role: RIFIT
    Keyword: DF_BASIS_SAPT
    atoms 1                                   entry BR         line  1248 file /ddmfs1b/softs/psi4conda/share/psi4/basis/aug-cc-pvtz-ri.gbs 
    atoms 2, 5, 8, 11, 14, 17                 entry O          line   264 file /ddmfs1b/softs/psi4conda/share/psi4/basis/aug-cc-pvtz-ri.gbs 
    atoms 3-4, 6-7, 9-10, 12-13, 15-16, 18-19 entry H          line    30 file /ddmfs1b/softs/psi4conda/share/psi4/basis/aug-cc-pvtz-ri.gbs 

   => Loading Basis Set <=

    Name: (AUG-CC-PVTZ AUX)
    Role: JKFIT
    Keyword: DF_BASIS_ELST
    atoms 1                                   entry BR         line  1492 file /ddmfs1b/softs/psi4conda/share/psi4/basis/aug-cc-pvtz-jkfit.gbs 
    atoms 2, 5, 8, 11, 14, 17                 entry O          line   286 file /ddmfs1b/softs/psi4conda/share/psi4/basis/aug-cc-pvtz-jkfit.gbs 
    atoms 3-4, 6-7, 9-10, 12-13, 15-16, 18-19 entry H          line    70 file /ddmfs1b/softs/psi4conda/share/psi4/basis/aug-cc-pvtz-jkfit.gbs 


  //>>>>>>>>>>>>>>>>>>>>>>>>>>>>>>>>>>>//
  //               SAPT2+              //
  //<<<<<<<<<<<<<<<<<<<<<<<<<<<<<<<<<<<//


*** tstart() called on ddmfs1
*** at Mon Jan 15 13:47:53 2024

        SAPT2+  
    Ed Hohenstein
     6 June 2009

      Orbital Information
  --------------------------
    NSO        =       611
    NMO        =       611
    NRI        =      1379
    NOCC A     =        18
    NOCC B     =        30
    FOCC A     =         0
    FOCC B     =         0
    NVIR A     =       593
    NVIR B     =       581

    Estimated memory usage: 11475.0 MB

    Natural Orbital Cutoff:   1.000E-06
    Disp(T3) Truncation:            Yes
    CCD (vv|vv) Truncation:         Yes
    MBPT T2 Truncation:             Yes

    Monomer A: 498 virtual orbitals dropped
    Monomer B: 101 virtual orbitals dropped

    Elst10,r            =    -0.081078627508 [Eh]
    Exch10 (S^2)        =     0.068399678139 [Eh]
    Exch10              =     0.069455781185 [Eh]
    Ind20,r (A<-B)      =    -0.044213928061 [Eh]
    Ind20,r (B<-A)      =    -0.021626468513 [Eh]
    Ind20,r             =    -0.065840396574 [Eh]
    Exch-Ind20,r (A<-B) =     0.030795189958 [Eh]
    Exch-Ind20,r (B<-A) =     0.007979632199 [Eh]
    Exch-Ind20,r        =     0.038774822157 [Eh]
    Disp20              =    -0.033571912144 [Eh]
    Disp20 (NO)         =    -0.029198067832 [Eh]
    Exch-Disp20         =     0.007606922806 [Eh]
    Elst12,r            =    -0.001499320491 [Eh]
    Exch11              =     0.002847097996 [Eh]
    Exch12              =     0.005919235285 [Eh]
    Ind22               =    -0.008077995642 [Eh]
    Disp21              =     0.002725964763 [Eh]
    Disp22 (SDQ)        =    -0.000157071089 [Eh]

    (i =   1 of  30)         19 seconds
    (i =   2 of  30)         37 seconds
    (i =   3 of  30)         56 seconds
    (i =   4 of  30)         75 seconds
    (i =   5 of  30)         93 seconds
    (i =   6 of  30)        112 seconds
    (i =   7 of  30)        131 seconds
    (i =   8 of  30)        149 seconds
    (i =   9 of  30)        168 seconds
    (i =  10 of  30)        187 seconds
    (i =  11 of  30)        205 seconds
    (i =  12 of  30)        224 seconds
    (i =  13 of  30)        242 seconds
    (i =  14 of  30)        261 seconds
    (i =  15 of  30)        280 seconds
    (i =  16 of  30)        298 seconds
    (i =  17 of  30)        317 seconds
    (i =  18 of  30)        336 seconds
    (i =  19 of  30)        354 seconds
    (i =  20 of  30)        373 seconds
    (i =  21 of  30)        391 seconds
    (i =  22 of  30)        410 seconds
    (i =  23 of  30)        428 seconds
    (i =  24 of  30)        447 seconds
    (i =  25 of  30)        466 seconds
    (i =  26 of  30)        484 seconds
    (i =  27 of  30)        503 seconds
    (i =  28 of  30)        521 seconds
    (i =  29 of  30)        540 seconds
    (i =  30 of  30)        558 seconds

    Disp220 (T)         =    -0.002266640916 [Eh]

    (i =   1 of  18)        510 seconds
    (i =   2 of  18)       1021 seconds
    (i =   3 of  18)       1529 seconds
    (i =   4 of  18)       2038 seconds
    (i =   5 of  18)       2549 seconds
    (i =   6 of  18)       3057 seconds
    (i =   7 of  18)       3565 seconds
    (i =   8 of  18)       4077 seconds
    (i =   9 of  18)       4588 seconds
    (i =  10 of  18)       5098 seconds
    (i =  11 of  18)       5607 seconds
    (i =  12 of  18)       6115 seconds
    (i =  13 of  18)       6624 seconds
    (i =  14 of  18)       7133 seconds
    (i =  15 of  18)       7641 seconds
    (i =  16 of  18)       8149 seconds
    (i =  17 of  18)       8658 seconds
    (i =  18 of  18)       9170 seconds

    Disp202 (T)         =    -0.003109329583 [Eh]

    Disp22 (T)          =    -0.005375970499 [Eh]

    Est. Disp220 (T)    =    -0.002606181688 [Eh]
    Est. Disp202 (T)    =    -0.003575104359 [Eh]

    Est. Disp22 (T)     =    -0.006181286047 [Eh]

    SAPT Results 
  --------------------------------------------------------------------------------------------------------
    Electrostatics                -82.57794800 [mEh]     -51.81844469 [kcal/mol]    -216.80837260 [kJ/mol]
      Elst10,r                    -81.07862751 [mEh]     -50.87760688 [kcal/mol]    -212.87190720 [kJ/mol]
      Elst12,r                     -1.49932049 [mEh]      -0.94083781 [kcal/mol]      -3.93646541 [kJ/mol]

    Exchange                       78.22211447 [mEh]      49.08511789 [kcal/mol]     205.37213324 [kJ/mol]
      Exch10                       69.45578119 [mEh]      43.58416070 [kcal/mol]     182.35612838 [kJ/mol]
      Exch10(S^2)                  68.39967814 [mEh]      42.92144604 [kcal/mol]     179.58333021 [kJ/mol]
      Exch11(S^2)                   2.84709800 [mEh]       1.78658097 [kcal/mol]       7.47505476 [kJ/mol]
      Exch12(S^2)                   5.91923528 [mEh]       3.71437622 [kcal/mol]      15.54095010 [kJ/mol]

    Induction                     -40.40477250 [mEh]     -25.35437753 [kcal/mol]    -106.08271559 [kJ/mol]
      Ind20,r                     -65.84039657 [mEh]     -41.31547261 [kcal/mol]    -172.86393739 [kJ/mol]
      Ind22                        -8.07799564 [mEh]      -5.06901879 [kcal/mol]     -21.20877464 [kJ/mol]
      Exch-Ind20,r                 38.77482216 [mEh]      24.33156825 [kcal/mol]     101.80328155 [kJ/mol]
      Exch-Ind22                    4.75730495 [mEh]       2.98525392 [kcal/mol]      12.49030242 [kJ/mol]
      delta HF,r (2)              -10.01850739 [mEh]      -6.28670830 [kcal/mol]     -26.30358754 [kJ/mol]

    Dispersion                    -29.57738171 [mEh]     -18.56008723 [kcal/mol]     -77.65540499 [kJ/mol]
      Disp20                      -33.57191214 [mEh]     -21.06669292 [kcal/mol]     -88.14304319 [kJ/mol]
      Disp21                        2.72596476 [mEh]       1.71056871 [kcal/mol]       7.15701950 [kJ/mol]
      Disp22 (SDQ)                 -0.15707109 [mEh]      -0.09856360 [kcal/mol]      -0.41239009 [kJ/mol]
      Disp22 (T)                   -5.37597050 [mEh]      -3.37347242 [kcal/mol]     -14.11460860 [kJ/mol]
      Est. Disp22 (T)              -6.18128605 [mEh]      -3.87881555 [kcal/mol]     -16.22896428 [kJ/mol]
      Exch-Disp20                   7.60692281 [mEh]       4.77341613 [kcal/mol]      19.97197308 [kJ/mol]

  Total HF                        -48.70692813 [mEh]     -30.56405884 [kcal/mol]    -127.88002219 [kJ/mol]
  Total SAPT0                     -74.67191747 [mEh]     -46.85733564 [kcal/mol]    -196.05109231 [kJ/mol]
  Total SAPT2                     -70.72559538 [mEh]     -44.38098114 [kcal/mol]    -185.69002507 [kJ/mol]
  Total SAPT2+                    -74.33798775 [mEh]     -46.64779157 [kcal/mol]    -195.17435995 [kJ/mol]

  Special recipe for scaled SAPT0 (see Manual):
    Electrostatics sSAPT0         -81.07862751 [mEh]     -50.87760688 [kcal/mol]    -212.87190720 [kJ/mol]
    Exchange sSAPT0                69.45578119 [mEh]      43.58416070 [kcal/mol]     182.35612838 [kJ/mol]
    Induction sSAPT0              -35.26013725 [mEh]     -22.12607017 [kcal/mol]     -92.57547758 [kJ/mol]
    Dispersion sSAPT0             -25.60716422 [mEh]     -16.06873814 [kcal/mol]     -67.23160038 [kJ/mol]
  Total sSAPT0                    -72.49014778 [mEh]     -45.48825449 [kcal/mol]    -190.32285678 [kJ/mol]
  --------------------------------------------------------------------------------------------------------

*** tstop() called on ddmfs1 at Mon Jan 15 16:50:31 2024
Module time:
	user time   =   47741.95 seconds =     795.70 minutes
	system time =     711.33 seconds =      11.86 minutes
	total time  =      10958 seconds =     182.63 minutes
Total time:
	user time   =   48507.40 seconds =     808.46 minutes
	system time =     751.65 seconds =      12.53 minutes
	total time  =      11013 seconds =     183.55 minutes

    Psi4 stopped on: Monday, 15 January 2024 04:50PM
    Psi4 wall time for execution: 3:03:33.09

*** Psi4 exiting successfully. Buy a developer a beer!
