
    -----------------------------------------------------------------------
          Psi4: An Open-Source Ab Initio Electronic Structure Package
                               Psi4 1.8.2 release

                         Git: Rev {} zzzzzzz 


    D. G. A. Smith, L. A. Burns, A. C. Simmonett, R. M. Parrish,
    M. C. Schieber, R. Galvelis, P. Kraus, H. Kruse, R. Di Remigio,
    A. Alenaizan, A. M. James, S. Lehtola, J. P. Misiewicz, M. Scheurer,
    R. A. Shaw, J. B. Schriber, Y. Xie, Z. L. Glick, D. A. Sirianni,
    J. S. O'Brien, J. M. Waldrop, A. Kumar, E. G. Hohenstein,
    B. P. Pritchard, B. R. Brooks, H. F. Schaefer III, A. Yu. Sokolov,
    K. Patkowski, A. E. DePrince III, U. Bozkaya, R. A. King,
    F. A. Evangelista, J. M. Turney, T. D. Crawford, C. D. Sherrill,
    J. Chem. Phys. 152(18) 184108 (2020). https://doi.org/10.1063/5.0006002

                            Additional Code Authors
    E. T. Seidl, C. L. Janssen, E. F. Valeev, M. L. Leininger,
    J. F. Gonthier, R. M. Richard, H. R. McAlexander, M. Saitow, X. Wang,
    P. Verma, M. H. Lechner, A. Jiang, S. Behnle, A. G. Heide,
    M. F. Herbst, and D. L. Poole

             Previous Authors, Complete List of Code Contributors,
                       and Citations for Specific Modules
    https://github.com/psi4/psi4/blob/master/codemeta.json
    https://github.com/psi4/psi4/graphs/contributors
    http://psicode.org/psi4manual/master/introduction.html#citing-psifour

    -----------------------------------------------------------------------


    Psi4 started on: Sunday, 21 January 2024 08:51AM

    Process ID: 26574
    Host:       ddmfs1
    PSIDATADIR: /ddmfs1b/softs/psi4conda/share/psi4
    Memory:     500.0 MiB
    Threads:    20
    
  ==> Input File <==

--------------------------------------------------------------------------
MEMORY 60 GB

molecule dimer {
-1 1
Br     0.000000     0.000000     0.000000
--
0 1
O     -3.013040     1.056931    -1.652607
H     -3.813809     1.223376    -2.275182
H     -2.526972     0.362284    -2.116240
O      1.719771     0.511071     2.753016
H      1.308822     0.434263     1.867281
H      1.064406     1.091765     3.184491
O      2.086628    -1.623677    -2.132399
H      1.634885    -1.468970    -1.284862
H      2.494299    -0.787280    -2.350925
O      1.986251    -2.482713     1.611018
H      2.888043    -2.189647     1.545517
H      1.404825    -1.913044     1.045753
O     -1.890204    -2.588045    -0.295930
H     -1.108235    -1.992414    -0.188325
H     -2.004398    -3.102901     0.508548

units ang
no_reorient
no_com
symmetry c1
}

set {
basis        aug-cc-pVTZ
scf_type     df
}

energy("sapt2+")
--------------------------------------------------------------------------

  Memory set to  55.879 GiB by Python driver.

Scratch directory: /ddmfs1a/scratch/
   => Loading Basis Set <=

    Name: AUG-CC-PVTZ
    Role: ORBITAL
    Keyword: BASIS
    atoms 1                            entry BR         line  4208 file /ddmfs1b/softs/psi4conda/share/psi4/basis/aug-cc-pvtz.gbs 
    atoms 2, 5, 8, 11, 14              entry O          line   331 file /ddmfs1b/softs/psi4conda/share/psi4/basis/aug-cc-pvtz.gbs 
    atoms 3-4, 6-7, 9-10, 12-13, 15-16 entry H          line    40 file /ddmfs1b/softs/psi4conda/share/psi4/basis/aug-cc-pvtz.gbs 

   => Loading Basis Set <=

    Name: AUG-CC-PVTZ
    Role: ORBITAL
    Keyword: BASIS
    atoms 1                            entry BR         line  4208 file /ddmfs1b/softs/psi4conda/share/psi4/basis/aug-cc-pvtz.gbs 
    atoms 2, 5, 8, 11, 14              entry O          line   331 file /ddmfs1b/softs/psi4conda/share/psi4/basis/aug-cc-pvtz.gbs 
    atoms 3-4, 6-7, 9-10, 12-13, 15-16 entry H          line    40 file /ddmfs1b/softs/psi4conda/share/psi4/basis/aug-cc-pvtz.gbs 


  //>>>>>>>>>>>>>>>>>>>>>>>>>>>>>>>>>>>//
  //              Dimer HF             //
  //<<<<<<<<<<<<<<<<<<<<<<<<<<<<<<<<<<<//

   => Libint2 <=

    Primary   basis highest AM E, G, H:  5, 4, 3
    Auxiliary basis highest AM E, G, H:  6, 5, 4
    Onebody   basis highest AM E, G, H:  6, 5, 4
    Solid Harmonics ordering:            gaussian

*** tstart() called on ddmfs1
*** at Sun Jan 21 08:51:09 2024

   => Loading Basis Set <=

    Name: AUG-CC-PVTZ
    Role: ORBITAL
    Keyword: BASIS
    atoms 1                            entry BR         line  4208 file /ddmfs1b/softs/psi4conda/share/psi4/basis/aug-cc-pvtz.gbs 
    atoms 2, 5, 8, 11, 14              entry O          line   331 file /ddmfs1b/softs/psi4conda/share/psi4/basis/aug-cc-pvtz.gbs 
    atoms 3-4, 6-7, 9-10, 12-13, 15-16 entry H          line    40 file /ddmfs1b/softs/psi4conda/share/psi4/basis/aug-cc-pvtz.gbs 


         ---------------------------------------------------------
                                   SCF
               by Justin Turney, Rob Parrish, Andy Simmonett
                          and Daniel G. A. Smith
                              RHF Reference
                       20 Threads,  57220 MiB Core
         ---------------------------------------------------------

  ==> Geometry <==

    Molecular point group: c1
    Full point group: C1

    Geometry (in Angstrom), charge = -1, multiplicity = 1:

       Center              X                  Y                   Z               Mass       
    ------------   -----------------  -----------------  -----------------  -----------------
         BR           0.000000000000     0.000000000000     0.000000000000    78.918337600000
         O           -3.013040000000     1.056931000000    -1.652607000000    15.994914619570
         H           -3.813809000000     1.223376000000    -2.275182000000     1.007825032230
         H           -2.526972000000     0.362284000000    -2.116240000000     1.007825032230
         O            1.719771000000     0.511071000000     2.753016000000    15.994914619570
         H            1.308822000000     0.434263000000     1.867281000000     1.007825032230
         H            1.064406000000     1.091765000000     3.184491000000     1.007825032230
         O            2.086628000000    -1.623677000000    -2.132399000000    15.994914619570
         H            1.634885000000    -1.468970000000    -1.284862000000     1.007825032230
         H            2.494299000000    -0.787280000000    -2.350925000000     1.007825032230
         O            1.986251000000    -2.482713000000     1.611018000000    15.994914619570
         H            2.888043000000    -2.189647000000     1.545517000000     1.007825032230
         H            1.404825000000    -1.913044000000     1.045753000000     1.007825032230
         O           -1.890204000000    -2.588045000000    -0.295930000000    15.994914619570
         H           -1.108235000000    -1.992414000000    -0.188325000000     1.007825032230
         H           -2.004398000000    -3.102901000000     0.508548000000     1.007825032230

  Running in c1 symmetry.

  Rotational constants: A =      0.03567  B =      0.02264  C =      0.01936 [cm^-1]
  Rotational constants: A =   1069.45678  B =    678.65428  C =    580.29145 [MHz]
  Nuclear repulsion =  435.831334537725809

  Charge       = -1
  Multiplicity = 1
  Electrons    = 86
  Nalpha       = 43
  Nbeta        = 43

  ==> Algorithm <==

  SCF Algorithm Type is DF.
  DIIS enabled.
  MOM disabled.
  Fractional occupation disabled.
  Guess Type is SAD.
  Energy threshold   = 1.00e-08
  Density threshold  = 1.00e-08
  Integral threshold = 1.00e-12

  ==> Primary Basis <==

  Basis Set: AUG-CC-PVTZ
    Blend: AUG-CC-PVTZ
    Number of shells: 179
    Number of basis functions: 519
    Number of Cartesian functions: 594
    Spherical Harmonics?: true
    Max angular momentum: 3

   => Loading Basis Set <=

    Name: (AUG-CC-PVTZ AUX)
    Role: JKFIT
    Keyword: DF_BASIS_SCF
    atoms 1                            entry BR         line  1492 file /ddmfs1b/softs/psi4conda/share/psi4/basis/aug-cc-pvtz-jkfit.gbs 
    atoms 2, 5, 8, 11, 14              entry O          line   286 file /ddmfs1b/softs/psi4conda/share/psi4/basis/aug-cc-pvtz-jkfit.gbs 
    atoms 3-4, 6-7, 9-10, 12-13, 15-16 entry H          line    70 file /ddmfs1b/softs/psi4conda/share/psi4/basis/aug-cc-pvtz-jkfit.gbs 

  ==> Integral Setup <==

  ==> DiskDFJK: Density-Fitted J/K Matrices <==

    J tasked:                  Yes
    K tasked:                  Yes
    wK tasked:                  No
    OpenMP threads:             20
    Integrals threads:          20
    Memory [MiB]:            42915
    Algorithm:                Core
    Integral Cache:           SAVE
    Schwarz Cutoff:          1E-12
    Fitting Condition:       1E-10

   => Auxiliary Basis Set <=

  Basis Set: (AUG-CC-PVTZ AUX)
    Blend: AUG-CC-PVTZ-JKFIT
    Number of shells: 348
    Number of basis functions: 1228
    Number of Cartesian functions: 1534
    Spherical Harmonics?: true
    Max angular momentum: 4

  Minimum eigenvalue in the overlap matrix is 1.5406099629E-04.
  Reciprocal condition number of the overlap matrix is 1.2802956821E-05.
    Using symmetric orthogonalization.

  ==> Pre-Iterations <==

  SCF Guess: Superposition of Atomic Densities via on-the-fly atomic UHF (no occupation information).

   -------------------------
    Irrep   Nso     Nmo    
   -------------------------
     A        519     519 
   -------------------------
    Total     519     519
   -------------------------

  ==> Iterations <==

                           Total Energy        Delta E     RMS |[F,P]|

   @DF-RHF iter SAD: -2948.03320364172669   -2.94803e+03   0.00000e+00 
   @DF-RHF iter   1: -2952.23263456451150   -4.19943e+00   2.81635e-03 ADIIS/DIIS
   @DF-RHF iter   2: -2952.65654972920629   -4.23915e-01   1.69463e-03 ADIIS/DIIS
   @DF-RHF iter   3: -2952.85607237509112   -1.99523e-01   1.38743e-04 ADIIS/DIIS
   @DF-RHF iter   4: -2952.85864767202020   -2.57530e-03   6.56016e-05 DIIS
   @DF-RHF iter   5: -2952.85917309306433   -5.25421e-04   1.01386e-05 DIIS
   @DF-RHF iter   6: -2952.85920750283640   -3.44098e-05   2.87415e-06 DIIS
   @DF-RHF iter   7: -2952.85921032072838   -2.81789e-06   1.20620e-06 DIIS
   @DF-RHF iter   8: -2952.85921062472380   -3.03995e-07   3.80506e-07 DIIS
   @DF-RHF iter   9: -2952.85921066589799   -4.11742e-08   6.59697e-08 DIIS
   @DF-RHF iter  10: -2952.85921066734090   -1.44291e-09   1.98527e-08 DIIS
   @DF-RHF iter  11: -2952.85921066743458   -9.36780e-11   6.42157e-09 DIIS
  Energy and wave function converged.


  ==> Post-Iterations <==

    Orbital Energies [Eh]
    ---------------------

    Doubly Occupied:                                                      

       1A   -489.785995     2A    -64.926533     3A    -58.281041  
       4A    -58.280989     5A    -58.280977     6A    -20.452429  
       7A    -20.420420     8A    -20.415094     9A    -20.412428  
      10A    -20.407328    11A     -9.598973    12A     -7.206658  
      13A     -7.206447    14A     -7.206236    15A     -2.948331  
      16A     -2.948259    17A     -2.948039    18A     -2.947742  
      19A     -2.947708    20A     -1.212832    21A     -1.204981  
      22A     -1.195446    23A     -1.190830    24A     -1.185590  
      25A     -0.766871    26A     -0.574671    27A     -0.570084  
      28A     -0.569816    29A     -0.562046    30A     -0.543897  
      31A     -0.456702    32A     -0.443229    33A     -0.440818  
      34A     -0.426761    35A     -0.421606    36A     -0.384834  
      37A     -0.366931    38A     -0.363522    39A     -0.351873  
      40A     -0.349725    41A     -0.215450    42A     -0.213315  
      43A     -0.208986  

    Virtual:                                                              

      44A      0.109988    45A      0.122628    46A      0.127738  
      47A      0.131910    48A      0.138776    49A      0.156500  
      50A      0.171169    51A      0.181070    52A      0.187973  
      53A      0.202137    54A      0.222175    55A      0.237870  
      56A      0.248342    57A      0.253244    58A      0.263169  
      59A      0.267361    60A      0.271576    61A      0.280449  
      62A      0.287402    63A      0.290705    64A      0.296648  
      65A      0.300093    66A      0.305007    67A      0.308511  
      68A      0.317597    69A      0.324957    70A      0.330767  
      71A      0.333688    72A      0.340654    73A      0.348928  
      74A      0.356218    75A      0.364108    76A      0.368735  
      77A      0.371786    78A      0.377793    79A      0.393030  
      80A      0.400798    81A      0.404991    82A      0.415348  
      83A      0.422678    84A      0.426385    85A      0.431054  
      86A      0.443714    87A      0.450618    88A      0.454674  
      89A      0.464498    90A      0.470341    91A      0.473547  
      92A      0.479768    93A      0.490297    94A      0.490737  
      95A      0.503135    96A      0.510162    97A      0.520828  
      98A      0.523519    99A      0.529379   100A      0.539848  
     101A      0.547127   102A      0.551890   103A      0.558174  
     104A      0.564257   105A      0.572210   106A      0.579213  
     107A      0.584343   108A      0.589448   109A      0.591869  
     110A      0.605064   111A      0.622355   112A      0.631142  
     113A      0.647159   114A      0.661527   115A      0.665975  
     116A      0.677525   117A      0.685123   118A      0.705250  
     119A      0.711388   120A      0.716513   121A      0.736939  
     122A      0.757308   123A      0.763232   124A      0.795698  
     125A      0.798328   126A      0.819811   127A      0.824998  
     128A      0.833001   129A      0.842814   130A      0.844542  
     131A      0.853617   132A      0.858620   133A      0.862576  
     134A      0.870401   135A      0.874359   136A      0.879653  
     137A      0.885236   138A      0.892953   139A      0.896835  
     140A      0.901373   141A      0.903299   142A      0.910595  
     143A      0.914090   144A      0.923018   145A      0.935900  
     146A      0.942982   147A      0.945049   148A      0.955488  
     149A      0.960940   150A      0.969011   151A      0.981420  
     152A      0.983855   153A      0.997734   154A      1.011858  
     155A      1.016768   156A      1.021990   157A      1.028090  
     158A      1.034652   159A      1.044992   160A      1.046477  
     161A      1.056170   162A      1.063184   163A      1.063791  
     164A      1.067190   165A      1.074676   166A      1.080756  
     167A      1.089047   168A      1.092624   169A      1.100054  
     170A      1.104045   171A      1.105830   172A      1.114606  
     173A      1.122328   174A      1.129069   175A      1.134213  
     176A      1.141812   177A      1.149128   178A      1.153215  
     179A      1.157511   180A      1.166141   181A      1.171121  
     182A      1.174420   183A      1.183550   184A      1.191222  
     185A      1.194595   186A      1.199736   187A      1.205848  
     188A      1.215533   189A      1.222594   190A      1.225224  
     191A      1.234043   192A      1.243882   193A      1.249464  
     194A      1.255635   195A      1.263417   196A      1.280527  
     197A      1.284306   198A      1.302554   199A      1.313483  
     200A      1.315855   201A      1.321037   202A      1.330112  
     203A      1.342738   204A      1.351500   205A      1.358259  
     206A      1.368906   207A      1.372183   208A      1.384802  
     209A      1.395211   210A      1.404519   211A      1.422621  
     212A      1.425713   213A      1.430934   214A      1.439718  
     215A      1.443409   216A      1.459437   217A      1.471979  
     218A      1.492458   219A      1.510098   220A      1.521262  
     221A      1.527682   222A      1.538429   223A      1.554544  
     224A      1.577408   225A      1.594912   226A      1.606886  
     227A      1.617392   228A      1.627764   229A      1.633779  
     230A      1.662250   231A      1.677887   232A      1.688777  
     233A      1.698362   234A      1.702446   235A      1.708478  
     236A      1.712090   237A      1.728878   238A      1.735804  
     239A      1.741564   240A      1.746786   241A      1.761307  
     242A      1.777686   243A      1.783862   244A      1.799432  
     245A      1.822863   246A      1.833382   247A      1.857891  
     248A      1.861826   249A      1.900294   250A      1.910716  
     251A      1.926846   252A      1.942642   253A      1.965046  
     254A      1.972582   255A      1.998232   256A      2.030836  
     257A      2.040990   258A      2.065289   259A      2.080827  
     260A      2.083968   261A      2.094321   262A      2.117616  
     263A      2.119860   264A      2.137942   265A      2.178498  
     266A      2.202611   267A      2.230171   268A      2.249876  
     269A      2.254921   270A      2.407437   271A      2.422645  
     272A      2.428621   273A      2.443029   274A      2.455112  
     275A      2.460489   276A      2.468236   277A      2.495671  
     278A      2.502501   279A      2.512213   280A      2.516335  
     281A      2.523855   282A      2.537373   283A      2.543211  
     284A      2.547750   285A      2.556844   286A      2.565769  
     287A      2.581233   288A      2.584091   289A      2.594846  
     290A      2.596518   291A      2.607035   292A      2.620128  
     293A      2.625863   294A      2.630555   295A      2.637273  
     296A      2.638726   297A      2.648843   298A      2.656102  
     299A      2.661818   300A      2.677832   301A      2.682293  
     302A      2.685772   303A      2.705111   304A      2.707320  
     305A      2.712720   306A      2.731780   307A      2.744527  
     308A      2.750126   309A      2.754205   310A      2.773297  
     311A      2.786006   312A      2.793465   313A      2.808892  
     314A      2.820286   315A      2.841154   316A      2.857059  
     317A      2.866087   318A      2.878610   319A      2.882714  
     320A      2.903520   321A      2.914155   322A      2.924705  
     323A      2.930232   324A      2.942971   325A      2.952704  
     326A      2.969215   327A      2.988048   328A      2.997895  
     329A      3.005452   330A      3.014680   331A      3.024758  
     332A      3.027686   333A      3.042100   334A      3.052880  
     335A      3.071974   336A      3.086718   337A      3.109050  
     338A      3.119265   339A      3.138469   340A      3.144231  
     341A      3.184729   342A      3.195289   343A      3.215888  
     344A      3.230640   345A      3.277254   346A      3.307691  
     347A      3.337423   348A      3.361598   349A      3.753886  
     350A      3.860426   351A      3.888821   352A      3.910329  
     353A      3.913855   354A      3.945177   355A      4.072442  
     356A      4.096272   357A      4.123559   358A      4.135453  
     359A      4.148358   360A      4.198285   361A      4.222994  
     362A      4.232084   363A      4.250302   364A      4.274333  
     365A      4.296882   366A      4.320949   367A      4.364582  
     368A      4.378344   369A      4.392169   370A      4.402927  
     371A      4.408813   372A      4.417119   373A      4.420186  
     374A      4.432064   375A      4.443721   376A      4.448282  
     377A      4.454782   378A      4.462098   379A      4.473870  
     380A      4.488671   381A      4.501449   382A      4.512711  
     383A      4.521606   384A      4.531309   385A      4.546827  
     386A      4.553453   387A      4.555455   388A      4.577612  
     389A      4.596983   390A      4.604799   391A      4.616220  
     392A      4.618498   393A      4.629528   394A      4.640439  
     395A      4.657799   396A      4.672939   397A      4.705084  
     398A      4.706863   399A      4.747608   400A      4.757259  
     401A      4.765549   402A      4.799661   403A      4.809755  
     404A      4.841204   405A      4.898943   406A      4.917569  
     407A      4.921757   408A      4.944207   409A      4.962359  
     410A      5.055163   411A      5.071776   412A      5.075527  
     413A      5.103953   414A      5.159021   415A      5.188939  
     416A      5.265765   417A      5.274103   418A      5.293698  
     419A      5.305571   420A      5.323272   421A      5.327477  
     422A      5.335072   423A      5.342963   424A      5.390322  
     425A      5.392281   426A      5.443233   427A      5.476077  
     428A      5.484592   429A      5.498652   430A      5.509769  
     431A      5.527381   432A      5.551651   433A      5.562810  
     434A      5.566351   435A      5.627316   436A      5.643406  
     437A      5.669465   438A      5.681676   439A      5.703098  
     440A      5.764931   441A      5.815403   442A      5.880782  
     443A      5.944706   444A      5.963891   445A      6.314640  
     446A      6.327556   447A      6.348286   448A      6.366486  
     449A      6.449950   450A      6.681039   451A      6.703549  
     452A      6.706513   453A      6.750567   454A      6.754188  
     455A      6.852034   456A      6.924691   457A      6.938464  
     458A      6.959617   459A      6.972055   460A      7.005845  
     461A      7.032017   462A      7.050382   463A      7.087807  
     464A      7.142112   465A      7.189126   466A      7.277762  
     467A      7.298857   468A      7.318656   469A      7.347529  
     470A      7.355858   471A      7.373833   472A      7.389392  
     473A      7.425113   474A      7.442337   475A      7.449598  
     476A      7.453226   477A      7.460492   478A      7.464900  
     479A      7.470352   480A      7.485438   481A      7.488723  
     482A      7.491134   483A      7.502237   484A      7.503602  
     485A      7.515896   486A      7.529022   487A      7.539677  
     488A      7.571714   489A      7.579121   490A      7.601175  
     491A      7.607442   492A      7.621734   493A      7.641007  
     494A      7.674229   495A      7.699955   496A      7.828239  
     497A      7.875744   498A      7.900750   499A      7.926032  
     500A      7.957467   501A      8.000812   502A      8.052955  
     503A      8.058016   504A      8.069691   505A      8.112368  
     506A      8.127804   507A      8.139180   508A      8.173211  
     509A      8.193809   510A      8.739135   511A      8.884019  
     512A      8.895421   513A      8.963097   514A      8.966008  
     515A     14.999960   516A     16.121589   517A     16.240389  
     518A     16.343359   519A     16.557732  

    Final Occupation by Irrep:
              A 
    DOCC [    43 ]
    NA   [    43 ]
    NB   [    43 ]

  @DF-RHF Final Energy: -2952.85921066743458

   => Energetics <=

    Nuclear Repulsion Energy =            435.8313345377258088
    One-Electron Energy =               -4993.6961992445003489
    Two-Electron Energy =                1605.0056540393400155
    Total Energy =                      -2952.8592106674350362

Computation Completed


Properties will be evaluated at   0.000000,   0.000000,   0.000000 [a0]

Properties computed using the SCF density matrix


 Multipole Moments:

 ------------------------------------------------------------------------------------
     Multipole            Electronic (a.u.)      Nuclear  (a.u.)        Total (a.u.)
 ------------------------------------------------------------------------------------

 L = 1.  Multiply by 2.5417464519 to convert [e a0] to [Debye]
 Dipole X            :        -16.6377890           15.9816293           -0.6561597
 Dipole Y            :         95.1482854          -93.2656037            1.8826817
 Dipole Z            :         -4.7213681            4.1589848           -0.5623832
 Magnitude           :                                                    2.0715480

 ------------------------------------------------------------------------------------

*** tstop() called on ddmfs1 at Sun Jan 21 08:51:26 2024
Module time:
	user time   =     209.17 seconds =       3.49 minutes
	system time =      20.24 seconds =       0.34 minutes
	total time  =         17 seconds =       0.28 minutes
Total time:
	user time   =     209.17 seconds =       3.49 minutes
	system time =      20.24 seconds =       0.34 minutes
	total time  =         17 seconds =       0.28 minutes

  //>>>>>>>>>>>>>>>>>>>>>>>>>>>>>>>>>>>//
  //            Monomer A HF           //
  //<<<<<<<<<<<<<<<<<<<<<<<<<<<<<<<<<<<//

   => Libint2 <=

    Primary   basis highest AM E, G, H:  5, 4, 3
    Auxiliary basis highest AM E, G, H:  6, 5, 4
    Onebody   basis highest AM E, G, H:  6, 5, 4
    Solid Harmonics ordering:            gaussian

*** tstart() called on ddmfs1
*** at Sun Jan 21 08:51:26 2024

   => Loading Basis Set <=

    Name: AUG-CC-PVTZ
    Role: ORBITAL
    Keyword: BASIS
    atoms 1                            entry BR         line  4208 file /ddmfs1b/softs/psi4conda/share/psi4/basis/aug-cc-pvtz.gbs 
    atoms 2, 5, 8, 11, 14              entry O          line   331 file /ddmfs1b/softs/psi4conda/share/psi4/basis/aug-cc-pvtz.gbs 
    atoms 3-4, 6-7, 9-10, 12-13, 15-16 entry H          line    40 file /ddmfs1b/softs/psi4conda/share/psi4/basis/aug-cc-pvtz.gbs 


         ---------------------------------------------------------
                                   SCF
               by Justin Turney, Rob Parrish, Andy Simmonett
                          and Daniel G. A. Smith
                              RHF Reference
                       20 Threads,  57220 MiB Core
         ---------------------------------------------------------

  ==> Geometry <==

    Molecular point group: c1
    Full point group: C1

    Geometry (in Angstrom), charge = -1, multiplicity = 1:

       Center              X                  Y                   Z               Mass       
    ------------   -----------------  -----------------  -----------------  -----------------
         BR           0.000000000000     0.000000000000     0.000000000000    78.918337600000
      Gh(O)          -3.013040000000     1.056931000000    -1.652607000000    15.994914619570
      Gh(H)          -3.813809000000     1.223376000000    -2.275182000000     1.007825032230
      Gh(H)          -2.526972000000     0.362284000000    -2.116240000000     1.007825032230
      Gh(O)           1.719771000000     0.511071000000     2.753016000000    15.994914619570
      Gh(H)           1.308822000000     0.434263000000     1.867281000000     1.007825032230
      Gh(H)           1.064406000000     1.091765000000     3.184491000000     1.007825032230
      Gh(O)           2.086628000000    -1.623677000000    -2.132399000000    15.994914619570
      Gh(H)           1.634885000000    -1.468970000000    -1.284862000000     1.007825032230
      Gh(H)           2.494299000000    -0.787280000000    -2.350925000000     1.007825032230
      Gh(O)           1.986251000000    -2.482713000000     1.611018000000    15.994914619570
      Gh(H)           2.888043000000    -2.189647000000     1.545517000000     1.007825032230
      Gh(H)           1.404825000000    -1.913044000000     1.045753000000     1.007825032230
      Gh(O)          -1.890204000000    -2.588045000000    -0.295930000000    15.994914619570
      Gh(H)          -1.108235000000    -1.992414000000    -0.188325000000     1.007825032230
      Gh(H)          -2.004398000000    -3.102901000000     0.508548000000     1.007825032230

  Running in c1 symmetry.

  Rotational constants: A =      0.03567  B =      0.02264  C =      0.01936 [cm^-1]
  Rotational constants: A =   1069.45678  B =    678.65428  C =    580.29145 [MHz]
  Nuclear repulsion =    0.000000000000000

  Charge       = -1
  Multiplicity = 1
  Electrons    = 36
  Nalpha       = 18
  Nbeta        = 18

  ==> Algorithm <==

  SCF Algorithm Type is DF.
  DIIS enabled.
  MOM disabled.
  Fractional occupation disabled.
  Guess Type is SAD.
  Energy threshold   = 1.00e-08
  Density threshold  = 1.00e-08
  Integral threshold = 1.00e-12

  ==> Primary Basis <==

  Basis Set: AUG-CC-PVTZ
    Blend: AUG-CC-PVTZ
    Number of shells: 179
    Number of basis functions: 519
    Number of Cartesian functions: 594
    Spherical Harmonics?: true
    Max angular momentum: 3

   => Loading Basis Set <=

    Name: (AUG-CC-PVTZ AUX)
    Role: JKFIT
    Keyword: DF_BASIS_SCF
    atoms 1                            entry BR         line  1492 file /ddmfs1b/softs/psi4conda/share/psi4/basis/aug-cc-pvtz-jkfit.gbs 
    atoms 2, 5, 8, 11, 14              entry O          line   286 file /ddmfs1b/softs/psi4conda/share/psi4/basis/aug-cc-pvtz-jkfit.gbs 
    atoms 3-4, 6-7, 9-10, 12-13, 15-16 entry H          line    70 file /ddmfs1b/softs/psi4conda/share/psi4/basis/aug-cc-pvtz-jkfit.gbs 

  ==> Integral Setup <==

  ==> DiskDFJK: Density-Fitted J/K Matrices <==

    J tasked:                  Yes
    K tasked:                  Yes
    wK tasked:                  No
    OpenMP threads:             20
    Integrals threads:          20
    Memory [MiB]:            42915
    Algorithm:                Core
    Integral Cache:           LOAD
    Schwarz Cutoff:          1E-12
    Fitting Condition:       1E-10

   => Auxiliary Basis Set <=

  Basis Set: (AUG-CC-PVTZ AUX)
    Blend: AUG-CC-PVTZ-JKFIT
    Number of shells: 348
    Number of basis functions: 1228
    Number of Cartesian functions: 1534
    Spherical Harmonics?: true
    Max angular momentum: 4

  Minimum eigenvalue in the overlap matrix is 1.5406099629E-04.
  Reciprocal condition number of the overlap matrix is 1.2802956821E-05.
    Using symmetric orthogonalization.

  ==> Pre-Iterations <==

  SCF Guess: Superposition of Atomic Densities via on-the-fly atomic UHF (no occupation information).

   -------------------------
    Irrep   Nso     Nmo    
   -------------------------
     A        519     519 
   -------------------------
    Total     519     519
   -------------------------

  ==> Iterations <==

                           Total Energy        Delta E     RMS |[F,P]|

   @DF-RHF iter SAD: -2570.41423565555624   -2.57041e+03   0.00000e+00 
   @DF-RHF iter   1: -2572.25182310655555   -1.83759e+00   2.09265e-03 ADIIS/DIIS
   @DF-RHF iter   2: -2572.46201933056773   -2.10196e-01   1.17249e-03 ADIIS/DIIS
   @DF-RHF iter   3: -2572.53368859948705   -7.16693e-02   1.64851e-05 DIIS
   @DF-RHF iter   4: -2572.53372381117788   -3.52117e-05   2.45342e-06 DIIS
   @DF-RHF iter   5: -2572.53372565751079   -1.84633e-06   6.17727e-07 DIIS
   @DF-RHF iter   6: -2572.53372578547896   -1.27968e-07   1.28459e-07 DIIS
   @DF-RHF iter   7: -2572.53372580331643   -1.78375e-08   9.67907e-09 DIIS
   @DF-RHF iter   8: -2572.53372580337600   -5.95719e-11   2.20606e-09 DIIS
  Energy and wave function converged.


  ==> Post-Iterations <==

    Orbital Energies [Eh]
    ---------------------

    Doubly Occupied:                                                      

       1A   -489.722080     2A    -64.861701     3A    -58.216233  
       4A    -58.216231     5A    -58.216230     6A     -9.533260  
       7A     -7.140599     8A     -7.140587     9A     -7.140575  
      10A     -2.882301    11A     -2.882298    12A     -2.882285  
      13A     -2.882276    14A     -2.882266    15A     -0.685991  
      16A     -0.139336    17A     -0.139335    18A     -0.139330  

    Virtual:                                                              

      19A      0.115827    20A      0.120590    21A      0.128187  
      22A      0.134005    23A      0.138800    24A      0.158409  
      25A      0.163757    26A      0.169005    27A      0.182705  
      28A      0.191613    29A      0.215943    30A      0.231304  
      31A      0.241626    32A      0.245617    33A      0.256721  
      34A      0.261029    35A      0.262627    36A      0.268880  
      37A      0.271001    38A      0.275580    39A      0.281626  
      40A      0.293620    41A      0.296962    42A      0.301432  
      43A      0.304390    44A      0.306373    45A      0.313080  
      46A      0.318374    47A      0.328197    48A      0.336447  
      49A      0.345245    50A      0.352252    51A      0.362673  
      52A      0.382968    53A      0.393128    54A      0.403142  
      55A      0.405032    56A      0.428685    57A      0.431232  
      58A      0.434494    59A      0.447718    60A      0.452494  
      61A      0.460841    62A      0.466843    63A      0.467239  
      64A      0.473747    65A      0.474780    66A      0.479133  
      67A      0.484874    68A      0.489316    69A      0.494443  
      70A      0.502664    71A      0.504468    72A      0.514322  
      73A      0.522918    74A      0.529247    75A      0.531308  
      76A      0.537729    77A      0.544844    78A      0.551896  
      79A      0.556191    80A      0.570010    81A      0.574504  
      82A      0.586280    83A      0.590659    84A      0.598046  
      85A      0.612498    86A      0.626675    87A      0.633298  
      88A      0.653957    89A      0.657015    90A      0.676937  
      91A      0.686281    92A      0.702295    93A      0.708605  
      94A      0.723777    95A      0.742739    96A      0.745699  
      97A      0.764299    98A      0.780413    99A      0.792965  
     100A      0.813648   101A      0.828723   102A      0.842902  
     103A      0.849770   104A      0.854413   105A      0.865499  
     106A      0.876291   107A      0.887299   108A      0.896939  
     109A      0.904992   110A      0.912190   111A      0.920402  
     112A      0.928901   113A      0.930950   114A      0.943921  
     115A      0.947290   116A      0.952160   117A      0.954684  
     118A      0.966578   119A      0.970391   120A      0.973935  
     121A      0.976077   122A      0.979559   123A      0.984778  
     124A      0.988810   125A      0.995060   126A      1.006183  
     127A      1.010491   128A      1.017133   129A      1.024532  
     130A      1.029540   131A      1.030377   132A      1.039710  
     133A      1.041345   134A      1.047745   135A      1.051681  
     136A      1.063127   137A      1.068873   138A      1.075558  
     139A      1.078318   140A      1.084413   141A      1.092829  
     142A      1.094195   143A      1.103374   144A      1.108655  
     145A      1.114853   146A      1.126377   147A      1.130841  
     148A      1.135388   149A      1.138011   150A      1.150466  
     151A      1.159275   152A      1.163935   153A      1.165049  
     154A      1.168902   155A      1.177365   156A      1.185818  
     157A      1.188505   158A      1.195376   159A      1.201633  
     160A      1.213659   161A      1.216162   162A      1.219373  
     163A      1.224026   164A      1.237066   165A      1.245548  
     166A      1.247518   167A      1.253092   168A      1.260208  
     169A      1.280182   170A      1.286640   171A      1.293622  
     172A      1.306523   173A      1.309966   174A      1.323815  
     175A      1.336483   176A      1.355646   177A      1.362129  
     178A      1.373189   179A      1.378404   180A      1.387277  
     181A      1.403444   182A      1.414860   183A      1.426039  
     184A      1.433645   185A      1.443739   186A      1.456254  
     187A      1.468169   188A      1.481412   189A      1.490767  
     190A      1.499693   191A      1.508530   192A      1.532739  
     193A      1.556971   194A      1.565635   195A      1.569166  
     196A      1.580529   197A      1.596247   198A      1.611449  
     199A      1.627654   200A      1.634539   201A      1.652944  
     202A      1.661676   203A      1.674914   204A      1.696210  
     205A      1.701794   206A      1.708407   207A      1.730176  
     208A      1.753620   209A      1.772251   210A      1.794611  
     211A      1.812220   212A      1.819519   213A      1.832271  
     214A      1.847713   215A      1.862749   216A      1.869315  
     217A      1.877771   218A      1.887855   219A      1.901032  
     220A      1.902526   221A      1.915681   222A      1.922777  
     223A      1.926908   224A      1.941187   225A      1.954397  
     226A      1.961884   227A      1.970759   228A      1.979157  
     229A      1.993093   230A      2.003432   231A      2.016446  
     232A      2.028962   233A      2.040420   234A      2.060613  
     235A      2.072697   236A      2.078905   237A      2.094222  
     238A      2.110917   239A      2.120700   240A      2.149345  
     241A      2.151039   242A      2.188146   243A      2.226137  
     244A      2.248624   245A      2.283951   246A      2.347234  
     247A      2.379930   248A      2.387442   249A      2.526501  
     250A      2.561082   251A      2.578977   252A      2.588679  
     253A      2.597173   254A      2.610862   255A      2.625498  
     256A      2.632285   257A      2.635120   258A      2.648471  
     259A      2.654918   260A      2.659793   261A      2.678362  
     262A      2.679879   263A      2.683000   264A      2.687214  
     265A      2.694488   266A      2.701018   267A      2.711370  
     268A      2.718149   269A      2.722311   270A      2.738921  
     271A      2.743840   272A      2.753269   273A      2.757168  
     274A      2.766948   275A      2.771417   276A      2.780747  
     277A      2.784896   278A      2.798664   279A      2.811248  
     280A      2.812909   281A      2.820326   282A      2.835973  
     283A      2.850993   284A      2.856824   285A      2.870368  
     286A      2.880243   287A      2.892669   288A      2.895914  
     289A      2.907400   290A      2.912175   291A      2.926777  
     292A      2.941696   293A      2.971097   294A      3.006005  
     295A      3.018736   296A      3.024698   297A      3.030445  
     298A      3.037990   299A      3.066219   300A      3.071495  
     301A      3.101484   302A      3.145839   303A      3.176525  
     304A      3.187671   305A      3.210069   306A      3.222615  
     307A      3.258702   308A      3.274361   309A      3.288548  
     310A      3.310135   311A      3.359495   312A      3.367735  
     313A      3.375294   314A      3.381444   315A      3.395409  
     316A      3.398326   317A      3.403078   318A      3.422869  
     319A      3.425544   320A      3.447824   321A      3.461994  
     322A      3.481781   323A      3.522756   324A      3.544735  
     325A      3.558446   326A      3.570551   327A      3.591180  
     328A      3.636916   329A      3.649358   330A      3.674127  
     331A      3.694207   332A      3.705959   333A      3.737432  
     334A      3.766143   335A      3.784756   336A      3.813806  
     337A      3.829941   338A      3.870144   339A      3.876918  
     340A      3.967457   341A      3.998213   342A      4.009147  
     343A      4.055680   344A      4.465689   345A      4.541162  
     346A      4.556577   347A      4.584038   348A      4.595726  
     349A      4.609037   350A      4.623761   351A      4.625082  
     352A      4.631850   353A      4.638869   354A      4.664049  
     355A      4.708880   356A      4.715777   357A      4.739856  
     358A      4.751573   359A      4.753113   360A      4.775640  
     361A      4.798909   362A      4.802394   363A      4.814866  
     364A      4.827178   365A      4.852459   366A      4.859923  
     367A      4.861632   368A      4.874323   369A      4.882354  
     370A      4.944767   371A      5.005096   372A      5.015921  
     373A      5.034378   374A      5.036870   375A      5.038591  
     376A      5.050633   377A      5.058761   378A      5.084353  
     379A      5.096286   380A      5.111007   381A      5.123162  
     382A      5.138093   383A      5.159515   384A      5.177714  
     385A      5.191573   386A      5.285988   387A      5.296077  
     388A      5.345622   389A      5.348575   390A      5.388503  
     391A      5.413659   392A      5.443615   393A      5.482731  
     394A      5.547815   395A      5.569804   396A      5.636188  
     397A      5.652177   398A      5.689526   399A      5.720363  
     400A      5.724008   401A      5.755583   402A      5.761696  
     403A      5.773108   404A      5.799703   405A      5.818108  
     406A      5.818814   407A      5.837333   408A      5.841250  
     409A      5.869428   410A      5.915641   411A      5.984583  
     412A      5.994861   413A      6.051175   414A      6.094251  
     415A      6.242408   416A      6.309514   417A      6.331485  
     418A      6.339735   419A      6.367036   420A      6.406987  
     421A      6.494775   422A      6.531604   423A      6.581214  
     424A      6.592842   425A      6.614380   426A      6.779094  
     427A      6.844893   428A      6.921671   429A      6.954946  
     430A      7.079172   431A      7.211149   432A      7.218104  
     433A      7.251179   434A      7.256572   435A      7.817462  
     436A      7.860527   437A      7.887860   438A      7.906873  
     439A      7.909565   440A      7.936737   441A      7.944779  
     442A      7.968590   443A      8.000647   444A      8.056292  
     445A      8.121719   446A      8.179399   447A      8.208300  
     448A      8.238570   449A      8.252985   450A      8.276303  
     451A      8.322394   452A      8.369502   453A      8.389821  
     454A      8.417129   455A      8.421573   456A      8.434408  
     457A      8.443612   458A      8.447657   459A      8.471314  
     460A      8.698516   461A      8.840619   462A      8.890434  
     463A      8.907437   464A      8.927152   465A      8.962090  
     466A      9.051203   467A      9.089089   468A      9.098576  
     469A      9.153497   470A      9.782175   471A      9.838988  
     472A      9.852344   473A      9.870501   474A      9.914068  
     475A      9.988468   476A     10.024167   477A     10.047025  
     478A     10.051363   479A     10.088690   480A     10.128899  
     481A     10.224245   482A     10.235146   483A     10.252069  
     484A     10.289044   485A     10.370849   486A     10.412046  
     487A     10.469690   488A     10.475139   489A     10.499182  
     490A     11.076637   491A     11.250817   492A     11.263914  
     493A     11.344007   494A     11.372487   495A     11.687470  
     496A     11.880131   497A     11.894546   498A     11.913095  
     499A     11.945349   500A     11.974031   501A     12.166982  
     502A     12.208229   503A     12.272257   504A     12.293280  
     505A     13.498483   506A     13.681981   507A     13.732555  
     508A     13.747747   509A     13.766490   510A     13.990503  
     511A     14.082515   512A     14.127337   513A     14.141949  
     514A     14.154160   515A     63.088685   516A     65.389703  
     517A     65.656886   518A     65.740851   519A     66.241194  

    Final Occupation by Irrep:
              A 
    DOCC [    18 ]
    NA   [    18 ]
    NB   [    18 ]

  @DF-RHF Final Energy: -2572.53372580337600

   => Energetics <=

    Nuclear Repulsion Energy =              0.0000000000000000
    One-Electron Energy =               -3593.6616235769256491
    Two-Electron Energy =                1021.1278977735495346
    Total Energy =                      -2572.5337258033760008

Computation Completed


Properties will be evaluated at   0.000000,   0.000000,   0.000000 [a0]

Properties computed using the SCF density matrix


 Multipole Moments:

 ------------------------------------------------------------------------------------
     Multipole            Electronic (a.u.)      Nuclear  (a.u.)        Total (a.u.)
 ------------------------------------------------------------------------------------

 L = 1.  Multiply by 2.5417464519 to convert [e a0] to [Debye]
 Dipole X            :          0.0001439            0.0000000            0.0001439
 Dipole Y            :         -0.0002536            0.0000000           -0.0002536
 Dipole Z            :          0.0000142            0.0000000            0.0000142
 Magnitude           :                                                    0.0002919

 ------------------------------------------------------------------------------------

*** tstop() called on ddmfs1 at Sun Jan 21 08:51:37 2024
Module time:
	user time   =     130.40 seconds =       2.17 minutes
	system time =       7.26 seconds =       0.12 minutes
	total time  =         11 seconds =       0.18 minutes
Total time:
	user time   =     339.69 seconds =       5.66 minutes
	system time =      27.50 seconds =       0.46 minutes
	total time  =         28 seconds =       0.47 minutes

  //>>>>>>>>>>>>>>>>>>>>>>>>>>>>>>>>>>>//
  //            Monomer B HF           //
  //<<<<<<<<<<<<<<<<<<<<<<<<<<<<<<<<<<<//

   => Libint2 <=

    Primary   basis highest AM E, G, H:  5, 4, 3
    Auxiliary basis highest AM E, G, H:  6, 5, 4
    Onebody   basis highest AM E, G, H:  6, 5, 4
    Solid Harmonics ordering:            gaussian

*** tstart() called on ddmfs1
*** at Sun Jan 21 08:51:37 2024

   => Loading Basis Set <=

    Name: AUG-CC-PVTZ
    Role: ORBITAL
    Keyword: BASIS
    atoms 1                            entry BR         line  4208 file /ddmfs1b/softs/psi4conda/share/psi4/basis/aug-cc-pvtz.gbs 
    atoms 2, 5, 8, 11, 14              entry O          line   331 file /ddmfs1b/softs/psi4conda/share/psi4/basis/aug-cc-pvtz.gbs 
    atoms 3-4, 6-7, 9-10, 12-13, 15-16 entry H          line    40 file /ddmfs1b/softs/psi4conda/share/psi4/basis/aug-cc-pvtz.gbs 


         ---------------------------------------------------------
                                   SCF
               by Justin Turney, Rob Parrish, Andy Simmonett
                          and Daniel G. A. Smith
                              RHF Reference
                       20 Threads,  57220 MiB Core
         ---------------------------------------------------------

  ==> Geometry <==

    Molecular point group: c1
    Full point group: C1

    Geometry (in Angstrom), charge = 0, multiplicity = 1:

       Center              X                  Y                   Z               Mass       
    ------------   -----------------  -----------------  -----------------  -----------------
      Gh(BR)          0.000000000000     0.000000000000     0.000000000000    78.918337600000
         O           -3.013040000000     1.056931000000    -1.652607000000    15.994914619570
         H           -3.813809000000     1.223376000000    -2.275182000000     1.007825032230
         H           -2.526972000000     0.362284000000    -2.116240000000     1.007825032230
         O            1.719771000000     0.511071000000     2.753016000000    15.994914619570
         H            1.308822000000     0.434263000000     1.867281000000     1.007825032230
         H            1.064406000000     1.091765000000     3.184491000000     1.007825032230
         O            2.086628000000    -1.623677000000    -2.132399000000    15.994914619570
         H            1.634885000000    -1.468970000000    -1.284862000000     1.007825032230
         H            2.494299000000    -0.787280000000    -2.350925000000     1.007825032230
         O            1.986251000000    -2.482713000000     1.611018000000    15.994914619570
         H            2.888043000000    -2.189647000000     1.545517000000     1.007825032230
         H            1.404825000000    -1.913044000000     1.045753000000     1.007825032230
         O           -1.890204000000    -2.588045000000    -0.295930000000    15.994914619570
         H           -1.108235000000    -1.992414000000    -0.188325000000     1.007825032230
         H           -2.004398000000    -3.102901000000     0.508548000000     1.007825032230

  Running in c1 symmetry.

  Rotational constants: A =      0.03567  B =      0.02264  C =      0.01936 [cm^-1]
  Rotational constants: A =   1069.45678  B =    678.65428  C =    580.29145 [MHz]
  Nuclear repulsion =  158.022187769433685

  Charge       = 0
  Multiplicity = 1
  Electrons    = 50
  Nalpha       = 25
  Nbeta        = 25

  ==> Algorithm <==

  SCF Algorithm Type is DF.
  DIIS enabled.
  MOM disabled.
  Fractional occupation disabled.
  Guess Type is SAD.
  Energy threshold   = 1.00e-08
  Density threshold  = 1.00e-08
  Integral threshold = 1.00e-12

  ==> Primary Basis <==

  Basis Set: AUG-CC-PVTZ
    Blend: AUG-CC-PVTZ
    Number of shells: 179
    Number of basis functions: 519
    Number of Cartesian functions: 594
    Spherical Harmonics?: true
    Max angular momentum: 3

   => Loading Basis Set <=

    Name: (AUG-CC-PVTZ AUX)
    Role: JKFIT
    Keyword: DF_BASIS_SCF
    atoms 1                            entry BR         line  1492 file /ddmfs1b/softs/psi4conda/share/psi4/basis/aug-cc-pvtz-jkfit.gbs 
    atoms 2, 5, 8, 11, 14              entry O          line   286 file /ddmfs1b/softs/psi4conda/share/psi4/basis/aug-cc-pvtz-jkfit.gbs 
    atoms 3-4, 6-7, 9-10, 12-13, 15-16 entry H          line    70 file /ddmfs1b/softs/psi4conda/share/psi4/basis/aug-cc-pvtz-jkfit.gbs 

  ==> Integral Setup <==

  ==> DiskDFJK: Density-Fitted J/K Matrices <==

    J tasked:                  Yes
    K tasked:                  Yes
    wK tasked:                  No
    OpenMP threads:             20
    Integrals threads:          20
    Memory [MiB]:            42915
    Algorithm:                Core
    Integral Cache:           LOAD
    Schwarz Cutoff:          1E-12
    Fitting Condition:       1E-10

   => Auxiliary Basis Set <=

  Basis Set: (AUG-CC-PVTZ AUX)
    Blend: AUG-CC-PVTZ-JKFIT
    Number of shells: 348
    Number of basis functions: 1228
    Number of Cartesian functions: 1534
    Spherical Harmonics?: true
    Max angular momentum: 4

  Minimum eigenvalue in the overlap matrix is 1.5406099629E-04.
  Reciprocal condition number of the overlap matrix is 1.2802956821E-05.
    Using symmetric orthogonalization.

  ==> Pre-Iterations <==

  SCF Guess: Superposition of Atomic Densities via on-the-fly atomic UHF (no occupation information).

   -------------------------
    Irrep   Nso     Nmo    
   -------------------------
     A        519     519 
   -------------------------
    Total     519     519
   -------------------------

  ==> Iterations <==

                           Total Energy        Delta E     RMS |[F,P]|

   @DF-RHF iter SAD:  -377.34215646168406   -3.77342e+02   0.00000e+00 
   @DF-RHF iter   1:  -379.85166424191999   -2.50951e+00   2.00899e-03 ADIIS/DIIS
   @DF-RHF iter   2:  -380.11315182743351   -2.61488e-01   1.39379e-03 ADIIS/DIIS
   @DF-RHF iter   3:  -380.27640291017804   -1.63251e-01   9.75590e-05 DIIS
   @DF-RHF iter   4:  -380.27860352357703   -2.20061e-03   2.44603e-05 DIIS
   @DF-RHF iter   5:  -380.27875311833867   -1.49595e-04   6.46644e-06 DIIS
   @DF-RHF iter   6:  -380.27876598423666   -1.28659e-05   2.88792e-06 DIIS
   @DF-RHF iter   7:  -380.27876736174744   -1.37751e-06   7.35456e-07 DIIS
   @DF-RHF iter   8:  -380.27876754415547   -1.82408e-07   1.25380e-07 DIIS
   @DF-RHF iter   9:  -380.27876754969191   -5.53644e-09   2.90149e-08 DIIS
   @DF-RHF iter  10:  -380.27876754989381   -2.01908e-10   1.24641e-08 DIIS
   @DF-RHF iter  11:  -380.27876754992286   -2.90470e-11   4.15567e-09 DIIS
  Energy and wave function converged.


  ==> Post-Iterations <==

    Orbital Energies [Eh]
    ---------------------

    Doubly Occupied:                                                      

       1A    -20.584407     2A    -20.584241     3A    -20.576994  
       4A    -20.576646     5A    -20.575770     6A     -1.365474  
       7A     -1.358897     8A     -1.351891     9A     -1.350074  
      10A     -1.338281    11A     -0.733946    12A     -0.727745  
      13A     -0.724891    14A     -0.709415    15A     -0.695802  
      16A     -0.602324    17A     -0.597817    18A     -0.583582  
      19A     -0.581374    20A     -0.579667    21A     -0.526860  
      22A     -0.524385    23A     -0.516204    24A     -0.510722  
      25A     -0.509812  

    Virtual:                                                              

      26A      0.010050    27A      0.031878    28A      0.032746  
      29A      0.040335    30A      0.047956    31A      0.052000  
      32A      0.061704    33A      0.070934    34A      0.084253  
      35A      0.091143    36A      0.092977    37A      0.104607  
      38A      0.111434    39A      0.123093    40A      0.140826  
      41A      0.142782    42A      0.150578    43A      0.162865  
      44A      0.165043    45A      0.169630    46A      0.176945  
      47A      0.179320    48A      0.182204    49A      0.190047  
      50A      0.193443    51A      0.197419    52A      0.203935  
      53A      0.210686    54A      0.213821    55A      0.217794  
      56A      0.232384    57A      0.237726    58A      0.241361  
      59A      0.242129    60A      0.250659    61A      0.255102  
      62A      0.261626    63A      0.271880    64A      0.278479  
      65A      0.287275    66A      0.290969    67A      0.295291  
      68A      0.301551    69A      0.313251    70A      0.314525  
      71A      0.319964    72A      0.324964    73A      0.335318  
      74A      0.339510    75A      0.344196    76A      0.358808  
      77A      0.359942    78A      0.369320    79A      0.373131  
      80A      0.386092    81A      0.394544    82A      0.399188  
      83A      0.403131    84A      0.412964    85A      0.418847  
      86A      0.426981    87A      0.436208    88A      0.437268  
      89A      0.445304    90A      0.451036    91A      0.455453  
      92A      0.458838    93A      0.462808    94A      0.471399  
      95A      0.492013    96A      0.499640    97A      0.514057  
      98A      0.519284    99A      0.535204   100A      0.544644  
     101A      0.555434   102A      0.559032   103A      0.574312  
     104A      0.578033   105A      0.588547   106A      0.612465  
     107A      0.616523   108A      0.635880   109A      0.647912  
     110A      0.663714   111A      0.681272   112A      0.695703  
     113A      0.698496   114A      0.701898   115A      0.717703  
     116A      0.722581   117A      0.728326   118A      0.732295  
     119A      0.738763   120A      0.741360   121A      0.749389  
     122A      0.756783   123A      0.760311   124A      0.762203  
     125A      0.768604   126A      0.773108   127A      0.785837  
     128A      0.787969   129A      0.795614   130A      0.809544  
     131A      0.823816   132A      0.824792   133A      0.830468  
     134A      0.835320   135A      0.849007   136A      0.859069  
     137A      0.867111   138A      0.883464   139A      0.885567  
     140A      0.891959   141A      0.904485   142A      0.906700  
     143A      0.908819   144A      0.918062   145A      0.929011  
     146A      0.932223   147A      0.939187   148A      0.941681  
     149A      0.945871   150A      0.951000   151A      0.953790  
     152A      0.963002   153A      0.966916   154A      0.974672  
     155A      0.979726   156A      0.985966   157A      0.996081  
     158A      1.002670   159A      1.003831   160A      1.011297  
     161A      1.017299   162A      1.021409   163A      1.027757  
     164A      1.029240   165A      1.033837   166A      1.046276  
     167A      1.049401   168A      1.056826   169A      1.063452  
     170A      1.071793   171A      1.076139   172A      1.085279  
     173A      1.088908   174A      1.092770   175A      1.107111  
     176A      1.113031   177A      1.124833   178A      1.130873  
     179A      1.138792   180A      1.141851   181A      1.149933  
     182A      1.158061   183A      1.168140   184A      1.171541  
     185A      1.175918   186A      1.185618   187A      1.205942  
     188A      1.218902   189A      1.226665   190A      1.229921  
     191A      1.240850   192A      1.245792   193A      1.262412  
     194A      1.265481   195A      1.288366   196A      1.292845  
     197A      1.296628   198A      1.304453   199A      1.314104  
     200A      1.322383   201A      1.337088   202A      1.346141  
     203A      1.353733   204A      1.375992   205A      1.390422  
     206A      1.402285   207A      1.412221   208A      1.418457  
     209A      1.425726   210A      1.446022   211A      1.460103  
     212A      1.478063   213A      1.483776   214A      1.507615  
     215A      1.509499   216A      1.533942   217A      1.552346  
     218A      1.563031   219A      1.565985   220A      1.570614  
     221A      1.583375   222A      1.591100   223A      1.596481  
     224A      1.607372   225A      1.610932   226A      1.630959  
     227A      1.647039   228A      1.651104   229A      1.665397  
     230A      1.691807   231A      1.697481   232A      1.710029  
     233A      1.725015   234A      1.730540   235A      1.760838  
     236A      1.775451   237A      1.799393   238A      1.814019  
     239A      1.845630   240A      1.860720   241A      1.874384  
     242A      1.890238   243A      1.922305   244A      1.935768  
     245A      1.936067   246A      1.946263   247A      1.954564  
     248A      1.970444   249A      1.988883   250A      2.000671  
     251A      2.050800   252A      2.066515   253A      2.101049  
     254A      2.123690   255A      2.127643   256A      2.275690  
     257A      2.291574   258A      2.303381   259A      2.313760  
     260A      2.324098   261A      2.332758   262A      2.368011  
     263A      2.372066   264A      2.381518   265A      2.394373  
     266A      2.396127   267A      2.412175   268A      2.421872  
     269A      2.427444   270A      2.436099   271A      2.443968  
     272A      2.451811   273A      2.467644   274A      2.474989  
     275A      2.484141   276A      2.488597   277A      2.496646  
     278A      2.499268   279A      2.502020   280A      2.514599  
     281A      2.519932   282A      2.528553   283A      2.538113  
     284A      2.542765   285A      2.553352   286A      2.563203  
     287A      2.573145   288A      2.586173   289A      2.603433  
     290A      2.605400   291A      2.647967   292A      2.650741  
     293A      2.670553   294A      2.682299   295A      2.722783  
     296A      2.736420   297A      2.741216   298A      2.744329  
     299A      2.762049   300A      2.765946   301A      2.783648  
     302A      2.801281   303A      2.816323   304A      2.837516  
     305A      2.848246   306A      2.854633   307A      2.866718  
     308A      2.869171   309A      2.892685   310A      2.899681  
     311A      2.908117   312A      2.928037   313A      2.942231  
     314A      2.964623   315A      2.988171   316A      3.005087  
     317A      3.040542   318A      3.053563   319A      3.083110  
     320A      3.129572   321A      3.184994   322A      3.289324  
     323A      3.301601   324A      3.343821   325A      3.365868  
     326A      3.401490   327A      3.433080   328A      3.449592  
     329A      3.493663   330A      3.501041   331A      3.537877  
     332A      3.600952   333A      3.616634   334A      3.662637  
     335A      3.672992   336A      3.727121   337A      3.742086  
     338A      3.770825   339A      3.776855   340A      3.804976  
     341A      3.856890   342A      3.934259   343A      3.963047  
     344A      3.999824   345A      4.009729   346A      4.030088  
     347A      4.059161   348A      4.080089   349A      4.087889  
     350A      4.112749   351A      4.135507   352A      4.151043  
     353A      4.161035   354A      4.204310   355A      4.217054  
     356A      4.236521   357A      4.246574   358A      4.256858  
     359A      4.268727   360A      4.273484   361A      4.277835  
     362A      4.285918   363A      4.292205   364A      4.297976  
     365A      4.303954   366A      4.318366   367A      4.337661  
     368A      4.370495   369A      4.375371   370A      4.389214  
     371A      4.390785   372A      4.393406   373A      4.397517  
     374A      4.410430   375A      4.416997   376A      4.442293  
     377A      4.450577   378A      4.452996   379A      4.458166  
     380A      4.469575   381A      4.493965   382A      4.510051  
     383A      4.518780   384A      4.533907   385A      4.542313  
     386A      4.590239   387A      4.599448   388A      4.612025  
     389A      4.646822   390A      4.677220   391A      4.687463  
     392A      4.751320   393A      4.773707   394A      4.781757  
     395A      4.792498   396A      4.801745   397A      4.895454  
     398A      4.911483   399A      4.914454   400A      4.941620  
     401A      5.035374   402A      5.066025   403A      5.098530  
     404A      5.108295   405A      5.131221   406A      5.141993  
     407A      5.160042   408A      5.169778   409A      5.180530  
     410A      5.205238   411A      5.227410   412A      5.263277  
     413A      5.292258   414A      5.313627   415A      5.328443  
     416A      5.340323   417A      5.345693   418A      5.369468  
     419A      5.397504   420A      5.402209   421A      5.436265  
     422A      5.474103   423A      5.501712   424A      5.516421  
     425A      5.524734   426A      5.635301   427A      5.641255  
     428A      5.716915   429A      5.776247   430A      5.788228  
     431A      6.154489   432A      6.189030   433A      6.196805  
     434A      6.206904   435A      6.279832   436A      6.537364  
     437A      6.548107   438A      6.556492   439A      6.587510  
     440A      6.597706   441A      6.725737   442A      6.762435  
     443A      6.776721   444A      6.799500   445A      6.812331  
     446A      6.869495   447A      6.880299   448A      6.892100  
     449A      6.928072   450A      6.975067   451A      7.063607  
     452A      7.113821   453A      7.140342   454A      7.153642  
     455A      7.215987   456A      7.219130   457A      7.224664  
     458A      7.230810   459A      7.278941   460A      7.286171  
     461A      7.288458   462A      7.299205   463A      7.302936  
     464A      7.306441   465A      7.311599   466A      7.326875  
     467A      7.331794   468A      7.340185   469A      7.347787  
     470A      7.364660   471A      7.369346   472A      7.377429  
     473A      7.381382   474A      7.406904   475A      7.414060  
     476A      7.440972   477A      7.457211   478A      7.477545  
     479A      7.479204   480A      7.508977   481A      7.537023  
     482A      7.659507   483A      7.707170   484A      7.731695  
     485A      7.764098   486A      7.830732   487A      7.872874  
     488A      7.887697   489A      7.893478   490A      7.910700  
     491A      7.950137   492A      7.964709   493A      7.976779  
     494A      8.010083   495A      8.033680   496A      8.614247  
     497A      8.715758   498A      8.734196   499A      8.794371  
     500A      8.800985   501A     10.889449   502A     13.688378  
     503A     13.811751   504A     14.002917   505A     14.875518  
     506A     15.974212   507A     16.091160   508A     16.187311  
     509A     16.402273   510A     26.281440   511A     26.304226  
     512A     26.409132   513A     26.482091   514A     26.609568  
     515A     46.408051   516A    138.794480   517A    139.011485  
     518A    139.341951   519A    711.556796  

    Final Occupation by Irrep:
              A 
    DOCC [    25 ]
    NA   [    25 ]
    NB   [    25 ]

  @DF-RHF Final Energy:  -380.27876754992286

   => Energetics <=

    Nuclear Repulsion Energy =            158.0221877694336854
    One-Electron Energy =                -839.0274601038648825
    Two-Electron Energy =                 300.7265047845083359
    Total Energy =                       -380.2787675499228612

Computation Completed


Properties will be evaluated at   0.000000,   0.000000,   0.000000 [a0]

Properties computed using the SCF density matrix


 Multipole Moments:

 ------------------------------------------------------------------------------------
     Multipole            Electronic (a.u.)      Nuclear  (a.u.)        Total (a.u.)
 ------------------------------------------------------------------------------------

 L = 1.  Multiply by 2.5417464519 to convert [e a0] to [Debye]
 Dipole X            :        -16.1997388           15.9816293           -0.2181095
 Dipole Y            :         94.4422329          -93.2656037            1.1766292
 Dipole Z            :         -4.4748254            4.1589848           -0.3158406
 Magnitude           :                                                    1.2376523

 ------------------------------------------------------------------------------------

*** tstop() called on ddmfs1 at Sun Jan 21 08:51:49 2024
Module time:
	user time   =     159.69 seconds =       2.66 minutes
	system time =       5.76 seconds =       0.10 minutes
	total time  =         12 seconds =       0.20 minutes
Total time:
	user time   =     499.49 seconds =       8.32 minutes
	system time =      33.27 seconds =       0.55 minutes
	total time  =         40 seconds =       0.67 minutes
  Constructing Basis Sets for SAPT...

   => Loading Basis Set <=

    Name: (AUG-CC-PVTZ AUX)
    Role: RIFIT
    Keyword: DF_BASIS_SAPT
    atoms 1                            entry BR         line  1248 file /ddmfs1b/softs/psi4conda/share/psi4/basis/aug-cc-pvtz-ri.gbs 
    atoms 2, 5, 8, 11, 14              entry O          line   264 file /ddmfs1b/softs/psi4conda/share/psi4/basis/aug-cc-pvtz-ri.gbs 
    atoms 3-4, 6-7, 9-10, 12-13, 15-16 entry H          line    30 file /ddmfs1b/softs/psi4conda/share/psi4/basis/aug-cc-pvtz-ri.gbs 

   => Loading Basis Set <=

    Name: (AUG-CC-PVTZ AUX)
    Role: JKFIT
    Keyword: DF_BASIS_ELST
    atoms 1                            entry BR         line  1492 file /ddmfs1b/softs/psi4conda/share/psi4/basis/aug-cc-pvtz-jkfit.gbs 
    atoms 2, 5, 8, 11, 14              entry O          line   286 file /ddmfs1b/softs/psi4conda/share/psi4/basis/aug-cc-pvtz-jkfit.gbs 
    atoms 3-4, 6-7, 9-10, 12-13, 15-16 entry H          line    70 file /ddmfs1b/softs/psi4conda/share/psi4/basis/aug-cc-pvtz-jkfit.gbs 


  //>>>>>>>>>>>>>>>>>>>>>>>>>>>>>>>>>>>//
  //               SAPT2+              //
  //<<<<<<<<<<<<<<<<<<<<<<<<<<<<<<<<<<<//


*** tstart() called on ddmfs1
*** at Sun Jan 21 08:51:49 2024

        SAPT2+  
    Ed Hohenstein
     6 June 2009

      Orbital Information
  --------------------------
    NSO        =       519
    NMO        =       519
    NRI        =      1181
    NOCC A     =        18
    NOCC B     =        25
    FOCC A     =         0
    FOCC B     =         0
    NVIR A     =       501
    NVIR B     =       494

    Estimated memory usage: 6136.5 MB

    Natural Orbital Cutoff:   1.000E-06
    Disp(T3) Truncation:            Yes
    CCD (vv|vv) Truncation:         Yes
    MBPT T2 Truncation:             Yes

    Monomer A: 410 virtual orbitals dropped
    Monomer B: 95 virtual orbitals dropped

    Elst10,r            =    -0.080470322422 [Eh]
    Exch10 (S^2)        =     0.065647929640 [Eh]
    Exch10              =     0.066421005941 [Eh]
    Ind20,r (A<-B)      =    -0.038741436038 [Eh]
    Ind20,r (B<-A)      =    -0.021057019660 [Eh]
    Ind20,r             =    -0.059798455699 [Eh]
    Exch-Ind20,r (A<-B) =     0.027632332871 [Eh]
    Exch-Ind20,r (B<-A) =     0.008841352907 [Eh]
    Exch-Ind20,r        =     0.036473685778 [Eh]
    Disp20              =    -0.030267366378 [Eh]
    Disp20 (NO)         =    -0.026337023880 [Eh]
    Exch-Disp20         =     0.007007813187 [Eh]
    Elst12,r            =    -0.001192756579 [Eh]
    Exch11              =     0.002944345916 [Eh]
    Exch12              =     0.005212245814 [Eh]
    Ind22               =    -0.007719604873 [Eh]
    Disp21              =     0.002272146934 [Eh]
    Disp22 (SDQ)        =    -0.000047538769 [Eh]

    (i =   1 of  25)         13 seconds
    (i =   2 of  25)         26 seconds
    (i =   3 of  25)         39 seconds
    (i =   4 of  25)         52 seconds
    (i =   5 of  25)         65 seconds
    (i =   6 of  25)         78 seconds
    (i =   7 of  25)         91 seconds
    (i =   8 of  25)        104 seconds
    (i =   9 of  25)        117 seconds
    (i =  10 of  25)        130 seconds
    (i =  11 of  25)        143 seconds
    (i =  12 of  25)        156 seconds
    (i =  13 of  25)        169 seconds
    (i =  14 of  25)        182 seconds
    (i =  15 of  25)        195 seconds
    (i =  16 of  25)        208 seconds
    (i =  17 of  25)        221 seconds
    (i =  18 of  25)        234 seconds
    (i =  19 of  25)        247 seconds
    (i =  20 of  25)        260 seconds
    (i =  21 of  25)        273 seconds
    (i =  22 of  25)        285 seconds
    (i =  23 of  25)        298 seconds
    (i =  24 of  25)        311 seconds
    (i =  25 of  25)        324 seconds

    Disp220 (T)         =    -0.002020177751 [Eh]

    (i =   1 of  18)        207 seconds
    (i =   2 of  18)        414 seconds
    (i =   3 of  18)        620 seconds
    (i =   4 of  18)        826 seconds
    (i =   5 of  18)       1033 seconds
    (i =   6 of  18)       1240 seconds
    (i =   7 of  18)       1448 seconds
    (i =   8 of  18)       1655 seconds
    (i =   9 of  18)       1862 seconds
    (i =  10 of  18)       2069 seconds
    (i =  11 of  18)       2276 seconds
    (i =  12 of  18)       2482 seconds
    (i =  13 of  18)       2689 seconds
    (i =  14 of  18)       2896 seconds
    (i =  15 of  18)       3103 seconds
    (i =  16 of  18)       3309 seconds
    (i =  17 of  18)       3516 seconds
    (i =  18 of  18)       3723 seconds

    Disp202 (T)         =    -0.002764794673 [Eh]

    Disp22 (T)          =    -0.004784972424 [Eh]

    Est. Disp220 (T)    =    -0.002321654125 [Eh]
    Est. Disp202 (T)    =    -0.003177392165 [Eh]

    Est. Disp22 (T)     =    -0.005499046290 [Eh]

    SAPT Results 
  --------------------------------------------------------------------------------------------------------
    Electrostatics                -81.66307900 [mEh]     -51.24435573 [kcal/mol]    -214.40638438 [kJ/mol]
      Elst10,r                    -80.47032242 [mEh]     -50.49588968 [kcal/mol]    -211.27480241 [kJ/mol]
      Elst12,r                     -1.19275658 [mEh]      -0.74846605 [kcal/mol]      -3.13158197 [kJ/mol]

    Exchange                       74.57759767 [mEh]      46.79814907 [kcal/mol]     195.80345571 [kJ/mol]
      Exch10                       66.42100594 [mEh]      41.67981049 [kcal/mol]     174.38832707 [kJ/mol]
      Exch10(S^2)                  65.64792964 [mEh]      41.19469778 [kcal/mol]     172.35861552 [kJ/mol]
      Exch11(S^2)                   2.94434592 [mEh]       1.84760496 [kcal/mol]       7.73037914 [kJ/mol]
      Exch12(S^2)                   5.21224581 [mEh]       3.27073363 [kcal/mol]      13.68474950 [kJ/mol]

    Induction                     -35.67907888 [mEh]     -22.38896002 [kcal/mol]     -93.67540870 [kJ/mol]
      Ind20,r                     -59.79845570 [mEh]     -37.52409747 [kcal/mol]    -157.00082381 [kJ/mol]
      Ind22                        -7.71960487 [mEh]      -4.84412519 [kcal/mol]     -20.26781980 [kJ/mol]
      Exch-Ind20,r                 36.47368578 [mEh]      22.88758337 [kcal/mol]      95.76164882 [kJ/mol]
      Exch-Ind22                    4.70852364 [mEh]       2.95464319 [kcal/mol]      12.36222712 [kJ/mol]
      delta HF,r (2)               -9.34322773 [mEh]      -5.86296392 [kcal/mol]     -24.53064103 [kJ/mol]

    Dispersion                    -26.53399132 [mEh]     -16.65033093 [kcal/mol]     -69.66498460 [kJ/mol]
      Disp20                      -30.26736638 [mEh]     -18.99305915 [kcal/mol]     -79.46695948 [kJ/mol]
      Disp21                        2.27214693 [mEh]       1.42579373 [kcal/mol]       5.96552095 [kJ/mol]
      Disp22 (SDQ)                 -0.04753877 [mEh]      -0.02983103 [kcal/mol]      -0.12481302 [kJ/mol]
      Disp22 (T)                   -4.78497242 [mEh]      -3.00261553 [kcal/mol]     -12.56294337 [kJ/mol]
      Est. Disp22 (T)              -5.49904629 [mEh]      -3.45070364 [kcal/mol]     -14.43774405 [kJ/mol]
      Exch-Disp20                   7.00781319 [mEh]       4.39746917 [kcal/mol]      18.39901099 [kJ/mol]

  Total HF                        -46.71731414 [mEh]     -29.31555721 [kcal/mol]    -122.65629136 [kJ/mol]
  Total SAPT0                     -69.97686733 [mEh]     -43.91114719 [kcal/mol]    -183.72423985 [kJ/mol]
  Total SAPT2                     -66.02411341 [mEh]     -41.43075666 [kcal/mol]    -173.34628587 [kJ/mol]
  Total SAPT2+                    -69.29855153 [mEh]     -43.48549760 [kcal/mol]    -181.94332198 [kJ/mol]

  Special recipe for scaled SAPT0 (see Manual):
    Electrostatics sSAPT0         -80.47032242 [mEh]     -50.49588968 [kcal/mol]    -211.27480241 [kJ/mol]
    Exchange sSAPT0                66.42100594 [mEh]      41.67981049 [kcal/mol]     174.38832707 [kJ/mol]
    Induction sSAPT0              -31.36421113 [mEh]     -19.68133962 [kcal/mol]     -82.34672497 [kJ/mol]
    Dispersion sSAPT0             -23.00905226 [mEh]     -14.43839827 [kcal/mol]     -60.41025837 [kJ/mol]
  Total sSAPT0                    -68.42257986 [mEh]     -42.93581709 [kcal/mol]    -179.64345868 [kJ/mol]
  --------------------------------------------------------------------------------------------------------

*** tstop() called on ddmfs1 at Sun Jan 21 10:07:48 2024
Module time:
	user time   =   22859.35 seconds =     380.99 minutes
	system time =     306.04 seconds =       5.10 minutes
	total time  =       4559 seconds =      75.98 minutes
Total time:
	user time   =   23361.60 seconds =     389.36 minutes
	system time =     339.46 seconds =       5.66 minutes
	total time  =       4599 seconds =      76.65 minutes

    Psi4 stopped on: Sunday, 21 January 2024 10:07AM
    Psi4 wall time for execution: 1:16:38.48

*** Psi4 exiting successfully. Buy a developer a beer!
