
    -----------------------------------------------------------------------
          Psi4: An Open-Source Ab Initio Electronic Structure Package
                               Psi4 1.8.2 release

                         Git: Rev {} zzzzzzz 


    D. G. A. Smith, L. A. Burns, A. C. Simmonett, R. M. Parrish,
    M. C. Schieber, R. Galvelis, P. Kraus, H. Kruse, R. Di Remigio,
    A. Alenaizan, A. M. James, S. Lehtola, J. P. Misiewicz, M. Scheurer,
    R. A. Shaw, J. B. Schriber, Y. Xie, Z. L. Glick, D. A. Sirianni,
    J. S. O'Brien, J. M. Waldrop, A. Kumar, E. G. Hohenstein,
    B. P. Pritchard, B. R. Brooks, H. F. Schaefer III, A. Yu. Sokolov,
    K. Patkowski, A. E. DePrince III, U. Bozkaya, R. A. King,
    F. A. Evangelista, J. M. Turney, T. D. Crawford, C. D. Sherrill,
    J. Chem. Phys. 152(18) 184108 (2020). https://doi.org/10.1063/5.0006002

                            Additional Code Authors
    E. T. Seidl, C. L. Janssen, E. F. Valeev, M. L. Leininger,
    J. F. Gonthier, R. M. Richard, H. R. McAlexander, M. Saitow, X. Wang,
    P. Verma, M. H. Lechner, A. Jiang, S. Behnle, A. G. Heide,
    M. F. Herbst, and D. L. Poole

             Previous Authors, Complete List of Code Contributors,
                       and Citations for Specific Modules
    https://github.com/psi4/psi4/blob/master/codemeta.json
    https://github.com/psi4/psi4/graphs/contributors
    http://psicode.org/psi4manual/master/introduction.html#citing-psifour

    -----------------------------------------------------------------------


    Psi4 started on: Tuesday, 16 January 2024 09:42AM

    Process ID: 292879
    Host:       ddmfs1
    PSIDATADIR: /ddmfs1b/softs/psi4conda/share/psi4
    Memory:     500.0 MiB
    Threads:    20
    
  ==> Input File <==

--------------------------------------------------------------------------
MEMORY 60 GB

molecule dimer {
-1 1
Br     0.000000     0.000000     0.000000
--
0 1
O     -2.021869    -2.179823     1.217412
H     -2.921871    -1.867399     1.198558
H     -1.513540    -1.451927     0.815047
O     -2.961999     0.929139    -1.272353
H     -2.728774     1.887839    -1.108211
H     -2.207349     0.482925    -0.838278
O     -2.117015     1.588878     2.246208
H     -1.423790     1.453822     1.551659
H     -1.773078     0.949786     2.896329
O     -0.330378    -1.158355    -3.243256
H     -0.343064    -0.673188    -2.378621
H     -0.323750    -2.040751    -2.892653

units ang
no_reorient
no_com
symmetry c1
}

set {
basis        aug-cc-pVTZ
scf_type     df
}

energy("sapt2+")
--------------------------------------------------------------------------

  Memory set to  55.879 GiB by Python driver.

Scratch directory: /ddmfs1a/scratch/
   => Loading Basis Set <=

    Name: AUG-CC-PVTZ
    Role: ORBITAL
    Keyword: BASIS
    atoms 1                     entry BR         line  4208 file /ddmfs1b/softs/psi4conda/share/psi4/basis/aug-cc-pvtz.gbs 
    atoms 2, 5, 8, 11           entry O          line   331 file /ddmfs1b/softs/psi4conda/share/psi4/basis/aug-cc-pvtz.gbs 
    atoms 3-4, 6-7, 9-10, 12-13 entry H          line    40 file /ddmfs1b/softs/psi4conda/share/psi4/basis/aug-cc-pvtz.gbs 

   => Loading Basis Set <=

    Name: AUG-CC-PVTZ
    Role: ORBITAL
    Keyword: BASIS
    atoms 1                     entry BR         line  4208 file /ddmfs1b/softs/psi4conda/share/psi4/basis/aug-cc-pvtz.gbs 
    atoms 2, 5, 8, 11           entry O          line   331 file /ddmfs1b/softs/psi4conda/share/psi4/basis/aug-cc-pvtz.gbs 
    atoms 3-4, 6-7, 9-10, 12-13 entry H          line    40 file /ddmfs1b/softs/psi4conda/share/psi4/basis/aug-cc-pvtz.gbs 


  //>>>>>>>>>>>>>>>>>>>>>>>>>>>>>>>>>>>//
  //              Dimer HF             //
  //<<<<<<<<<<<<<<<<<<<<<<<<<<<<<<<<<<<//

   => Libint2 <=

    Primary   basis highest AM E, G, H:  5, 4, 3
    Auxiliary basis highest AM E, G, H:  6, 5, 4
    Onebody   basis highest AM E, G, H:  6, 5, 4
    Solid Harmonics ordering:            gaussian

*** tstart() called on ddmfs1
*** at Tue Jan 16 09:42:34 2024

   => Loading Basis Set <=

    Name: AUG-CC-PVTZ
    Role: ORBITAL
    Keyword: BASIS
    atoms 1                     entry BR         line  4208 file /ddmfs1b/softs/psi4conda/share/psi4/basis/aug-cc-pvtz.gbs 
    atoms 2, 5, 8, 11           entry O          line   331 file /ddmfs1b/softs/psi4conda/share/psi4/basis/aug-cc-pvtz.gbs 
    atoms 3-4, 6-7, 9-10, 12-13 entry H          line    40 file /ddmfs1b/softs/psi4conda/share/psi4/basis/aug-cc-pvtz.gbs 


         ---------------------------------------------------------
                                   SCF
               by Justin Turney, Rob Parrish, Andy Simmonett
                          and Daniel G. A. Smith
                              RHF Reference
                       20 Threads,  57220 MiB Core
         ---------------------------------------------------------

  ==> Geometry <==

    Molecular point group: c1
    Full point group: C1

    Geometry (in Angstrom), charge = -1, multiplicity = 1:

       Center              X                  Y                   Z               Mass       
    ------------   -----------------  -----------------  -----------------  -----------------
         BR           0.000000000000     0.000000000000     0.000000000000    78.918337600000
         O           -2.021869000000    -2.179823000000     1.217412000000    15.994914619570
         H           -2.921871000000    -1.867399000000     1.198558000000     1.007825032230
         H           -1.513540000000    -1.451927000000     0.815047000000     1.007825032230
         O           -2.961999000000     0.929139000000    -1.272353000000    15.994914619570
         H           -2.728774000000     1.887839000000    -1.108211000000     1.007825032230
         H           -2.207349000000     0.482925000000    -0.838278000000     1.007825032230
         O           -2.117015000000     1.588878000000     2.246208000000    15.994914619570
         H           -1.423790000000     1.453822000000     1.551659000000     1.007825032230
         H           -1.773078000000     0.949786000000     2.896329000000     1.007825032230
         O           -0.330378000000    -1.158355000000    -3.243256000000    15.994914619570
         H           -0.343064000000    -0.673188000000    -2.378621000000     1.007825032230
         H           -0.323750000000    -2.040751000000    -2.892653000000     1.007825032230

  Running in c1 symmetry.

  Rotational constants: A =      0.03986  B =      0.03191  C =      0.02564 [cm^-1]
  Rotational constants: A =   1194.85936  B =    956.73794  C =    768.63134 [MHz]
  Nuclear repulsion =  338.806744050070677

  Charge       = -1
  Multiplicity = 1
  Electrons    = 76
  Nalpha       = 38
  Nbeta        = 38

  ==> Algorithm <==

  SCF Algorithm Type is DF.
  DIIS enabled.
  MOM disabled.
  Fractional occupation disabled.
  Guess Type is SAD.
  Energy threshold   = 1.00e-08
  Density threshold  = 1.00e-08
  Integral threshold = 1.00e-12

  ==> Primary Basis <==

  Basis Set: AUG-CC-PVTZ
    Blend: AUG-CC-PVTZ
    Number of shells: 147
    Number of basis functions: 427
    Number of Cartesian functions: 489
    Spherical Harmonics?: true
    Max angular momentum: 3

   => Loading Basis Set <=

    Name: (AUG-CC-PVTZ AUX)
    Role: JKFIT
    Keyword: DF_BASIS_SCF
    atoms 1                     entry BR         line  1492 file /ddmfs1b/softs/psi4conda/share/psi4/basis/aug-cc-pvtz-jkfit.gbs 
    atoms 2, 5, 8, 11           entry O          line   286 file /ddmfs1b/softs/psi4conda/share/psi4/basis/aug-cc-pvtz-jkfit.gbs 
    atoms 3-4, 6-7, 9-10, 12-13 entry H          line    70 file /ddmfs1b/softs/psi4conda/share/psi4/basis/aug-cc-pvtz-jkfit.gbs 

  ==> Integral Setup <==

  ==> DiskDFJK: Density-Fitted J/K Matrices <==

    J tasked:                  Yes
    K tasked:                  Yes
    wK tasked:                  No
    OpenMP threads:             20
    Integrals threads:          20
    Memory [MiB]:            42915
    Algorithm:                Core
    Integral Cache:           SAVE
    Schwarz Cutoff:          1E-12
    Fitting Condition:       1E-10

   => Auxiliary Basis Set <=

  Basis Set: (AUG-CC-PVTZ AUX)
    Blend: AUG-CC-PVTZ-JKFIT
    Number of shells: 290
    Number of basis functions: 1032
    Number of Cartesian functions: 1293
    Spherical Harmonics?: true
    Max angular momentum: 4

  Minimum eigenvalue in the overlap matrix is 1.6769595520E-04.
  Reciprocal condition number of the overlap matrix is 1.3744468226E-05.
    Using symmetric orthogonalization.

  ==> Pre-Iterations <==

  SCF Guess: Superposition of Atomic Densities via on-the-fly atomic UHF (no occupation information).

   -------------------------
    Irrep   Nso     Nmo    
   -------------------------
     A        427     427 
   -------------------------
    Total     427     427
   -------------------------

  ==> Iterations <==

                           Total Energy        Delta E     RMS |[F,P]|

   @DF-RHF iter SAD: -2872.58760373402083   -2.87259e+03   0.00000e+00 
   @DF-RHF iter   1: -2876.27818859823674   -3.69058e+00   3.23399e-03 DIIS/ADIIS
   @DF-RHF iter   2: -2876.64688781435279   -3.68699e-01   1.90279e-03 DIIS/ADIIS
   @DF-RHF iter   3: -2876.81045474789516   -1.63567e-01   1.55125e-04 DIIS/ADIIS
   @DF-RHF iter   4: -2876.81252245016412   -2.06770e-03   7.24287e-05 DIIS
   @DF-RHF iter   5: -2876.81294740471594   -4.24955e-04   1.05091e-05 DIIS
   @DF-RHF iter   6: -2876.81297222859621   -2.48239e-05   2.71199e-06 DIIS
   @DF-RHF iter   7: -2876.81297408558021   -1.85698e-06   8.54096e-07 DIIS
   @DF-RHF iter   8: -2876.81297421457111   -1.28991e-07   3.70450e-07 DIIS
   @DF-RHF iter   9: -2876.81297423131900   -1.67479e-08   5.91716e-08 DIIS
   @DF-RHF iter  10: -2876.81297423204705   -7.28051e-10   1.22391e-08 DIIS
   @DF-RHF iter  11: -2876.81297423207434   -2.72848e-11   4.20680e-09 DIIS
  Energy and wave function converged.


  ==> Post-Iterations <==

    Orbital Energies [Eh]
    ---------------------

    Doubly Occupied:                                                      

       1A   -489.794953     2A    -64.935475     3A    -58.289963  
       4A    -58.289956     5A    -58.289926     6A    -20.432320  
       7A    -20.419218     8A    -20.417910     9A    -20.410779  
      10A     -9.607918    11A     -7.215492    12A     -7.215447  
      13A     -7.215256    14A     -2.957143    15A     -2.957139  
      16A     -2.956909    17A     -2.956862    18A     -2.956790  
      19A     -1.207315    20A     -1.201407    21A     -1.198247  
      22A     -1.189418    23A     -0.775448    24A     -0.562302  
      25A     -0.553804    26A     -0.548180    27A     -0.544054  
      28A     -0.459889    29A     -0.449886    30A     -0.440764  
      31A     -0.437290    32A     -0.373889    33A     -0.362335  
      34A     -0.357952    35A     -0.356514    36A     -0.222470  
      37A     -0.222411    38A     -0.219422  

    Virtual:                                                              

      39A      0.125143    40A      0.134718    41A      0.136416  
      42A      0.142596    43A      0.164575    44A      0.168336  
      45A      0.169954    46A      0.186975    47A      0.215473  
      48A      0.238177    49A      0.247897    50A      0.257680  
      51A      0.268121    52A      0.274211    53A      0.277407  
      54A      0.285515    55A      0.287220    56A      0.299419  
      57A      0.306264    58A      0.313119    59A      0.320021  
      60A      0.327332    61A      0.333499    62A      0.346614  
      63A      0.347182    64A      0.352893    65A      0.353929  
      66A      0.369706    67A      0.375371    68A      0.385425  
      69A      0.396218    70A      0.407874    71A      0.415623  
      72A      0.428170    73A      0.435616    74A      0.436703  
      75A      0.446792    76A      0.453574    77A      0.467751  
      78A      0.470814    79A      0.493696    80A      0.500213  
      81A      0.506913    82A      0.523547    83A      0.524649  
      84A      0.534410    85A      0.552869    86A      0.555497  
      87A      0.559436    88A      0.572123    89A      0.578736  
      90A      0.581848    91A      0.589611    92A      0.592848  
      93A      0.599995    94A      0.605386    95A      0.615663  
      96A      0.637526    97A      0.648485    98A      0.656542  
      99A      0.688917   100A      0.702306   101A      0.717253  
     102A      0.728372   103A      0.745763   104A      0.768720  
     105A      0.786544   106A      0.795974   107A      0.805688  
     108A      0.820471   109A      0.829953   110A      0.846704  
     111A      0.853556   112A      0.859477   113A      0.861683  
     114A      0.866390   115A      0.876561   116A      0.882761  
     117A      0.887871   118A      0.899687   119A      0.908129  
     120A      0.914113   121A      0.920769   122A      0.931299  
     123A      0.932469   124A      0.944664   125A      0.953618  
     126A      0.954464   127A      0.967967   128A      0.980113  
     129A      0.991690   130A      0.994262   131A      1.014702  
     132A      1.018691   133A      1.029860   134A      1.038579  
     135A      1.044743   136A      1.057519   137A      1.066616  
     138A      1.078638   139A      1.084287   140A      1.088211  
     141A      1.091403   142A      1.106811   143A      1.109634  
     144A      1.117709   145A      1.123549   146A      1.125113  
     147A      1.137289   148A      1.146053   149A      1.151098  
     150A      1.162824   151A      1.166346   152A      1.181517  
     153A      1.188087   154A      1.191154   155A      1.200306  
     156A      1.208116   157A      1.211038   158A      1.224451  
     159A      1.240019   160A      1.261417   161A      1.272007  
     162A      1.282832   163A      1.283799   164A      1.309923  
     165A      1.312147   166A      1.319510   167A      1.337099  
     168A      1.342713   169A      1.352760   170A      1.358541  
     171A      1.365690   172A      1.377525   173A      1.382391  
     174A      1.399853   175A      1.415282   176A      1.422177  
     177A      1.426820   178A      1.453494   179A      1.459580  
     180A      1.474452   181A      1.479189   182A      1.500883  
     183A      1.527362   184A      1.537183   185A      1.548689  
     186A      1.563695   187A      1.582238   188A      1.588795  
     189A      1.601846   190A      1.617674   191A      1.638412  
     192A      1.654071   193A      1.656328   194A      1.666064  
     195A      1.696016   196A      1.707216   197A      1.716293  
     198A      1.719848   199A      1.724951   200A      1.734813  
     201A      1.742449   202A      1.771593   203A      1.777672  
     204A      1.789917   205A      1.809185   206A      1.822703  
     207A      1.860597   208A      1.891495   209A      1.926219  
     210A      1.944407   211A      1.984986   212A      2.049470  
     213A      2.055133   214A      2.069898   215A      2.081373  
     216A      2.098091   217A      2.100418   218A      2.112093  
     219A      2.121270   220A      2.167450   221A      2.178386  
     222A      2.191984   223A      2.215959   224A      2.373848  
     225A      2.416334   226A      2.441309   227A      2.451422  
     228A      2.469835   229A      2.481592   230A      2.487745  
     231A      2.501845   232A      2.509602   233A      2.517759  
     234A      2.525817   235A      2.531262   236A      2.540907  
     237A      2.542469   238A      2.566712   239A      2.574781  
     240A      2.598821   241A      2.600813   242A      2.604869  
     243A      2.615017   244A      2.632989   245A      2.637551  
     246A      2.653178   247A      2.655936   248A      2.667434  
     249A      2.671186   250A      2.679211   251A      2.685376  
     252A      2.698370   253A      2.715862   254A      2.724691  
     255A      2.738837   256A      2.752851   257A      2.770613  
     258A      2.792084   259A      2.798345   260A      2.814595  
     261A      2.830737   262A      2.845496   263A      2.852109  
     264A      2.862653   265A      2.872283   266A      2.905367  
     267A      2.911445   268A      2.922513   269A      2.935250  
     270A      2.941478   271A      2.963368   272A      2.976780  
     273A      2.984678   274A      2.992800   275A      3.012746  
     276A      3.028723   277A      3.033422   278A      3.045763  
     279A      3.076162   280A      3.082422   281A      3.104015  
     282A      3.141460   283A      3.185240   284A      3.197048  
     285A      3.207205   286A      3.214683   287A      3.232773  
     288A      3.273523   289A      3.296014   290A      3.379086  
     291A      3.860347   292A      3.890013   293A      3.914737  
     294A      3.936491   295A      3.949010   296A      4.018359  
     297A      4.112286   298A      4.183765   299A      4.206463  
     300A      4.240282   301A      4.246728   302A      4.283296  
     303A      4.290167   304A      4.311010   305A      4.348390  
     306A      4.352974   307A      4.372831   308A      4.384032  
     309A      4.415442   310A      4.418326   311A      4.439312  
     312A      4.444092   313A      4.458051   314A      4.466122  
     315A      4.476762   316A      4.488759   317A      4.523838  
     318A      4.528517   319A      4.537646   320A      4.540938  
     321A      4.553229   322A      4.566603   323A      4.578299  
     324A      4.587216   325A      4.598054   326A      4.606757  
     327A      4.632025   328A      4.649731   329A      4.664713  
     330A      4.675770   331A      4.752120   332A      4.767743  
     333A      4.790923   334A      4.804443   335A      4.920103  
     336A      4.951677   337A      4.962313   338A      4.985326  
     339A      5.024621   340A      5.058005   341A      5.091762  
     342A      5.137179   343A      5.227250   344A      5.247343  
     345A      5.272909   346A      5.313074   347A      5.322513  
     348A      5.342405   349A      5.348850   350A      5.385148  
     351A      5.415125   352A      5.419353   353A      5.433808  
     354A      5.443175   355A      5.451698   356A      5.484268  
     357A      5.492529   358A      5.579936   359A      5.629190  
     360A      5.641669   361A      5.683531   362A      5.690625  
     363A      5.702431   364A      5.741674   365A      5.773088  
     366A      5.796512   367A      5.946427   368A      6.397670  
     369A      6.420295   370A      6.432109   371A      6.465803  
     372A      6.664236   373A      6.670164   374A      6.710756  
     375A      6.720324   376A      6.920971   377A      6.924707  
     378A      6.950186   379A      7.004981   380A      7.105797  
     381A      7.112786   382A      7.143934   383A      7.158855  
     384A      7.253381   385A      7.274445   386A      7.284369  
     387A      7.325505   388A      7.333867   389A      7.380250  
     390A      7.392037   391A      7.422435   392A      7.445437  
     393A      7.455389   394A      7.470138   395A      7.475817  
     396A      7.487641   397A      7.492447   398A      7.501223  
     399A      7.515668   400A      7.561213   401A      7.571568  
     402A      7.577195   403A      7.582521   404A      7.591534  
     405A      7.612616   406A      7.645085   407A      7.662356  
     408A      7.747602   409A      7.783711   410A      7.843476  
     411A      7.918307   412A      7.971132   413A      8.007308  
     414A      8.061582   415A      8.092361   416A      8.113045  
     417A      8.132909   418A      8.156612   419A      8.175329  
     420A      8.874537   421A      8.919703   422A      8.986914  
     423A      8.993429   424A     15.666681   425A     15.941521  
     426A     16.298720   427A     16.837364  

    Final Occupation by Irrep:
              A 
    DOCC [    38 ]
    NA   [    38 ]
    NB   [    38 ]

  @DF-RHF Final Energy: -2876.81297423207434

   => Energetics <=

    Nuclear Repulsion Energy =            338.8067440500706766
    One-Electron Energy =               -4693.2345244669932072
    Two-Electron Energy =                1477.6148061848477937
    Total Energy =                      -2876.8129742320743389

Computation Completed


Properties will be evaluated at   0.000000,   0.000000,   0.000000 [a0]

Properties computed using the SCF density matrix


 Multipole Moments:

 ------------------------------------------------------------------------------------
     Multipole            Electronic (a.u.)      Nuclear  (a.u.)        Total (a.u.)
 ------------------------------------------------------------------------------------

 L = 1.  Multiply by 2.5417464519 to convert [e a0] to [Debye]
 Dipole X            :        139.2327276         -137.3553179            1.8774097
 Dipole Y            :         15.1280646          -14.7780003            0.3500643
 Dipole Z            :         18.2641159          -17.3327230            0.9313929
 Magnitude           :                                                    2.1247835

 ------------------------------------------------------------------------------------

*** tstop() called on ddmfs1 at Tue Jan 16 09:42:45 2024
Module time:
	user time   =     133.53 seconds =       2.23 minutes
	system time =      13.98 seconds =       0.23 minutes
	total time  =         11 seconds =       0.18 minutes
Total time:
	user time   =     133.53 seconds =       2.23 minutes
	system time =      13.98 seconds =       0.23 minutes
	total time  =         11 seconds =       0.18 minutes

  //>>>>>>>>>>>>>>>>>>>>>>>>>>>>>>>>>>>//
  //            Monomer A HF           //
  //<<<<<<<<<<<<<<<<<<<<<<<<<<<<<<<<<<<//

   => Libint2 <=

    Primary   basis highest AM E, G, H:  5, 4, 3
    Auxiliary basis highest AM E, G, H:  6, 5, 4
    Onebody   basis highest AM E, G, H:  6, 5, 4
    Solid Harmonics ordering:            gaussian

*** tstart() called on ddmfs1
*** at Tue Jan 16 09:42:45 2024

   => Loading Basis Set <=

    Name: AUG-CC-PVTZ
    Role: ORBITAL
    Keyword: BASIS
    atoms 1                     entry BR         line  4208 file /ddmfs1b/softs/psi4conda/share/psi4/basis/aug-cc-pvtz.gbs 
    atoms 2, 5, 8, 11           entry O          line   331 file /ddmfs1b/softs/psi4conda/share/psi4/basis/aug-cc-pvtz.gbs 
    atoms 3-4, 6-7, 9-10, 12-13 entry H          line    40 file /ddmfs1b/softs/psi4conda/share/psi4/basis/aug-cc-pvtz.gbs 


         ---------------------------------------------------------
                                   SCF
               by Justin Turney, Rob Parrish, Andy Simmonett
                          and Daniel G. A. Smith
                              RHF Reference
                       20 Threads,  57220 MiB Core
         ---------------------------------------------------------

  ==> Geometry <==

    Molecular point group: c1
    Full point group: C1

    Geometry (in Angstrom), charge = -1, multiplicity = 1:

       Center              X                  Y                   Z               Mass       
    ------------   -----------------  -----------------  -----------------  -----------------
         BR           0.000000000000     0.000000000000     0.000000000000    78.918337600000
      Gh(O)          -2.021869000000    -2.179823000000     1.217412000000    15.994914619570
      Gh(H)          -2.921871000000    -1.867399000000     1.198558000000     1.007825032230
      Gh(H)          -1.513540000000    -1.451927000000     0.815047000000     1.007825032230
      Gh(O)          -2.961999000000     0.929139000000    -1.272353000000    15.994914619570
      Gh(H)          -2.728774000000     1.887839000000    -1.108211000000     1.007825032230
      Gh(H)          -2.207349000000     0.482925000000    -0.838278000000     1.007825032230
      Gh(O)          -2.117015000000     1.588878000000     2.246208000000    15.994914619570
      Gh(H)          -1.423790000000     1.453822000000     1.551659000000     1.007825032230
      Gh(H)          -1.773078000000     0.949786000000     2.896329000000     1.007825032230
      Gh(O)          -0.330378000000    -1.158355000000    -3.243256000000    15.994914619570
      Gh(H)          -0.343064000000    -0.673188000000    -2.378621000000     1.007825032230
      Gh(H)          -0.323750000000    -2.040751000000    -2.892653000000     1.007825032230

  Running in c1 symmetry.

  Rotational constants: A =      0.03986  B =      0.03191  C =      0.02564 [cm^-1]
  Rotational constants: A =   1194.85936  B =    956.73794  C =    768.63134 [MHz]
  Nuclear repulsion =    0.000000000000000

  Charge       = -1
  Multiplicity = 1
  Electrons    = 36
  Nalpha       = 18
  Nbeta        = 18

  ==> Algorithm <==

  SCF Algorithm Type is DF.
  DIIS enabled.
  MOM disabled.
  Fractional occupation disabled.
  Guess Type is SAD.
  Energy threshold   = 1.00e-08
  Density threshold  = 1.00e-08
  Integral threshold = 1.00e-12

  ==> Primary Basis <==

  Basis Set: AUG-CC-PVTZ
    Blend: AUG-CC-PVTZ
    Number of shells: 147
    Number of basis functions: 427
    Number of Cartesian functions: 489
    Spherical Harmonics?: true
    Max angular momentum: 3

   => Loading Basis Set <=

    Name: (AUG-CC-PVTZ AUX)
    Role: JKFIT
    Keyword: DF_BASIS_SCF
    atoms 1                     entry BR         line  1492 file /ddmfs1b/softs/psi4conda/share/psi4/basis/aug-cc-pvtz-jkfit.gbs 
    atoms 2, 5, 8, 11           entry O          line   286 file /ddmfs1b/softs/psi4conda/share/psi4/basis/aug-cc-pvtz-jkfit.gbs 
    atoms 3-4, 6-7, 9-10, 12-13 entry H          line    70 file /ddmfs1b/softs/psi4conda/share/psi4/basis/aug-cc-pvtz-jkfit.gbs 

  ==> Integral Setup <==

  ==> DiskDFJK: Density-Fitted J/K Matrices <==

    J tasked:                  Yes
    K tasked:                  Yes
    wK tasked:                  No
    OpenMP threads:             20
    Integrals threads:          20
    Memory [MiB]:            42915
    Algorithm:                Core
    Integral Cache:           LOAD
    Schwarz Cutoff:          1E-12
    Fitting Condition:       1E-10

   => Auxiliary Basis Set <=

  Basis Set: (AUG-CC-PVTZ AUX)
    Blend: AUG-CC-PVTZ-JKFIT
    Number of shells: 290
    Number of basis functions: 1032
    Number of Cartesian functions: 1293
    Spherical Harmonics?: true
    Max angular momentum: 4

  Minimum eigenvalue in the overlap matrix is 1.6769595520E-04.
  Reciprocal condition number of the overlap matrix is 1.3744468226E-05.
    Using symmetric orthogonalization.

  ==> Pre-Iterations <==

  SCF Guess: Superposition of Atomic Densities via on-the-fly atomic UHF (no occupation information).

   -------------------------
    Irrep   Nso     Nmo    
   -------------------------
     A        427     427 
   -------------------------
    Total     427     427
   -------------------------

  ==> Iterations <==

                           Total Energy        Delta E     RMS |[F,P]|

   @DF-RHF iter SAD: -2570.41423562824502   -2.57041e+03   0.00000e+00 
   @DF-RHF iter   1: -2572.25192303845688   -1.83769e+00   2.54251e-03 DIIS/ADIIS
   @DF-RHF iter   2: -2572.46213720448077   -2.10214e-01   1.42365e-03 DIIS/ADIIS
   @DF-RHF iter   3: -2572.53368661846025   -7.15494e-02   1.97812e-05 DIIS
   @DF-RHF iter   4: -2572.53372068260296   -3.40641e-05   2.97942e-06 DIIS
   @DF-RHF iter   5: -2572.53372243216654   -1.74956e-06   7.35307e-07 DIIS
   @DF-RHF iter   6: -2572.53372255249906   -1.20333e-07   1.52508e-07 DIIS
   @DF-RHF iter   7: -2572.53372256912326   -1.66242e-08   1.22784e-08 DIIS
   @DF-RHF iter   8: -2572.53372256918465   -6.13909e-11   3.08711e-09 DIIS
  Energy and wave function converged.


  ==> Post-Iterations <==

    Orbital Energies [Eh]
    ---------------------

    Doubly Occupied:                                                      

       1A   -489.722040     2A    -64.861663     3A    -58.216194  
       4A    -58.216193     5A    -58.216192     6A     -9.533245  
       7A     -7.140581     8A     -7.140574     9A     -7.140567  
      10A     -2.882289    11A     -2.882288    12A     -2.882278  
      13A     -2.882259    14A     -2.882251    15A     -0.685993  
      16A     -0.139338    17A     -0.139335    18A     -0.139334  

    Virtual:                                                              

      19A      0.120797    20A      0.132931    21A      0.136081  
      22A      0.142311    23A      0.161670    24A      0.163590  
      25A      0.169394    26A      0.179326    27A      0.221395  
      28A      0.232654    29A      0.252643    30A      0.256805  
      31A      0.259474    32A      0.260099    33A      0.264548  
      34A      0.272757    35A      0.277346    36A      0.286143  
      37A      0.292797    38A      0.297258    39A      0.305332  
      40A      0.308076    41A      0.312401    42A      0.321910  
      43A      0.325316    44A      0.342955    45A      0.345483  
      46A      0.371660    47A      0.389025    48A      0.416173  
      49A      0.421515    50A      0.424917    51A      0.441365  
      52A      0.445956    53A      0.452300    54A      0.460876  
      55A      0.465248    56A      0.471581    57A      0.481550  
      58A      0.488148    59A      0.498844    60A      0.499813  
      61A      0.511194    62A      0.515283    63A      0.526628  
      64A      0.532692    65A      0.543520    66A      0.551082  
      67A      0.564317    68A      0.570182    69A      0.571880  
      70A      0.588984    71A      0.596900    72A      0.604051  
      73A      0.614200    74A      0.620872    75A      0.629743  
      76A      0.652887    77A      0.660907    78A      0.670544  
      79A      0.680009    80A      0.687583    81A      0.710701  
      82A      0.716610    83A      0.746073    84A      0.793892  
      85A      0.823908    86A      0.836054    87A      0.853839  
      88A      0.857304    89A      0.867106    90A      0.873436  
      91A      0.891618    92A      0.899008    93A      0.907962  
      94A      0.915645    95A      0.919954    96A      0.923202  
      97A      0.927304    98A      0.940915    99A      0.943074  
     100A      0.957848   101A      0.960916   102A      0.971049  
     103A      0.990330   104A      0.992042   105A      0.994269  
     106A      0.998671   107A      1.003921   108A      1.012926  
     109A      1.016364   110A      1.021600   111A      1.033730  
     112A      1.040381   113A      1.043319   114A      1.046854  
     115A      1.054358   116A      1.063265   117A      1.068502  
     118A      1.071327   119A      1.089791   120A      1.090765  
     121A      1.098550   122A      1.112159   123A      1.122911  
     124A      1.134358   125A      1.137180   126A      1.141637  
     127A      1.155339   128A      1.167611   129A      1.170640  
     130A      1.178790   131A      1.184341   132A      1.188175  
     133A      1.205219   134A      1.207742   135A      1.215168  
     136A      1.218846   137A      1.235466   138A      1.253982  
     139A      1.257306   140A      1.267615   141A      1.283645  
     142A      1.301525   143A      1.306290   144A      1.316025  
     145A      1.327741   146A      1.336514   147A      1.350810  
     148A      1.371369   149A      1.383974   150A      1.391749  
     151A      1.400280   152A      1.409029   153A      1.432899  
     154A      1.442856   155A      1.454062   156A      1.468418  
     157A      1.480319   158A      1.489678   159A      1.514301  
     160A      1.532220   161A      1.548794   162A      1.586608  
     163A      1.588279   164A      1.597176   165A      1.622966  
     166A      1.635410   167A      1.656778   168A      1.668396  
     169A      1.674084   170A      1.681593   171A      1.695233  
     172A      1.704735   173A      1.732172   174A      1.745225  
     175A      1.764051   176A      1.790442   177A      1.814679  
     178A      1.817783   179A      1.824743   180A      1.848825  
     181A      1.864390   182A      1.882240   183A      1.899284  
     184A      1.905436   185A      1.913686   186A      1.920647  
     187A      1.929655   188A      1.952190   189A      1.955308  
     190A      1.968638   191A      1.985736   192A      1.995987  
     193A      2.006063   194A      2.016805   195A      2.044237  
     196A      2.063599   197A      2.071171   198A      2.096295  
     199A      2.110921   200A      2.143207   201A      2.148652  
     202A      2.179820   203A      2.191956   204A      2.310842  
     205A      2.324403   206A      2.345468   207A      2.357345  
     208A      2.569614   209A      2.580757   210A      2.603477  
     211A      2.619383   212A      2.624678   213A      2.636664  
     214A      2.642625   215A      2.656531   216A      2.663612  
     217A      2.670554   218A      2.675992   219A      2.684564  
     220A      2.692891   221A      2.702181   222A      2.709243  
     223A      2.718265   224A      2.735759   225A      2.739061  
     226A      2.745218   227A      2.750812   228A      2.767113  
     229A      2.772058   230A      2.779632   231A      2.792827  
     232A      2.799598   233A      2.806379   234A      2.821368  
     235A      2.835345   236A      2.854928   237A      2.867662  
     238A      2.874365   239A      2.877677   240A      2.898378  
     241A      2.910382   242A      2.927859   243A      2.935079  
     244A      2.950388   245A      2.960883   246A      2.983438  
     247A      3.017401   248A      3.027292   249A      3.038308  
     250A      3.077156   251A      3.089247   252A      3.101474  
     253A      3.133236   254A      3.169902   255A      3.174636  
     256A      3.225312   257A      3.250422   258A      3.313748  
     259A      3.333580   260A      3.337852   261A      3.353610  
     262A      3.364729   263A      3.390267   264A      3.394325  
     265A      3.409948   266A      3.429690   267A      3.485506  
     268A      3.503230   269A      3.541822   270A      3.570435  
     271A      3.581013   272A      3.606573   273A      3.616137  
     274A      3.647820   275A      3.665358   276A      3.687227  
     277A      3.719021   278A      3.746649   279A      3.788290  
     280A      3.801457   281A      3.810456   282A      3.875855  
     283A      3.934639   284A      3.961768   285A      3.999962  
     286A      4.029179   287A      4.570661   288A      4.579756  
     289A      4.588001   290A      4.605209   291A      4.609753  
     292A      4.630744   293A      4.639100   294A      4.648621  
     295A      4.674818   296A      4.698194   297A      4.713641  
     298A      4.730648   299A      4.758796   300A      4.784870  
     301A      4.805259   302A      4.807792   303A      4.857730  
     304A      4.875719   305A      4.884752   306A      4.891833  
     307A      4.952322   308A      4.975213   309A      5.022093  
     310A      5.024271   311A      5.030677   312A      5.042302  
     313A      5.047293   314A      5.061064   315A      5.080239  
     316A      5.094697   317A      5.127812   318A      5.144023  
     319A      5.172077   320A      5.184488   321A      5.202302  
     322A      5.260216   323A      5.439788   324A      5.448383  
     325A      5.465977   326A      5.481979   327A      5.668567  
     328A      5.681290   329A      5.719139   330A      5.732835  
     331A      5.741703   332A      5.751233   333A      5.767898  
     334A      5.775696   335A      5.809855   336A      5.822437  
     337A      5.830026   338A      5.843977   339A      5.866286  
     340A      6.021967   341A      6.064131   342A      6.070601  
     343A      6.082487   344A      6.307176   345A      6.320056  
     346A      6.335309   347A      6.352163   348A      6.422548  
     349A      6.453966   350A      6.517557   351A      6.639907  
     352A      6.695575   353A      6.737003   354A      6.794518  
     355A      6.878892   356A      7.157226   357A      7.182336  
     358A      7.229491   359A      7.280120   360A      7.879470  
     361A      7.881336   362A      7.902614   363A      7.952216  
     364A      8.024951   365A      8.028677   366A      8.068625  
     367A      8.076158   368A      8.162933   369A      8.173603  
     370A      8.197825   371A      8.245493   372A      8.254537  
     373A      8.271109   374A      8.291849   375A      8.396273  
     376A      8.440328   377A      8.442160   378A      8.455541  
     379A      8.466056   380A      8.802233   381A      8.818968  
     382A      8.898841   383A      8.961236   384A      8.989257  
     385A      9.024116   386A      9.044581   387A      9.165803  
     388A      9.802378   389A      9.841764   390A      9.898876  
     391A      9.947170   392A     10.040154   393A     10.055573  
     394A     10.057898   395A     10.081076   396A     10.191068  
     397A     10.209040   398A     10.241914   399A     10.246936  
     400A     10.446086   401A     10.464955   402A     10.507397  
     403A     10.522894   404A     11.238003   405A     11.310466  
     406A     11.361512   407A     11.399329   408A     11.869634  
     409A     11.906196   410A     11.917605   411A     11.928643  
     412A     12.050772   413A     12.070050   414A     12.260676  
     415A     12.362002   416A     13.662114   417A     13.689398  
     418A     13.757374   419A     13.798798   420A     14.025198  
     421A     14.042144   422A     14.135175   423A     14.154442  
     424A     64.486680   425A     65.123465   426A     65.742712  
     427A     66.869107  

    Final Occupation by Irrep:
              A 
    DOCC [    18 ]
    NA   [    18 ]
    NB   [    18 ]

  @DF-RHF Final Energy: -2572.53372256918465

   => Energetics <=

    Nuclear Repulsion Energy =              0.0000000000000000
    One-Electron Energy =               -3593.6622203079173232
    Two-Electron Energy =                1021.1284977387330173
    Total Energy =                      -2572.5337225691841923

Computation Completed


Properties will be evaluated at   0.000000,   0.000000,   0.000000 [a0]

Properties computed using the SCF density matrix


 Multipole Moments:

 ------------------------------------------------------------------------------------
     Multipole            Electronic (a.u.)      Nuclear  (a.u.)        Total (a.u.)
 ------------------------------------------------------------------------------------

 L = 1.  Multiply by 2.5417464519 to convert [e a0] to [Debye]
 Dipole X            :         -0.0002300            0.0000000           -0.0002300
 Dipole Y            :         -0.0000259            0.0000000           -0.0000259
 Dipole Z            :         -0.0001317            0.0000000           -0.0001317
 Magnitude           :                                                    0.0002663

 ------------------------------------------------------------------------------------

*** tstop() called on ddmfs1 at Tue Jan 16 09:42:54 2024
Module time:
	user time   =      88.33 seconds =       1.47 minutes
	system time =       6.31 seconds =       0.11 minutes
	total time  =          9 seconds =       0.15 minutes
Total time:
	user time   =     221.97 seconds =       3.70 minutes
	system time =      20.30 seconds =       0.34 minutes
	total time  =         20 seconds =       0.33 minutes

  //>>>>>>>>>>>>>>>>>>>>>>>>>>>>>>>>>>>//
  //            Monomer B HF           //
  //<<<<<<<<<<<<<<<<<<<<<<<<<<<<<<<<<<<//

   => Libint2 <=

    Primary   basis highest AM E, G, H:  5, 4, 3
    Auxiliary basis highest AM E, G, H:  6, 5, 4
    Onebody   basis highest AM E, G, H:  6, 5, 4
    Solid Harmonics ordering:            gaussian

*** tstart() called on ddmfs1
*** at Tue Jan 16 09:42:54 2024

   => Loading Basis Set <=

    Name: AUG-CC-PVTZ
    Role: ORBITAL
    Keyword: BASIS
    atoms 1                     entry BR         line  4208 file /ddmfs1b/softs/psi4conda/share/psi4/basis/aug-cc-pvtz.gbs 
    atoms 2, 5, 8, 11           entry O          line   331 file /ddmfs1b/softs/psi4conda/share/psi4/basis/aug-cc-pvtz.gbs 
    atoms 3-4, 6-7, 9-10, 12-13 entry H          line    40 file /ddmfs1b/softs/psi4conda/share/psi4/basis/aug-cc-pvtz.gbs 


         ---------------------------------------------------------
                                   SCF
               by Justin Turney, Rob Parrish, Andy Simmonett
                          and Daniel G. A. Smith
                              RHF Reference
                       20 Threads,  57220 MiB Core
         ---------------------------------------------------------

  ==> Geometry <==

    Molecular point group: c1
    Full point group: C1

    Geometry (in Angstrom), charge = 0, multiplicity = 1:

       Center              X                  Y                   Z               Mass       
    ------------   -----------------  -----------------  -----------------  -----------------
      Gh(BR)          0.000000000000     0.000000000000     0.000000000000    78.918337600000
         O           -2.021869000000    -2.179823000000     1.217412000000    15.994914619570
         H           -2.921871000000    -1.867399000000     1.198558000000     1.007825032230
         H           -1.513540000000    -1.451927000000     0.815047000000     1.007825032230
         O           -2.961999000000     0.929139000000    -1.272353000000    15.994914619570
         H           -2.728774000000     1.887839000000    -1.108211000000     1.007825032230
         H           -2.207349000000     0.482925000000    -0.838278000000     1.007825032230
         O           -2.117015000000     1.588878000000     2.246208000000    15.994914619570
         H           -1.423790000000     1.453822000000     1.551659000000     1.007825032230
         H           -1.773078000000     0.949786000000     2.896329000000     1.007825032230
         O           -0.330378000000    -1.158355000000    -3.243256000000    15.994914619570
         H           -0.343064000000    -0.673188000000    -2.378621000000     1.007825032230
         H           -0.323750000000    -2.040751000000    -2.892653000000     1.007825032230

  Running in c1 symmetry.

  Rotational constants: A =      0.03986  B =      0.03191  C =      0.02564 [cm^-1]
  Rotational constants: A =   1194.85936  B =    956.73794  C =    768.63134 [MHz]
  Nuclear repulsion =  111.634804606924405

  Charge       = 0
  Multiplicity = 1
  Electrons    = 40
  Nalpha       = 20
  Nbeta        = 20

  ==> Algorithm <==

  SCF Algorithm Type is DF.
  DIIS enabled.
  MOM disabled.
  Fractional occupation disabled.
  Guess Type is SAD.
  Energy threshold   = 1.00e-08
  Density threshold  = 1.00e-08
  Integral threshold = 1.00e-12

  ==> Primary Basis <==

  Basis Set: AUG-CC-PVTZ
    Blend: AUG-CC-PVTZ
    Number of shells: 147
    Number of basis functions: 427
    Number of Cartesian functions: 489
    Spherical Harmonics?: true
    Max angular momentum: 3

   => Loading Basis Set <=

    Name: (AUG-CC-PVTZ AUX)
    Role: JKFIT
    Keyword: DF_BASIS_SCF
    atoms 1                     entry BR         line  1492 file /ddmfs1b/softs/psi4conda/share/psi4/basis/aug-cc-pvtz-jkfit.gbs 
    atoms 2, 5, 8, 11           entry O          line   286 file /ddmfs1b/softs/psi4conda/share/psi4/basis/aug-cc-pvtz-jkfit.gbs 
    atoms 3-4, 6-7, 9-10, 12-13 entry H          line    70 file /ddmfs1b/softs/psi4conda/share/psi4/basis/aug-cc-pvtz-jkfit.gbs 

  ==> Integral Setup <==

  ==> DiskDFJK: Density-Fitted J/K Matrices <==

    J tasked:                  Yes
    K tasked:                  Yes
    wK tasked:                  No
    OpenMP threads:             20
    Integrals threads:          20
    Memory [MiB]:            42915
    Algorithm:                Core
    Integral Cache:           LOAD
    Schwarz Cutoff:          1E-12
    Fitting Condition:       1E-10

   => Auxiliary Basis Set <=

  Basis Set: (AUG-CC-PVTZ AUX)
    Blend: AUG-CC-PVTZ-JKFIT
    Number of shells: 290
    Number of basis functions: 1032
    Number of Cartesian functions: 1293
    Spherical Harmonics?: true
    Max angular momentum: 4

  Minimum eigenvalue in the overlap matrix is 1.6769595520E-04.
  Reciprocal condition number of the overlap matrix is 1.3744468226E-05.
    Using symmetric orthogonalization.

  ==> Pre-Iterations <==

  SCF Guess: Superposition of Atomic Densities via on-the-fly atomic UHF (no occupation information).

   -------------------------
    Irrep   Nso     Nmo    
   -------------------------
     A        427     427 
   -------------------------
    Total     427     427
   -------------------------

  ==> Iterations <==

                           Total Energy        Delta E     RMS |[F,P]|

   @DF-RHF iter SAD:  -301.90222323772758   -3.01902e+02   0.00000e+00 
   @DF-RHF iter   1:  -303.87664600362132   -1.97442e+00   2.18963e-03 DIIS/ADIIS
   @DF-RHF iter   2:  -304.08567831926473   -2.09032e-01   1.53523e-03 DIIS/ADIIS
   @DF-RHF iter   3:  -304.22058782869277   -1.34910e-01   1.06552e-04 DIIS/ADIIS
   @DF-RHF iter   4:  -304.22232841779862   -1.74059e-03   2.73977e-05 DIIS
   @DF-RHF iter   5:  -304.22244981374769   -1.21396e-04   8.28180e-06 DIIS
   @DF-RHF iter   6:  -304.22246125236245   -1.14386e-05   3.76769e-06 DIIS
   @DF-RHF iter   7:  -304.22246290687269   -1.65451e-06   7.66734e-07 DIIS
   @DF-RHF iter   8:  -304.22246305123872   -1.44366e-07   1.28401e-07 DIIS
   @DF-RHF iter   9:  -304.22246305487209   -3.63337e-09   3.39148e-08 DIIS
   @DF-RHF iter  10:  -304.22246305502915   -1.57058e-10   1.40912e-08 DIIS
   @DF-RHF iter  11:  -304.22246305505519   -2.60343e-11   4.49241e-09 DIIS
  Energy and wave function converged.


  ==> Post-Iterations <==

    Orbital Energies [Eh]
    ---------------------

    Doubly Occupied:                                                      

       1A    -20.595526     2A    -20.590675     3A    -20.587015  
       4A    -20.578799     5A     -1.369136     6A     -1.366900  
       7A     -1.358446     8A     -1.356427     9A     -0.731561  
      10A     -0.712446    11A     -0.710245    12A     -0.702804  
      13A     -0.614277    14A     -0.603530    15A     -0.601530  
      16A     -0.600292    17A     -0.533530    18A     -0.527511  
      19A     -0.523421    20A     -0.516424  

    Virtual:                                                              

      21A      0.005097    22A      0.035965    23A      0.036412  
      24A      0.040289    25A      0.054673    26A      0.064718  
      27A      0.065245    28A      0.067515    29A      0.085996  
      30A      0.094297    31A      0.101957    32A      0.104632  
      33A      0.138571    34A      0.145739    35A      0.155874  
      36A      0.159315    37A      0.166876    38A      0.171030  
      39A      0.178119    40A      0.182979    41A      0.190589  
      42A      0.195437    43A      0.202382    44A      0.206968  
      45A      0.210825    46A      0.215892    47A      0.229767  
      48A      0.239696    49A      0.246380    50A      0.252632  
      51A      0.254014    52A      0.267550    53A      0.270416  
      54A      0.276437    55A      0.282574    56A      0.287669  
      57A      0.306016    58A      0.309467    59A      0.312810  
      60A      0.316985    61A      0.331131    62A      0.339359  
      63A      0.349151    64A      0.364937    65A      0.378833  
      66A      0.391789    67A      0.394206    68A      0.398452  
      69A      0.403806    70A      0.422573    71A      0.435546  
      72A      0.436504    73A      0.441005    74A      0.447586  
      75A      0.450820    76A      0.456141    77A      0.465664  
      78A      0.470054    79A      0.481656    80A      0.494176  
      81A      0.505174    82A      0.531987    83A      0.543856  
      84A      0.561474    85A      0.573950    86A      0.585268  
      87A      0.589975    88A      0.619030    89A      0.620077  
      90A      0.630990    91A      0.653351    92A      0.664992  
      93A      0.675550    94A      0.682391    95A      0.704590  
      96A      0.712701    97A      0.718580    98A      0.728585  
      99A      0.737128   100A      0.739622   101A      0.744839  
     102A      0.750834   103A      0.758840   104A      0.771958  
     105A      0.781319   106A      0.787387   107A      0.806812  
     108A      0.807482   109A      0.829627   110A      0.838288  
     111A      0.842071   112A      0.850027   113A      0.863159  
     114A      0.867791   115A      0.885253   116A      0.895177  
     117A      0.907690   118A      0.908807   119A      0.928368  
     120A      0.932833   121A      0.933292   122A      0.942134  
     123A      0.949400   124A      0.953079   125A      0.958857  
     126A      0.970885   127A      0.974057   128A      0.985744  
     129A      0.989950   130A      1.001853   131A      1.009721  
     132A      1.015351   133A      1.022109   134A      1.027496  
     135A      1.037174   136A      1.044586   137A      1.047892  
     138A      1.056735   139A      1.066039   140A      1.073692  
     141A      1.077087   142A      1.097219   143A      1.101726  
     144A      1.116264   145A      1.127758   146A      1.130579  
     147A      1.139501   148A      1.152177   149A      1.157462  
     150A      1.179492   151A      1.182725   152A      1.192547  
     153A      1.201384   154A      1.216625   155A      1.223647  
     156A      1.238096   157A      1.247023   158A      1.257484  
     159A      1.268073   160A      1.279911   161A      1.288257  
     162A      1.296030   163A      1.316520   164A      1.324026  
     165A      1.346320   166A      1.350786   167A      1.355441  
     168A      1.387471   169A      1.396985   170A      1.404010  
     171A      1.426686   172A      1.438441   173A      1.442495  
     174A      1.462462   175A      1.468552   176A      1.482004  
     177A      1.504610   178A      1.519906   179A      1.533563  
     180A      1.550688   181A      1.558862   182A      1.570280  
     183A      1.574621   184A      1.591341   185A      1.604452  
     186A      1.616713   187A      1.624332   188A      1.649937  
     189A      1.661733   190A      1.671650   191A      1.688396  
     192A      1.703069   193A      1.713949   194A      1.789934  
     195A      1.793658   196A      1.800933   197A      1.844143  
     198A      1.902422   199A      1.925999   200A      1.943225  
     201A      1.952238   202A      1.959752   203A      1.973326  
     204A      1.985181   205A      1.987802   206A      2.033954  
     207A      2.042774   208A      2.051228   209A      2.090690  
     210A      2.256295   211A      2.295720   212A      2.301493  
     213A      2.316302   214A      2.325512   215A      2.347045  
     216A      2.353868   217A      2.374220   218A      2.395041  
     219A      2.409008   220A      2.417741   221A      2.428624  
     222A      2.436173   223A      2.437638   224A      2.461235  
     225A      2.473963   226A      2.476838   227A      2.486353  
     228A      2.500465   229A      2.509837   230A      2.527721  
     231A      2.531558   232A      2.538510   233A      2.551830  
     234A      2.556890   235A      2.578322   236A      2.620700  
     237A      2.629234   238A      2.640307   239A      2.668398  
     240A      2.689178   241A      2.707366   242A      2.709150  
     243A      2.743557   244A      2.751475   245A      2.767534  
     246A      2.771499   247A      2.793864   248A      2.805042  
     249A      2.813364   250A      2.830116   251A      2.835183  
     252A      2.863478   253A      2.877755   254A      2.885595  
     255A      2.889142   256A      2.937738   257A      2.957495  
     258A      2.984739   259A      2.996165   260A      3.017333  
     261A      3.043932   262A      3.138859   263A      3.205425  
     264A      3.253071   265A      3.273605   266A      3.309393  
     267A      3.343626   268A      3.400380   269A      3.432015  
     270A      3.447736   271A      3.457260   272A      3.481139  
     273A      3.498734   274A      3.513464   275A      3.641358  
     276A      3.673245   277A      3.698209   278A      3.727301  
     279A      3.758850   280A      3.779420   281A      3.807799  
     282A      3.818846   283A      3.961752   284A      4.022979  
     285A      4.042324   286A      4.059997   287A      4.070558  
     288A      4.087768   289A      4.131126   290A      4.138713  
     291A      4.151227   292A      4.185821   293A      4.191917  
     294A      4.202342   295A      4.222666   296A      4.250999  
     297A      4.253868   298A      4.272206   299A      4.282363  
     300A      4.302801   301A      4.305423   302A      4.310803  
     303A      4.326405   304A      4.371671   305A      4.372399  
     306A      4.379293   307A      4.384907   308A      4.397894  
     309A      4.410796   310A      4.415263   311A      4.424201  
     312A      4.435707   313A      4.441071   314A      4.462792  
     315A      4.480618   316A      4.494235   317A      4.520893  
     318A      4.595045   319A      4.603371   320A      4.628661  
     321A      4.643151   322A      4.765725   323A      4.800106  
     324A      4.803862   325A      4.832100   326A      4.863601  
     327A      4.895074   328A      4.932384   329A      4.973737  
     330A      5.062108   331A      5.089458   332A      5.111396  
     333A      5.141523   334A      5.153697   335A      5.177070  
     336A      5.182602   337A      5.223483   338A      5.255952  
     339A      5.269721   340A      5.276047   341A      5.278662  
     342A      5.285897   343A      5.315229   344A      5.338420  
     345A      5.413818   346A      5.468282   347A      5.494361  
     348A      5.523862   349A      5.533982   350A      5.579416  
     351A      5.611836   352A      5.631481   353A      5.718818  
     354A      6.234021   355A      6.247340   356A      6.269040  
     357A      6.305252   358A      6.505769   359A      6.511289  
     360A      6.548161   361A      6.549038   362A      6.762144  
     363A      6.768787   364A      6.781755   365A      6.840061  
     366A      6.941593   367A      6.945037   368A      6.977846  
     369A      7.001222   370A      7.092908   371A      7.118039  
     372A      7.123701   373A      7.157404   374A      7.175034  
     375A      7.221749   376A      7.228159   377A      7.257773  
     378A      7.286789   379A      7.298304   380A      7.302855  
     381A      7.313952   382A      7.324707   383A      7.331937  
     384A      7.335787   385A      7.348649   386A      7.394358  
     387A      7.407502   388A      7.413082   389A      7.421664  
     390A      7.426329   391A      7.451022   392A      7.475311  
     393A      7.494071   394A      7.587052   395A      7.617041  
     396A      7.679545   397A      7.743461   398A      7.811503  
     399A      7.850233   400A      7.894798   401A      7.927688  
     402A      7.949220   403A      7.960260   404A      7.999116  
     405A      8.002788   406A      8.704767   407A      8.756477  
     408A      8.817945   409A      8.826411   410A     10.931774  
     411A     13.741943   412A     13.790947   413A     13.904742  
     414A     15.509203   415A     15.803221   416A     16.149416  
     417A     16.700127   418A     26.257965   419A     26.268766  
     420A     26.328749   421A     26.508105   422A     26.575488  
     423A     46.443765   424A    138.906510   425A    139.005032  
     426A    139.197453   427A    711.646255  

    Final Occupation by Irrep:
              A 
    DOCC [    20 ]
    NA   [    20 ]
    NB   [    20 ]

  @DF-RHF Final Energy:  -304.22246305505519

   => Energetics <=

    Nuclear Repulsion Energy =            111.6348046069244049
    One-Electron Energy =                -641.3535409919902577
    Two-Electron Energy =                 225.4962733300106947
    Total Energy =                       -304.2224630550551865

Computation Completed


Properties will be evaluated at   0.000000,   0.000000,   0.000000 [a0]

Properties computed using the SCF density matrix


 Multipole Moments:

 ------------------------------------------------------------------------------------
     Multipole            Electronic (a.u.)      Nuclear  (a.u.)        Total (a.u.)
 ------------------------------------------------------------------------------------

 L = 1.  Multiply by 2.5417464519 to convert [e a0] to [Debye]
 Dipole X            :        138.2545184         -137.3553179            0.8992005
 Dipole Y            :         15.0335532          -14.7780003            0.2555529
 Dipole Z            :         18.2072440          -17.3327230            0.8745210
 Magnitude           :                                                    1.2800999

 ------------------------------------------------------------------------------------

*** tstop() called on ddmfs1 at Tue Jan 16 09:43:02 2024
Module time:
	user time   =      97.06 seconds =       1.62 minutes
	system time =       4.14 seconds =       0.07 minutes
	total time  =          8 seconds =       0.13 minutes
Total time:
	user time   =     319.14 seconds =       5.32 minutes
	system time =      24.45 seconds =       0.41 minutes
	total time  =         28 seconds =       0.47 minutes
  Constructing Basis Sets for SAPT...

   => Loading Basis Set <=

    Name: (AUG-CC-PVTZ AUX)
    Role: RIFIT
    Keyword: DF_BASIS_SAPT
    atoms 1                     entry BR         line  1248 file /ddmfs1b/softs/psi4conda/share/psi4/basis/aug-cc-pvtz-ri.gbs 
    atoms 2, 5, 8, 11           entry O          line   264 file /ddmfs1b/softs/psi4conda/share/psi4/basis/aug-cc-pvtz-ri.gbs 
    atoms 3-4, 6-7, 9-10, 12-13 entry H          line    30 file /ddmfs1b/softs/psi4conda/share/psi4/basis/aug-cc-pvtz-ri.gbs 

   => Loading Basis Set <=

    Name: (AUG-CC-PVTZ AUX)
    Role: JKFIT
    Keyword: DF_BASIS_ELST
    atoms 1                     entry BR         line  1492 file /ddmfs1b/softs/psi4conda/share/psi4/basis/aug-cc-pvtz-jkfit.gbs 
    atoms 2, 5, 8, 11           entry O          line   286 file /ddmfs1b/softs/psi4conda/share/psi4/basis/aug-cc-pvtz-jkfit.gbs 
    atoms 3-4, 6-7, 9-10, 12-13 entry H          line    70 file /ddmfs1b/softs/psi4conda/share/psi4/basis/aug-cc-pvtz-jkfit.gbs 


  //>>>>>>>>>>>>>>>>>>>>>>>>>>>>>>>>>>>//
  //               SAPT2+              //
  //<<<<<<<<<<<<<<<<<<<<<<<<<<<<<<<<<<<//


*** tstart() called on ddmfs1
*** at Tue Jan 16 09:43:02 2024

        SAPT2+  
    Ed Hohenstein
     6 June 2009

      Orbital Information
  --------------------------
    NSO        =       427
    NMO        =       427
    NRI        =       983
    NOCC A     =        18
    NOCC B     =        20
    FOCC A     =         0
    FOCC B     =         0
    NVIR A     =       409
    NVIR B     =       407

    Estimated memory usage: 2921.4 MB

    Natural Orbital Cutoff:   1.000E-06
    Disp(T3) Truncation:            Yes
    CCD (vv|vv) Truncation:         Yes
    MBPT T2 Truncation:             Yes

    Monomer A: 320 virtual orbitals dropped
    Monomer B: 89 virtual orbitals dropped

    Elst10,r            =    -0.090224407152 [Eh]
    Exch10 (S^2)        =     0.061895075757 [Eh]
    Exch10              =     0.062707045302 [Eh]
    Ind20,r (A<-B)      =    -0.034535717009 [Eh]
    Ind20,r (B<-A)      =    -0.019588096308 [Eh]
    Ind20,r             =    -0.054123813317 [Eh]
    Exch-Ind20,r (A<-B) =     0.024903690145 [Eh]
    Exch-Ind20,r (B<-A) =     0.008833163185 [Eh]
    Exch-Ind20,r        =     0.033736853331 [Eh]
    Disp20              =    -0.027799347329 [Eh]
    Disp20 (NO)         =    -0.024366779854 [Eh]
    Exch-Disp20         =     0.006508946761 [Eh]
    Elst12,r            =     0.000356174175 [Eh]
    Exch11              =     0.003088847167 [Eh]
    Exch12              =     0.004659808108 [Eh]
    Ind22               =    -0.007253389891 [Eh]
    Disp21              =     0.002048588212 [Eh]
    Disp22 (SDQ)        =    -0.000102378474 [Eh]

    (i =   1 of  20)          9 seconds
    (i =   2 of  20)         18 seconds
    (i =   3 of  20)         27 seconds
    (i =   4 of  20)         36 seconds
    (i =   5 of  20)         44 seconds
    (i =   6 of  20)         53 seconds
    (i =   7 of  20)         62 seconds
    (i =   8 of  20)         71 seconds
    (i =   9 of  20)         80 seconds
    (i =  10 of  20)         89 seconds
    (i =  11 of  20)         98 seconds
    (i =  12 of  20)        107 seconds
    (i =  13 of  20)        116 seconds
    (i =  14 of  20)        125 seconds
    (i =  15 of  20)        134 seconds
    (i =  16 of  20)        143 seconds
    (i =  17 of  20)        152 seconds
    (i =  18 of  20)        161 seconds
    (i =  19 of  20)        170 seconds
    (i =  20 of  20)        179 seconds

    Disp220 (T)         =    -0.001855614340 [Eh]

    (i =   1 of  18)         65 seconds
    (i =   2 of  18)        131 seconds
    (i =   3 of  18)        196 seconds
    (i =   4 of  18)        261 seconds
    (i =   5 of  18)        326 seconds
    (i =   6 of  18)        391 seconds
    (i =   7 of  18)        456 seconds
    (i =   8 of  18)        521 seconds
    (i =   9 of  18)        586 seconds
    (i =  10 of  18)        651 seconds
    (i =  11 of  18)        716 seconds
    (i =  12 of  18)        782 seconds
    (i =  13 of  18)        847 seconds
    (i =  14 of  18)        912 seconds
    (i =  15 of  18)        977 seconds
    (i =  16 of  18)       1042 seconds
    (i =  17 of  18)       1108 seconds
    (i =  18 of  18)       1173 seconds

    Disp202 (T)         =    -0.002589688681 [Eh]

    Disp22 (T)          =    -0.004445303022 [Eh]

    Est. Disp220 (T)    =    -0.002117016194 [Eh]
    Est. Disp202 (T)    =    -0.002954500166 [Eh]

    Est. Disp22 (T)     =    -0.005071516360 [Eh]

    SAPT Results 
  --------------------------------------------------------------------------------------------------------
    Electrostatics                -89.86823298 [mEh]     -56.39316758 [kcal/mol]    -235.94901317 [kJ/mol]
      Elst10,r                    -90.22440715 [mEh]     -56.61667025 [kcal/mol]    -236.88414834 [kJ/mol]
      Elst12,r                      0.35617418 [mEh]       0.22350267 [kcal/mol]       0.93513517 [kJ/mol]

    Exchange                       70.45570058 [mEh]      44.21161959 [kcal/mol]     184.98141638 [kJ/mol]
      Exch10                       62.70704530 [mEh]      39.34926500 [kcal/mol]     164.63732476 [kJ/mol]
      Exch10(S^2)                  61.89507576 [mEh]      38.83974642 [kcal/mol]     162.50549901 [kJ/mol]
      Exch11(S^2)                   3.08884717 [mEh]       1.93828086 [kcal/mol]       8.10976712 [kJ/mol]
      Exch12(S^2)                   4.65980811 [mEh]       2.92407373 [kcal/mol]      12.23432450 [kJ/mol]

    Induction                     -32.00339955 [mEh]     -20.08243641 [kcal/mol]     -84.02491394 [kJ/mol]
      Ind20,r                     -54.12381332 [mEh]     -33.96320561 [kcal/mol]    -142.10205229 [kJ/mol]
      Ind22                        -7.25338989 [mEh]      -4.55157087 [kcal/mol]     -19.04377254 [kJ/mol]
      Exch-Ind20,r                 33.73685333 [mEh]      21.17019508 [kcal/mol]      88.57609622 [kJ/mol]
      Exch-Ind22                    4.52123633 [mEh]       2.83711863 [kcal/mol]      11.87050434 [kJ/mol]
      delta HF,r (2)               -8.88428600 [mEh]      -5.57497363 [kcal/mol]     -23.32568967 [kJ/mol]

    Dispersion                    -24.41570719 [mEh]     -15.32108757 [kcal/mol]     -64.10343040 [kJ/mol]
      Disp20                      -27.79934733 [mEh]     -17.44435381 [kcal/mol]     -72.98717636 [kJ/mol]
      Disp21                        2.04858821 [mEh]       1.28550851 [kcal/mol]       5.37856761 [kJ/mol]
      Disp22 (SDQ)                 -0.10237847 [mEh]      -0.06424346 [kcal/mol]      -0.26879465 [kJ/mol]
      Disp22 (T)                   -4.44530302 [mEh]      -2.78946976 [kcal/mol]     -11.67114148 [kJ/mol]
      Est. Disp22 (T)              -5.07151636 [mEh]      -3.18242456 [kcal/mol]     -13.31526437 [kJ/mol]
      Exch-Disp20                   6.50894676 [mEh]       4.08442576 [kcal/mol]      17.08923737 [kJ/mol]

  Total HF                        -56.78860783 [mEh]     -35.63538942 [kcal/mol]    -149.09846933 [kJ/mol]
  Total SAPT0                     -78.07900840 [mEh]     -48.99531748 [kcal/mol]    -204.99640832 [kJ/mol]
  Total SAPT2                     -72.70633252 [mEh]     -45.62391246 [kcal/mol]    -190.89044972 [kJ/mol]
  Total SAPT2+                    -75.83163914 [mEh]     -47.58507197 [kcal/mol]    -199.09594113 [kJ/mol]

  Special recipe for scaled SAPT0 (see Manual):
    Electrostatics sSAPT0         -90.22440715 [mEh]     -56.61667025 [kcal/mol]    -236.88414834 [kJ/mol]
    Exchange sSAPT0                62.70704530 [mEh]      39.34926500 [kcal/mol]     164.63732476 [kJ/mol]
    Induction sSAPT0              -27.92602294 [mEh]     -17.52384396 [kcal/mol]     -73.31976313 [kJ/mol]
    Dispersion sSAPT0             -21.03086287 [mEh]     -13.19706569 [kcal/mol]     -55.21652287 [kJ/mol]
  Total sSAPT0                    -76.47424766 [mEh]     -47.98831491 [kcal/mol]    -200.78310958 [kJ/mol]
  --------------------------------------------------------------------------------------------------------

*** tstop() called on ddmfs1 at Tue Jan 16 10:09:15 2024
Module time:
	user time   =   10442.09 seconds =     174.03 minutes
	system time =     177.45 seconds =       2.96 minutes
	total time  =       1573 seconds =      26.22 minutes
Total time:
	user time   =   10764.26 seconds =     179.40 minutes
	system time =     202.01 seconds =       3.37 minutes
	total time  =       1601 seconds =      26.68 minutes

    Psi4 stopped on: Tuesday, 16 January 2024 10:09AM
    Psi4 wall time for execution: 0:26:41.71

*** Psi4 exiting successfully. Buy a developer a beer!
