
Running Job 1 of 1 013_F-Water_0.95_almo.in
qchem 013_F-Water_0.95_almo.in_163959.0 /scratch/qchem163959/ 6
/home/kchung25/qchem/5.4.0/exe/qcprog.exe_s 013_F-Water_0.95_almo.in_163959.0 /scratch/qchem163959/
                  Welcome to Q-Chem
     A Quantum Leap Into The Future Of Chemistry


 Q-Chem 5.4, Q-Chem, Inc., Pleasanton, CA (2021)

 E. Epifanovsky,  A. T. B. Gilbert,  Xintian Feng,  Joonho Lee,  Yuezhi Mao,  
 N. Mardirossian,  P. Pokhilko,  A. White,  M. Wormit,  M. P. Coons,  
 A. L. Dempwolff,  Zhengting Gan,  D. Hait,  P. R. Horn,  L. D. Jacobson,  
 I. Kaliman,  J. Kussmann,  A. W. Lange,  Ka Un Lao,  D. S. Levine,  Jie Liu,  
 S. C. McKenzie,  A. F. Morrison,  K. Nanda,  F. Plasser,  D. R. Rehn,  
 M. L. Vidal,  Zhi-Qiang You,  Ying Zhu,  B. Alam,  B. Albrecht,  
 A. Aldossary,  E. Alguire,  J. H. Andersen,  D. Barton,  K. Begam,  A. Behn,  
 Y. A. Bernard,  E. J. Berquist,  H. Burton,  A. Carreras,  K. Carter-Fenk,  
 Romit Chakraborty,  A. D. Chien,  K. D. Closser,  V. Cofer-Shabica,  
 S. Dasgupta,  Jia Deng,  M. de Wergifosse,  M. Diedenhofen,  Hainam Do,  
 S. Ehlert,  Po-Tung Fang,  S. Fatehi,  Qingguo Feng,  T. Friedhoff,  
 J. Gayvert,  Qinghui Ge,  G. Gidofalvi,  M. Goldey,  J. Gomes,  
 C. Gonzalez-Espinoza,  S. Gulania,  A. Gunina,  M. W. D. Hanson-Heine,  
 P. H. P. Harbach,  A. W. Hauser,  M. F. Herbst,  M. Hernandez Vera,  
 M. Hodecker,  Z. C. Holden,  S. Houck,  Xunkun Huang,  Kerwin Hui,  
 B. C. Huynh,  M. Ivanov,  Hyunjun Ji,  Hanjie Jiang,  B. Kaduk,  S. Kaehler,  
 K. Khistyaev,  Jaehoon Kim,  P. Klunzinger,  Z. Koczor-Benda,  
 Joong Hoon Koh,  D. Kosenkov,  L. Koulias,  T. Kowalczyk,  C. M. Krauter,  
 K. Kue,  A. Kunitsa,  T. Kus,  A. Landau,  K. V. Lawler,  D. Lefrancois,  
 S. Lehtola,  Rain Li,  Yi-Pei Li,  Jiashu Liang,  M. Liebenthal,  
 Hung-Hsuan Lin,  You-Sheng Lin,  Fenglai Liu,  Kuan-Yu Liu,  
 M. Loipersberger,  A. Luenser,  A. Manjanath,  P. Manohar,  E. Mansoor,  
 S. F. Manzer,  Shan-Ping Mao,  A. V. Marenich,  T. Markovich,  S. Mason,  
 S. A. Maurer,  P. F. McLaughlin,  M. F. S. J. Menger,  J.-M. Mewes,  
 S. A. Mewes,  P. Morgante,  J. W. Mullinax,  K. J. Oosterbaan,  G. Paran,  
 Alexander C. Paul,  Suranjan K. Paul,  F. Pavosevic,  Zheng Pei,  S. Prager,  
 E. I. Proynov,  E. Ramos,  B. Rana,  A. E. Rask,  A. Rettig,  R. M. Richard,  
 F. Rob,  E. Rossomme,  T. Scheele,  M. Scheurer,  M. Schneider,  
 N. Sergueev,  S. M. Sharada,  W. Skomorowski,  D. W. Small,  C. J. Stein,  
 Yu-Chuan Su,  E. J. Sundstrom,  Zhen Tao,  J. Thirman,  T. Tsuchimochi,  
 N. M. Tubman,  S. P. Veccham,  O. Vydrov,  J. Wenzel,  J. Witte,  A. Yamada,  
 Kun Yao,  S. Yeganeh,  S. R. Yost,  A. Zech,  Igor Ying Zhang,  Xing Zhang,  
 Yu Zhang,  D. Zuev,  A. Aspuru-Guzik,  A. T. Bell,  N. A. Besley,  
 K. B. Bravaya,  B. R. Brooks,  D. Casanova,  Jeng-Da Chai,  S. Coriani,  
 C. J. Cramer,  A. E. DePrince, III,  R. A. DiStasio Jr.,  A. Dreuw,  
 B. D. Dunietz,  T. R. Furlani,  W. A. Goddard III,  S. Grimme,  
 S. Hammes-Schiffer,  T. Head-Gordon,  W. J. Hehre,  Chao-Ping Hsu,  
 T.-C. Jagau,  Yousung Jung,  A. Klamt,  Jing Kong,  D. S. Lambrecht,  
 WanZhen Liang,  N. J. Mayhall,  C. W. McCurdy,  J. B. Neaton,  T. Neudecker,  
 C. Ochsenfeld,  J. A. Parkhill,  R. Peverati,  V. A. Rassolov,  Yihan Shao,  
 L. V. Slipchenko,  R. P. Steele,  J. E. Subotnik,  A. J. W. Thom,  
 A. Tkatchenko,  D. G. Truhlar,  T. Van Voorhis,  T. A. Wesolowski,  
 K. B. Whaley,  H. L. Woodcock III,  P. M. Zimmerman,  S. Faraji,  
 P. M. W. Gill,  M. Head-Gordon,  J. M. Herbert,  A. I. Krylov

 Additional authors since Version 5.4.0: 
 Chandrima Chakravarty,  L. Cunha,  R. Kang,  Yongbin Kim,  S. Kotaru,  
 Shaozhi Li,  Xiangyuan Li,  F. Matz,  A. Molle,  V. Parravicini,  
 Haisheng Ren,  Hengyuan Shen,  Yingli Su,  Hung-Yi Tsai,  C. Utku,  
 Fang Wang,  Jeff Yang,  F. Zeller

 Contributors to earlier versions of Q-Chem not listed above: 
 R. D. Adamson,  B. Austin,  R. Baer,  J. Baker,  G. J. O. Beran,  
 K. Brandhorst,  S. T. Brown,  E. F. C. Byrd,  Arup K. Chakraborty,  
 G. K. L. Chan,  Chun-Min Chang,  Yunqing Chen,  C.-L. Cheng,  
 Siu Hung Chien,  D. M. Chipman,  D. L. Crittenden,  H. Dachsel,  
 R. J. Doerksen,  A. D. Dutoi,  R. G. Edgar,  J. Fosso-Tande,  
 L. Fusti-Molnar,  D. Ghosh,  A. Ghysels,  A. Golubeva-Zadorozhnaya,  
 J. Gonthier,  M. S. Gordon,  S. R. Gwaltney,  G. Hawkins,  J. E. Herr,  
 A. Heyden,  S. Hirata,  E. G. Hohenstein,  G. Kedziora,  F. J. Keil,  
 C. Kelley,  Jihan Kim,  R. A. King,  R. Z. Khaliullin,  P. P. Korambath,  
 W. Kurlancheek,  A. Laurent,  A. M. Lee,  M. S. Lee,  S. V. Levchenko,  
 Ching Yeh Lin,  D. Liotard,  E. Livshits,  R. C. Lochan,  I. Lotan,  
 L. A. Martinez-Martinez,  P. E. Maslen,  N. Nair,  D. P. O'Neill,  
 D. Neuhauser,  E. Neuscamman,  C. M. Oana,  R. Olivares-Amaya,  R. Olson,  
 T. M. Perrine,  B. Peters,  P. A. Pieniazek,  A. Prociuk,  Y. M. Rhee,  
 J. Ritchie,  M. A. Rohrdanz,  E. Rosta,  N. J. Russ,  H. F. Schaefer III,  
 M. W. Schmidt,  N. E. Schultz,  S. Sharma,  N. Shenvi,  C. D. Sherrill,  
 A. C. Simmonett,  A. Sodt,  T. Stein,  D. Stuck,  K. S. Thanthiriwatte,  
 V. Vanovschi,  L. Vogt,  Tao Wang,  A. Warshel,  M. A. Watson,  
 C. F. Williams,  Q. Wu,  X. Xu,  Jun Yang,  W. Zhang,  Yan Zhao

   Please cite Q-Chem as follows:
  "Software for the frontiers of quantum chemistry:
   An overview of developments in the Q-Chem 5 package"
   J. Chem. Phys. 155, 084801 (2021)
   https://doi.org/10.1063/5.0055522 (open access)

 Q-Chem 5.4.2 for Intel X86 EM64T Linux

 Parts of Q-Chem use Armadillo 9.900.5 (Nocturnal Misbehaviour).
 http://arma.sourceforge.net/

 Q-Chem begins on Fri Dec 29 18:03:13 2023  

 Host: 
0

     Scratch files written to /scratch/qchem163959//
 Dec1321 |scratch|qcdevops|jenkins|workspace|build_RNUM 5684   
 Processing $rem in /home/kchung25/qchem/5.4.0/config/preferences:
 Processing $rem in /home/kchung25/.qchemrc:

 Q-Chem warning in module libgen/rem_setup.C, line 3079:

 Neither GIA nor STOLL is specified by user. Use STOLL as the default


 Checking the input file for inconsistencies... 	...done.

--------------------------------------------------------------
User input:
--------------------------------------------------------------
$molecule
-1 1
--
0 1
O      0.000000     0.000000     0.000000
H     -0.159063     0.944263     0.000000
H      1.060028    -0.036721     0.000000
--
-1 1
F      2.305070     0.000000     0.000000
$end

$rem
JOBTYPE          eda
EDA2             1
METHOD           wB97M-V
BASIS            def2-TZVPPD
SYMMETRY         false
MEM_TOTAL        50000
MEM_STATIC       10000
THRESH           14
SCF_CONVERGENCE  8
XC_GRID          000099000590
NL_GRID          1
EDA_CLS_DISP     true
FD_MAT_VEC_PROD  FALSE
$end
--------------------------------------------------------------
 ----------------------------------------------------------------
             Standard Nuclear Orientation (Angstroms)
    I     Atom           X                Y                Z
 ----------------------------------------------------------------
    1      O       1.1352769197    -0.1068632016     0.0000000000
    2      H       1.3431598238     0.8278658229     0.0000000000
    3      H       0.0747722443    -0.0884885969    -0.0000000000
    4      F      -1.1666830473     0.0128364875    -0.0000000000
 ----------------------------------------------------------------
 Molecular Point Group                 Cs    NOp =  2
 Largest Abelian Subgroup              Cs    NOp =  2
 Nuclear Repulsion Energy =          30.90797861 hartrees
 There are       10 alpha and       10 beta electrons
 Requested basis set is def2-TZVPPD
 There are 42 shells and 114 basis functions

 Q-Chem warning in module libmdc/get_mega.C, line 171:

 Allowed MEM_STATIC has been capped at MEM_STATIC=8191.
 Reduce the value of MEM_STATIC to silence this warning.


 Total QAlloc Memory Limit  50000 MB
 Mega-Array Size      8007 MB
 MEM_STATIC part      8191 MB

                       Distance Matrix (Angstroms)
             O (  1)   H (  2)   H (  3)
   H (  2)  0.957567
   H (  3)  1.060664  1.564772
   F (  4)  2.305070  2.638860  1.245583
 
 A cutoff of  1.0D-14 yielded    896 shell pairs
 There are      6700 function pairs (      8486 Cartesian)
 Smallest overlap matrix eigenvalue = 5.28E-04

 Scale SEOQF with 1.000000e-01/1.000000e-01/1.000000e-01

 Standard Electronic Orientation quadrupole field applied
 Nucleus-field energy     =     0.0000000009 hartrees

 -----------------------------------------------------------------------
  General SCF calculation program by
  Eric Jon Sundstrom, Paul Horn, Yuezhi Mao, Dmitri Zuev, Alec White,
  David Stuck, Shaama M.S., Shane Yost, Joonho Lee, David Small,
  Daniel Levine, Susi Lehtola, Hugh Burton, Evgeny Epifanovsky,
  Bang C. Huynh
 -----------------------------------------------------------------------
================================================================
                 ALMO-EDA with the EDA2 driver                  
================================================================
 The second-generation ALMO-EDA (for DFT):                      
 P. R. Horn, Y. Mao and M. Head-Gordon, PCCP, 18, 23067 (2016)  
 Y. Mao et al. Annu. Rev. Phys. Chem. 72, 641 (2021)            
 Decomposition of the frozen energy:                            
 P. R. Horn, Y. Mao and M. Head-Gordon, JCP, 144, 114107 (2016) 
 FERF model for polarization:                                   
 P. R. Horn and M. Head-Gordon, JCP, 143, 114111 (2015)         
================================================================
 Using eda2 option set 1
 Option set summary: Frozen orbital wavefunction, initial wavefunction decomposition, and nDQ polarization.
--------------------------------
Printing EDA Options
--------------------------------
eda_child_super_basis      0
fragmo_guess_mode          0
child_mp                   1
child_mp_orders            232
cls_elec                   1
cls_disp                   1
scfmi_mode                 1
scfmi_occs                 0
scfmi_virts                0
frz_relax                  0
frz_relax_method           0
dc_pen_start               0
dc_pen_conv                0
dc_pen_increment           0
dc_pen_steps               0
dc_pen_thresh_factor       0
dc_pen_pre_newton_thresh   0
frz_ortho_decomp           1
frz_ortho_decomp_conv      6
plot_mo_ortho_frz          0
frgm_method                2
scfmi_freeze_ss            0
separate_rehyb             0
plot_diff_den              0
eda_nocv                   0
eda_vct_relax              1
disp_free_x                0
disp_free_c                0
eda_bsse                   0
eda_pct_a                  0
eda_covp                   0
--------------------------------
Attempting to make child job directory: /scratch/qchem163959//Frg1/
Attempting to make child job directory: /scratch/qchem163959//Frg2/
Creating input file /scratch/qchem163959/Frg1.input
using default PutDataFrgm: nothing
calling putenv with: QCSCRATCH=/scratch/qchem163959/ 
Spawning Job For Fragment 0
Done Job For Fragment 0
calling putenv with: QCSCRATCH=/scratch 
calling putenv with: QCTHREADS=6 
Creating input file /scratch/qchem163959/Frg2.input
using default PutDataFrgm: nothing
calling putenv with: QCSCRATCH=/scratch/qchem163959/ 
Spawning Job For Fragment 1
Done Job For Fragment 1
calling putenv with: QCSCRATCH=/scratch 
calling putenv with: QCTHREADS=6 
Doing General SCFMI
 Exchange:     0.1500 Hartree-Fock + 1.0000 wB97M-V + LR-HF
 Correlation:  1.0000 wB97M-V
 Using Euler-Maclaurin-Lebedev (99,590) quadrature formula
 Nonlocal Correlation:  VV10 with C = 0.0100 and b = 6.00 and scale = 1.00000
 Grid used for NLC:  SG-1 standard quadrature
performing fock build before subrot guess so that all methods have access
Printing subrot_rss_gen Method Specification:
Occupied Subspace Method is 0
Virtual Subspace Method is 0
Energy of the unrelaxed supersystem initial determinant -176.273241395474
write pseudocanon occs and virts to disk
write pseudocanon orbital energies to disk
Tolerance of ortho_decomp_scf: 1.00e-06
GDM subspace size: 20
Beginning the Orthogonal Decomposition of the Initial Supersystem Wavefunction
    1    -176.0348393035      7.48e-01     ortho_decomp Preconditoned Steepest Descent
    2    -176.0823294217      1.62e-02     ortho_decomp BFGS Step
    3    -176.0824748608      1.45e-03     ortho_decomp BFGS Step
    4    -176.0824750945      4.90e-05     ortho_decomp BFGS Step
    5    -176.0824750949      1.30e-06     ortho_decomp BFGS Step
    6    -176.0824750949      1.37e-07     ortho_decomp 00000 Convergence criterion met
 Hartree-Fock
 Hartree-Fock
 Hartree-Fock
 Exchange:     0.1500 Hartree-Fock + 1.0000 wB97M-V + LR-HF
 Correlation:  1.0000 wB97M-V
 Using Euler-Maclaurin-Lebedev (99,590) quadrature formula
 Nonlocal Correlation:  VV10 with C = 0.0100 and b = 6.00 and scale = 1.00000
 Grid used for NLC:  SG-1 standard quadrature
 Long-range K will be added via erf
 Coulomb attenuation parameter = 0.3 bohr**(-1)
 Nonlocal correlation = 8.382618396447e-02
Doing General SCFMI
 Exchange:     0.1500 Hartree-Fock + 1.0000 wB97M-V + LR-HF
 Correlation:  1.0000 wB97M-V
 Using Euler-Maclaurin-Lebedev (99,590) quadrature formula
 Nonlocal Correlation:  VV10 with C = 0.0100 and b = 6.00 and scale = 1.00000
 Grid used for NLC:  SG-1 standard quadrature
performing fock build at end of subrot_r(subrot) constructor so that all methods have access
<S^2> of initial wavefunction before polarization iterations 0.0000000000
Beginning iterations for the determination of the polarized wavefunction
Energy prior to optimization (guess energy) = -176.273241395474
Begin Timing: Total SCF Calculation
begin iterations for algorithm: DIIS         
the SCF tolerance is set to 1.00e-08
    1    -176.2732413955      3.33e-03     00000 
    2    -176.3059833118      1.13e-03     00000 
    3    -176.3088418790      7.98e-04     00000 
    4    -176.3098777419      1.84e-04     00000 
    5    -176.3099992940      5.45e-05     00000 
    6    -176.3100074122      3.89e-05     00000 
    7    -176.3100094252      3.77e-06     00000 
    8    -176.3100095205      7.07e-07     00000 
    9    -176.3100095242      1.73e-07     00000 
   10    -176.3100095244      4.06e-08     00000 
   11    -176.3100095244      7.44e-09     00000 Convergence criterion met
write pseudocanon occs and virts to disk
write pseudocanon orbital energies to disk
Timing for Total SCF: 8.00s (wall), 43.88s (cpu)
<S^2> of polarized wavefunction after polarization iterations 0.0000000000
relaxing scfmi constraint to allow all rotations in the entire AO span
Doing General SCFMI
 Exchange:     0.1500 Hartree-Fock + 1.0000 wB97M-V + LR-HF
 Correlation:  1.0000 wB97M-V
 Using Euler-Maclaurin-Lebedev (99,590) quadrature formula
 Nonlocal Correlation:  VV10 with C = 0.0100 and b = 6.00 and scale = 1.00000
 Grid used for NLC:  SG-1 standard quadrature
performing fock build at end of subrot_r(subrot) constructor so that all methods have access
<S^2> of polarized wavefunction before ct-allowed iterations 0.0000000000
Beginning iterations for the determination of the CT-Allowed wavefunction
Energy prior to optimization (guess energy) = -176.310009524410
Begin Timing: Total SCF Calculation
begin iterations for algorithm: DIIS         
the SCF tolerance is set to 1.00e-08
    1    -176.3100095244      2.31e-03     00000 
    2    -176.3449440997      4.96e-04     00000 
    3    -176.3458147404      5.22e-04     00000 
    4    -176.3467701202      4.69e-05     00000 
    5    -176.3467980678      1.98e-05     00000 
    6    -176.3468006565      8.43e-06     00000 
    7    -176.3468010625      2.38e-06     00000 
    8    -176.3468011155      2.38e-07     00000 
    9    -176.3468011172      5.72e-08     00000 
   10    -176.3468011173      1.44e-08     00000 
   11    -176.3468011173      3.56e-09     00000 Convergence criterion met
write pseudocanon occs and virts to disk
write pseudocanon orbital energies to disk
Timing for Total SCF: 8.00s (wall), 43.60s (cpu)
<S^2> of ct_allowed wavefunction after ct-allowed iterations 0.0000000000

================================
        Results of EDA2         
================================
Basic EDA Quantities
--------------------
Fragment Energies (Ha):
1  -76.4283913395
2  -99.8700285039
--------------------
  E_prp (kJ/mol) = 0.0000
  E_frz (kJ/mol) = 66.1068
  E_pol (kJ/mol) = -96.5359
  E_vct (kJ/mol) = -96.5975
  E_int (kJ/mol) = -127.0265
--------------------


Decomposition of frozen interaction energy
--------------------
  --------------------
  Orthogonal Frozen Decomposition:
  --------------------
     E_elec   (ELEC)   (kJ/mol) = -393.8642
     E_pauli  (PAULI)  (kJ/mol) = 479.7886
     E_disp   (DISP)   (kJ/mol) = -19.8176
  --------------------
  Classical Frozen Decomposition:
  --------------------
     E_cls_elec  (CLS ELEC)  (kJ/mol) = -241.6766
     E_mod_pauli (MOD PAULI) (kJ/mol) = 327.3971 (FRZ - CLS ELEC - CLS DISP)
     E_cls_disp  (CLS DISP)  (kJ/mol) = -19.6137
  --------------------
--------------------

Simplified EDA Summary (kJ/mol)
--------------------
 PREPARATION      0.0000
 FROZEN           66.1068 (ELEC + PAULI + DISP)
[ELEC + PAULI = 85.7205, DISP = -19.6137]
 POLARIZATION    -96.5359
 CHARGE TRANSFER -96.5975
 TOTAL           -127.0265     (PRP + FRZ + POL + CT)
--------------------
 
 --------------------------------------------------------------
             Orbital Energies (a.u.) and Symmetries
 --------------------------------------------------------------
 
 Alpha MOs, Restricted
 -- Occupied --                  
-24.536 -19.067  -0.944  -0.857  -0.374  -0.275  -0.193  -0.184
  1 A'    2 A'    3 A'    4 A'    5 A'    6 A'    1 A"    7 A'                 
 -0.161  -0.157
  2 A"    8 A'                                                                 
 -- Virtual --                   
  0.211   0.230   0.247   0.249   0.285   0.312   0.330   0.388
  9 A'   10 A'    3 A"   11 A'   12 A'   13 A'    4 A"   14 A'                 
  0.415   0.447   0.491   0.510   0.528   0.559   0.609   0.664
  5 A"   15 A'   16 A'   17 A'    6 A"   18 A'   19 A'   20 A'                 
  0.693   0.701   0.710   0.778   0.792   0.817   0.827   0.898
 21 A'    7 A"   22 A'    8 A"   23 A'   24 A'    9 A"   25 A'                 
  0.931   0.942   0.969   1.025   1.053   1.106   1.127   1.186
 10 A"   26 A'   27 A'   28 A'   11 A"   29 A'   12 A"   30 A'                 
  1.259   1.293   1.295   1.373   1.402   1.513   1.549   1.596
 31 A'   32 A'   13 A"   33 A'   34 A'   35 A'   14 A"   36 A'                 
  1.620   2.160   2.200   2.259   2.341   2.414   2.624   2.657
 37 A'   38 A'   15 A"   16 A"   39 A'   40 A'   41 A'   17 A"                 
  2.667   2.750   2.786   2.844   3.060   3.167   3.393   3.452
 42 A'   18 A"   43 A'   44 A'   45 A'   19 A"   46 A'   20 A"                 
  3.458   3.570   3.687   3.703   3.725   3.740   3.802   4.011
 47 A'   48 A'   49 A'   50 A'   21 A"   22 A"   51 A'   52 A'                 
  4.122   4.155   4.263   4.289   4.346   4.374   4.401   4.560
 23 A"   53 A'   54 A'   24 A"   55 A'   56 A'   25 A"   57 A'                 
  4.564   4.801   5.053   5.226   5.367   5.864   5.897   6.401
 26 A"   58 A'   59 A'   60 A'   61 A'   62 A'   27 A"   63 A'                 
  6.512   6.792   6.839   6.960   7.074   7.087   7.305   7.348
 28 A"   64 A'   29 A"   30 A"   65 A'   31 A"   66 A'   32 A"                 
  7.348   7.370   7.375   7.675   7.750   7.919   7.925   8.089
 67 A'   33 A"   68 A'   69 A'   70 A'   71 A'   34 A"   72 A'                 
  8.583   8.922   8.930   9.168   9.183   9.927  44.745  57.949
 73 A'   35 A"   74 A'   36 A"   75 A'   76 A'   77 A'   78 A'                 
 
 Beta MOs, Restricted
 -- Occupied --                  
-24.536 -19.067  -0.944  -0.857  -0.374  -0.275  -0.193  -0.184
  1 A'    2 A'    3 A'    4 A'    5 A'    6 A'    1 A"    7 A'                 
 -0.161  -0.157
  2 A"    8 A'                                                                 
 -- Virtual --                   
  0.211   0.230   0.247   0.249   0.285   0.312   0.330   0.388
  9 A'   10 A'    3 A"   11 A'   12 A'   13 A'    4 A"   14 A'                 
  0.415   0.447   0.491   0.510   0.528   0.559   0.609   0.664
  5 A"   15 A'   16 A'   17 A'    6 A"   18 A'   19 A'   20 A'                 
  0.693   0.701   0.710   0.778   0.792   0.817   0.827   0.898
 21 A'    7 A"   22 A'    8 A"   23 A'   24 A'    9 A"   25 A'                 
  0.931   0.942   0.969   1.025   1.053   1.106   1.127   1.186
 10 A"   26 A'   27 A'   28 A'   11 A"   29 A'   12 A"   30 A'                 
  1.259   1.293   1.295   1.373   1.402   1.513   1.549   1.596
 31 A'   32 A'   13 A"   33 A'   34 A'   35 A'   14 A"   36 A'                 
  1.620   2.160   2.200   2.259   2.341   2.414   2.624   2.657
 37 A'   38 A'   15 A"   16 A"   39 A'   40 A'   41 A'   17 A"                 
  2.667   2.750   2.786   2.844   3.060   3.167   3.393   3.452
 42 A'   18 A"   43 A'   44 A'   45 A'   19 A"   46 A'   20 A"                 
  3.458   3.570   3.687   3.703   3.725   3.740   3.802   4.011
 47 A'   48 A'   49 A'   50 A'   21 A"   22 A"   51 A'   52 A'                 
  4.122   4.155   4.263   4.289   4.346   4.374   4.401   4.560
 23 A"   53 A'   54 A'   24 A"   55 A'   56 A'   25 A"   57 A'                 
  4.564   4.801   5.053   5.226   5.367   5.864   5.897   6.401
 26 A"   58 A'   59 A'   60 A'   61 A'   62 A'   27 A"   63 A'                 
  6.512   6.792   6.839   6.960   7.074   7.087   7.305   7.348
 28 A"   64 A'   29 A"   30 A"   65 A'   31 A"   66 A'   32 A"                 
  7.348   7.370   7.375   7.675   7.750   7.919   7.925   8.089
 67 A'   33 A"   68 A'   69 A'   70 A'   71 A'   34 A"   72 A'                 
  8.583   8.922   8.930   9.168   9.183   9.927  44.745  57.949
 73 A'   35 A"   74 A'   36 A"   75 A'   76 A'   77 A'   78 A'                 
 --------------------------------------------------------------
 
          Ground-State Mulliken Net Atomic Charges

     Atom                 Charge (a.u.)
  ----------------------------------------
      1 O                    -0.655856
      2 H                     0.090712
      3 H                     0.296348
      4 F                    -0.731205
  ----------------------------------------
  Sum of atomic charges =    -1.000000

 -----------------------------------------------------------------
                    Cartesian Multipole Moments
 -----------------------------------------------------------------
    Charge (ESU x 10^10)
                -4.8032
    Dipole Moment (Debye)
         X       1.4142      Y       1.3347      Z      -0.0000
       Tot       1.9446
    Quadrupole Moments (Debye-Ang)
        XX     -24.1844     XY       2.4515     YY     -13.6096
        XZ       0.0000     YZ      -0.0000     ZZ     -15.6820
    Octopole Moments (Debye-Ang^2)
       XXX      -1.4155    XXY       3.5206    XYY       0.6775
       YYY       1.3572    XXZ      -0.0000    XYZ      -0.0000
       YYZ      -0.0000    XZZ      -1.9510    YZZ       0.1832
       ZZZ      -0.0000
    Hexadecapole Moments (Debye-Ang^3)
      XXXX    -148.9916   XXXY       6.1353   XXYY     -24.1805
      XYYY       2.5824   YYYY     -17.8421   XXXZ       0.0000
      XXYZ      -0.0000   XYYZ       0.0000   YYYZ      -0.0000
      XXZZ     -27.5379   XYZZ       0.4643   YYZZ      -6.3747
      XZZZ       0.0000   YZZZ      -0.0000   ZZZZ     -19.2302
 -----------------------------------------------------------------
 Total job time:  49.27s(wall), 168.52s(cpu) 
 Fri Dec 29 18:04:03 2023

        *************************************************************
        *                                                           *
        *  Thank you very much for using Q-Chem.  Have a nice day.  *
        *                                                           *
        *************************************************************


