
Running Job 1 of 1 013_F-Water_1.05_almo.in
qchem 013_F-Water_1.05_almo.in_164211.0 /scratch/qchem164211/ 6
/home/kchung25/qchem/5.4.0/exe/qcprog.exe_s 013_F-Water_1.05_almo.in_164211.0 /scratch/qchem164211/
                  Welcome to Q-Chem
     A Quantum Leap Into The Future Of Chemistry


 Q-Chem 5.4, Q-Chem, Inc., Pleasanton, CA (2021)

 E. Epifanovsky,  A. T. B. Gilbert,  Xintian Feng,  Joonho Lee,  Yuezhi Mao,  
 N. Mardirossian,  P. Pokhilko,  A. White,  M. Wormit,  M. P. Coons,  
 A. L. Dempwolff,  Zhengting Gan,  D. Hait,  P. R. Horn,  L. D. Jacobson,  
 I. Kaliman,  J. Kussmann,  A. W. Lange,  Ka Un Lao,  D. S. Levine,  Jie Liu,  
 S. C. McKenzie,  A. F. Morrison,  K. Nanda,  F. Plasser,  D. R. Rehn,  
 M. L. Vidal,  Zhi-Qiang You,  Ying Zhu,  B. Alam,  B. Albrecht,  
 A. Aldossary,  E. Alguire,  J. H. Andersen,  D. Barton,  K. Begam,  A. Behn,  
 Y. A. Bernard,  E. J. Berquist,  H. Burton,  A. Carreras,  K. Carter-Fenk,  
 Romit Chakraborty,  A. D. Chien,  K. D. Closser,  V. Cofer-Shabica,  
 S. Dasgupta,  Jia Deng,  M. de Wergifosse,  M. Diedenhofen,  Hainam Do,  
 S. Ehlert,  Po-Tung Fang,  S. Fatehi,  Qingguo Feng,  T. Friedhoff,  
 J. Gayvert,  Qinghui Ge,  G. Gidofalvi,  M. Goldey,  J. Gomes,  
 C. Gonzalez-Espinoza,  S. Gulania,  A. Gunina,  M. W. D. Hanson-Heine,  
 P. H. P. Harbach,  A. W. Hauser,  M. F. Herbst,  M. Hernandez Vera,  
 M. Hodecker,  Z. C. Holden,  S. Houck,  Xunkun Huang,  Kerwin Hui,  
 B. C. Huynh,  M. Ivanov,  Hyunjun Ji,  Hanjie Jiang,  B. Kaduk,  S. Kaehler,  
 K. Khistyaev,  Jaehoon Kim,  P. Klunzinger,  Z. Koczor-Benda,  
 Joong Hoon Koh,  D. Kosenkov,  L. Koulias,  T. Kowalczyk,  C. M. Krauter,  
 K. Kue,  A. Kunitsa,  T. Kus,  A. Landau,  K. V. Lawler,  D. Lefrancois,  
 S. Lehtola,  Rain Li,  Yi-Pei Li,  Jiashu Liang,  M. Liebenthal,  
 Hung-Hsuan Lin,  You-Sheng Lin,  Fenglai Liu,  Kuan-Yu Liu,  
 M. Loipersberger,  A. Luenser,  A. Manjanath,  P. Manohar,  E. Mansoor,  
 S. F. Manzer,  Shan-Ping Mao,  A. V. Marenich,  T. Markovich,  S. Mason,  
 S. A. Maurer,  P. F. McLaughlin,  M. F. S. J. Menger,  J.-M. Mewes,  
 S. A. Mewes,  P. Morgante,  J. W. Mullinax,  K. J. Oosterbaan,  G. Paran,  
 Alexander C. Paul,  Suranjan K. Paul,  F. Pavosevic,  Zheng Pei,  S. Prager,  
 E. I. Proynov,  E. Ramos,  B. Rana,  A. E. Rask,  A. Rettig,  R. M. Richard,  
 F. Rob,  E. Rossomme,  T. Scheele,  M. Scheurer,  M. Schneider,  
 N. Sergueev,  S. M. Sharada,  W. Skomorowski,  D. W. Small,  C. J. Stein,  
 Yu-Chuan Su,  E. J. Sundstrom,  Zhen Tao,  J. Thirman,  T. Tsuchimochi,  
 N. M. Tubman,  S. P. Veccham,  O. Vydrov,  J. Wenzel,  J. Witte,  A. Yamada,  
 Kun Yao,  S. Yeganeh,  S. R. Yost,  A. Zech,  Igor Ying Zhang,  Xing Zhang,  
 Yu Zhang,  D. Zuev,  A. Aspuru-Guzik,  A. T. Bell,  N. A. Besley,  
 K. B. Bravaya,  B. R. Brooks,  D. Casanova,  Jeng-Da Chai,  S. Coriani,  
 C. J. Cramer,  A. E. DePrince, III,  R. A. DiStasio Jr.,  A. Dreuw,  
 B. D. Dunietz,  T. R. Furlani,  W. A. Goddard III,  S. Grimme,  
 S. Hammes-Schiffer,  T. Head-Gordon,  W. J. Hehre,  Chao-Ping Hsu,  
 T.-C. Jagau,  Yousung Jung,  A. Klamt,  Jing Kong,  D. S. Lambrecht,  
 WanZhen Liang,  N. J. Mayhall,  C. W. McCurdy,  J. B. Neaton,  T. Neudecker,  
 C. Ochsenfeld,  J. A. Parkhill,  R. Peverati,  V. A. Rassolov,  Yihan Shao,  
 L. V. Slipchenko,  R. P. Steele,  J. E. Subotnik,  A. J. W. Thom,  
 A. Tkatchenko,  D. G. Truhlar,  T. Van Voorhis,  T. A. Wesolowski,  
 K. B. Whaley,  H. L. Woodcock III,  P. M. Zimmerman,  S. Faraji,  
 P. M. W. Gill,  M. Head-Gordon,  J. M. Herbert,  A. I. Krylov

 Additional authors since Version 5.4.0: 
 Chandrima Chakravarty,  L. Cunha,  R. Kang,  Yongbin Kim,  S. Kotaru,  
 Shaozhi Li,  Xiangyuan Li,  F. Matz,  A. Molle,  V. Parravicini,  
 Haisheng Ren,  Hengyuan Shen,  Yingli Su,  Hung-Yi Tsai,  C. Utku,  
 Fang Wang,  Jeff Yang,  F. Zeller

 Contributors to earlier versions of Q-Chem not listed above: 
 R. D. Adamson,  B. Austin,  R. Baer,  J. Baker,  G. J. O. Beran,  
 K. Brandhorst,  S. T. Brown,  E. F. C. Byrd,  Arup K. Chakraborty,  
 G. K. L. Chan,  Chun-Min Chang,  Yunqing Chen,  C.-L. Cheng,  
 Siu Hung Chien,  D. M. Chipman,  D. L. Crittenden,  H. Dachsel,  
 R. J. Doerksen,  A. D. Dutoi,  R. G. Edgar,  J. Fosso-Tande,  
 L. Fusti-Molnar,  D. Ghosh,  A. Ghysels,  A. Golubeva-Zadorozhnaya,  
 J. Gonthier,  M. S. Gordon,  S. R. Gwaltney,  G. Hawkins,  J. E. Herr,  
 A. Heyden,  S. Hirata,  E. G. Hohenstein,  G. Kedziora,  F. J. Keil,  
 C. Kelley,  Jihan Kim,  R. A. King,  R. Z. Khaliullin,  P. P. Korambath,  
 W. Kurlancheek,  A. Laurent,  A. M. Lee,  M. S. Lee,  S. V. Levchenko,  
 Ching Yeh Lin,  D. Liotard,  E. Livshits,  R. C. Lochan,  I. Lotan,  
 L. A. Martinez-Martinez,  P. E. Maslen,  N. Nair,  D. P. O'Neill,  
 D. Neuhauser,  E. Neuscamman,  C. M. Oana,  R. Olivares-Amaya,  R. Olson,  
 T. M. Perrine,  B. Peters,  P. A. Pieniazek,  A. Prociuk,  Y. M. Rhee,  
 J. Ritchie,  M. A. Rohrdanz,  E. Rosta,  N. J. Russ,  H. F. Schaefer III,  
 M. W. Schmidt,  N. E. Schultz,  S. Sharma,  N. Shenvi,  C. D. Sherrill,  
 A. C. Simmonett,  A. Sodt,  T. Stein,  D. Stuck,  K. S. Thanthiriwatte,  
 V. Vanovschi,  L. Vogt,  Tao Wang,  A. Warshel,  M. A. Watson,  
 C. F. Williams,  Q. Wu,  X. Xu,  Jun Yang,  W. Zhang,  Yan Zhao

   Please cite Q-Chem as follows:
  "Software for the frontiers of quantum chemistry:
   An overview of developments in the Q-Chem 5 package"
   J. Chem. Phys. 155, 084801 (2021)
   https://doi.org/10.1063/5.0055522 (open access)

 Q-Chem 5.4.2 for Intel X86 EM64T Linux

 Parts of Q-Chem use Armadillo 9.900.5 (Nocturnal Misbehaviour).
 http://arma.sourceforge.net/

 Q-Chem begins on Fri Dec 29 18:04:49 2023  

 Host: 
0

     Scratch files written to /scratch/qchem164211//
 Dec1321 |scratch|qcdevops|jenkins|workspace|build_RNUM 5684   
 Processing $rem in /home/kchung25/qchem/5.4.0/config/preferences:
 Processing $rem in /home/kchung25/.qchemrc:

 Q-Chem warning in module libgen/rem_setup.C, line 3079:

 Neither GIA nor STOLL is specified by user. Use STOLL as the default


 Checking the input file for inconsistencies... 	...done.

--------------------------------------------------------------
User input:
--------------------------------------------------------------
$molecule
-1 1
--
0 1
O      0.000000     0.000000     0.000000
H     -0.159063     0.944263     0.000000
H      1.060028    -0.036721     0.000000
--
-1 1
F      2.547708     0.000000     0.000000
$end

$rem
JOBTYPE          eda
EDA2             1
METHOD           wB97M-V
BASIS            def2-TZVPPD
SYMMETRY         false
MEM_TOTAL        50000
MEM_STATIC       10000
THRESH           14
SCF_CONVERGENCE  8
XC_GRID          000099000590
NL_GRID          1
EDA_CLS_DISP     true
FD_MAT_VEC_PROD  FALSE
$end
--------------------------------------------------------------
 ----------------------------------------------------------------
             Standard Nuclear Orientation (Angstroms)
    I     Atom           X                Y                Z
 ----------------------------------------------------------------
    1      O       1.2507139835    -0.1052834179     0.0000000000
    2      H       1.4529504965     0.8306834853     0.0000000000
    3      H       0.1901177106    -0.0933110111     0.0000000000
    4      F      -1.2943088972     0.0116549855    -0.0000000000
 ----------------------------------------------------------------
 Molecular Point Group                 Cs    NOp =  2
 Largest Abelian Subgroup              Cs    NOp =  2
 Nuclear Repulsion Energy =          28.56711073 hartrees
 There are       10 alpha and       10 beta electrons
 Requested basis set is def2-TZVPPD
 There are 42 shells and 114 basis functions

 Q-Chem warning in module libmdc/get_mega.C, line 171:

 Allowed MEM_STATIC has been capped at MEM_STATIC=8191.
 Reduce the value of MEM_STATIC to silence this warning.


 Total QAlloc Memory Limit  50000 MB
 Mega-Array Size      8007 MB
 MEM_STATIC part      8191 MB

                       Distance Matrix (Angstroms)
             O (  1)   H (  2)   H (  3)
   H (  2)  0.957567
   H (  3)  1.060664  1.564772
   F (  4)  2.547708  2.866748  1.488133
 
 A cutoff of  1.0D-14 yielded    890 shell pairs
 There are      6678 function pairs (      8460 Cartesian)
 Smallest overlap matrix eigenvalue = 5.91E-04

 Scale SEOQF with 1.000000e-01/1.000000e-01/1.000000e-01

 Standard Electronic Orientation quadrupole field applied
 Nucleus-field energy     =     0.0000000011 hartrees

 -----------------------------------------------------------------------
  General SCF calculation program by
  Eric Jon Sundstrom, Paul Horn, Yuezhi Mao, Dmitri Zuev, Alec White,
  David Stuck, Shaama M.S., Shane Yost, Joonho Lee, David Small,
  Daniel Levine, Susi Lehtola, Hugh Burton, Evgeny Epifanovsky,
  Bang C. Huynh
 -----------------------------------------------------------------------
================================================================
                 ALMO-EDA with the EDA2 driver                  
================================================================
 The second-generation ALMO-EDA (for DFT):                      
 P. R. Horn, Y. Mao and M. Head-Gordon, PCCP, 18, 23067 (2016)  
 Y. Mao et al. Annu. Rev. Phys. Chem. 72, 641 (2021)            
 Decomposition of the frozen energy:                            
 P. R. Horn, Y. Mao and M. Head-Gordon, JCP, 144, 114107 (2016) 
 FERF model for polarization:                                   
 P. R. Horn and M. Head-Gordon, JCP, 143, 114111 (2015)         
================================================================
 Using eda2 option set 1
 Option set summary: Frozen orbital wavefunction, initial wavefunction decomposition, and nDQ polarization.
--------------------------------
Printing EDA Options
--------------------------------
eda_child_super_basis      0
fragmo_guess_mode          0
child_mp                   1
child_mp_orders            232
cls_elec                   1
cls_disp                   1
scfmi_mode                 1
scfmi_occs                 0
scfmi_virts                0
frz_relax                  0
frz_relax_method           0
dc_pen_start               0
dc_pen_conv                0
dc_pen_increment           0
dc_pen_steps               0
dc_pen_thresh_factor       0
dc_pen_pre_newton_thresh   0
frz_ortho_decomp           1
frz_ortho_decomp_conv      6
plot_mo_ortho_frz          0
frgm_method                2
scfmi_freeze_ss            0
separate_rehyb             0
plot_diff_den              0
eda_nocv                   0
eda_vct_relax              1
disp_free_x                0
disp_free_c                0
eda_bsse                   0
eda_pct_a                  0
eda_covp                   0
--------------------------------
Attempting to make child job directory: /scratch/qchem164211//Frg1/
Attempting to make child job directory: /scratch/qchem164211//Frg2/
Creating input file /scratch/qchem164211/Frg1.input
using default PutDataFrgm: nothing
calling putenv with: QCSCRATCH=/scratch/qchem164211/ 
Spawning Job For Fragment 0
Done Job For Fragment 0
calling putenv with: QCSCRATCH=/scratch 
calling putenv with: QCTHREADS=6 
Creating input file /scratch/qchem164211/Frg2.input
using default PutDataFrgm: nothing
calling putenv with: QCSCRATCH=/scratch/qchem164211/ 
Spawning Job For Fragment 1
Done Job For Fragment 1
calling putenv with: QCSCRATCH=/scratch 
calling putenv with: QCTHREADS=6 
Doing General SCFMI
 Exchange:     0.1500 Hartree-Fock + 1.0000 wB97M-V + LR-HF
 Correlation:  1.0000 wB97M-V
 Using Euler-Maclaurin-Lebedev (99,590) quadrature formula
 Nonlocal Correlation:  VV10 with C = 0.0100 and b = 6.00 and scale = 1.00000
 Grid used for NLC:  SG-1 standard quadrature
performing fock build before subrot guess so that all methods have access
Printing subrot_rss_gen Method Specification:
Occupied Subspace Method is 0
Virtual Subspace Method is 0
Energy of the unrelaxed supersystem initial determinant -176.309414234948
write pseudocanon occs and virts to disk
write pseudocanon orbital energies to disk
Tolerance of ortho_decomp_scf: 1.00e-06
GDM subspace size: 20
Beginning the Orthogonal Decomposition of the Initial Supersystem Wavefunction
    1    -176.1544659386      5.08e-01     ortho_decomp Preconditoned Steepest Descent
    2    -176.1786112988      1.18e-02     ortho_decomp BFGS Step
    3    -176.1786897300      9.29e-04     ortho_decomp BFGS Step
    4    -176.1786898215      2.98e-05     ortho_decomp BFGS Step
    5    -176.1786898217      8.03e-07     ortho_decomp 00000 Convergence criterion met
 Hartree-Fock
 Hartree-Fock
 Hartree-Fock
 Exchange:     0.1500 Hartree-Fock + 1.0000 wB97M-V + LR-HF
 Correlation:  1.0000 wB97M-V
 Using Euler-Maclaurin-Lebedev (99,590) quadrature formula
 Nonlocal Correlation:  VV10 with C = 0.0100 and b = 6.00 and scale = 1.00000
 Grid used for NLC:  SG-1 standard quadrature
 Long-range K will be added via erf
 Coulomb attenuation parameter = 0.3 bohr**(-1)
 Nonlocal correlation = 8.413910771579e-02
Doing General SCFMI
 Exchange:     0.1500 Hartree-Fock + 1.0000 wB97M-V + LR-HF
 Correlation:  1.0000 wB97M-V
 Using Euler-Maclaurin-Lebedev (99,590) quadrature formula
 Nonlocal Correlation:  VV10 with C = 0.0100 and b = 6.00 and scale = 1.00000
 Grid used for NLC:  SG-1 standard quadrature
performing fock build at end of subrot_r(subrot) constructor so that all methods have access
<S^2> of initial wavefunction before polarization iterations 0.0000000000
Beginning iterations for the determination of the polarized wavefunction
Energy prior to optimization (guess energy) = -176.309414234948
Begin Timing: Total SCF Calculation
begin iterations for algorithm: DIIS         
the SCF tolerance is set to 1.00e-08
    1    -176.3094142349      2.27e-03     00000 
    2    -176.3279028919      8.10e-04     00000 
    3    -176.3294101039      6.51e-04     00000 
    4    -176.3300333065      1.36e-04     00000 
    5    -176.3300962402      4.41e-05     00000 
    6    -176.3301009928      2.86e-05     00000 
    7    -176.3301021936      2.68e-06     00000 
    8    -176.3301022368      5.11e-07     00000 
    9    -176.3301022383      1.42e-07     00000 
   10    -176.3301022384      2.82e-08     00000 
   11    -176.3301022384      4.95e-09     00000 Convergence criterion met
write pseudocanon occs and virts to disk
write pseudocanon orbital energies to disk
Timing for Total SCF: 6.00s (wall), 40.67s (cpu)
<S^2> of polarized wavefunction after polarization iterations 0.0000000000
relaxing scfmi constraint to allow all rotations in the entire AO span
Doing General SCFMI
 Exchange:     0.1500 Hartree-Fock + 1.0000 wB97M-V + LR-HF
 Correlation:  1.0000 wB97M-V
 Using Euler-Maclaurin-Lebedev (99,590) quadrature formula
 Nonlocal Correlation:  VV10 with C = 0.0100 and b = 6.00 and scale = 1.00000
 Grid used for NLC:  SG-1 standard quadrature
performing fock build at end of subrot_r(subrot) constructor so that all methods have access
<S^2> of polarized wavefunction before ct-allowed iterations 0.0000000000
Beginning iterations for the determination of the CT-Allowed wavefunction
Energy prior to optimization (guess energy) = -176.330102238392
Begin Timing: Total SCF Calculation
begin iterations for algorithm: DIIS         
the SCF tolerance is set to 1.00e-08
    1    -176.3301022384      1.49e-03     00000 
    2    -176.3476475688      3.39e-04     00000 
    3    -176.3482245256      3.58e-04     00000 
    4    -176.3486923111      3.54e-05     00000 
    5    -176.3487108239      1.01e-05     00000 
    6    -176.3487119258      3.24e-06     00000 
    7    -176.3487120233      2.04e-06     00000 
    8    -176.3487120474      2.17e-07     00000 
    9    -176.3487120485      4.32e-08     00000 
   10    -176.3487120486      1.02e-08     00000 
   11    -176.3487120486      2.59e-09     00000 Convergence criterion met
write pseudocanon occs and virts to disk
write pseudocanon orbital energies to disk
Timing for Total SCF: 7.00s (wall), 40.36s (cpu)
<S^2> of ct_allowed wavefunction after ct-allowed iterations 0.0000000000

================================
        Results of EDA2         
================================
Basic EDA Quantities
--------------------
Fragment Energies (Ha):
1  -76.4283913337
2  -99.8700285040
--------------------
  E_prp (kJ/mol) = 0.0000
  E_frz (kJ/mol) = -28.8661
  E_pol (kJ/mol) = -54.3170
  E_vct (kJ/mol) = -48.8606
  E_int (kJ/mol) = -132.0438
--------------------


Decomposition of frozen interaction energy
--------------------
  --------------------
  Orthogonal Frozen Decomposition:
  --------------------
     E_elec   (ELEC)   (kJ/mol) = -274.1373
     E_pauli  (PAULI)  (kJ/mol) = 260.3241
     E_disp   (DISP)   (kJ/mol) = -15.0530
  --------------------
  Classical Frozen Decomposition:
  --------------------
     E_cls_elec  (CLS ELEC)  (kJ/mol) = -162.5475
     E_mod_pauli (MOD PAULI) (kJ/mol) = 145.6899 (FRZ - CLS ELEC - CLS DISP)
     E_cls_disp  (CLS DISP)  (kJ/mol) = -12.0085
  --------------------
--------------------

Simplified EDA Summary (kJ/mol)
--------------------
 PREPARATION      0.0000
 FROZEN           -28.8661 (ELEC + PAULI + DISP)
[ELEC + PAULI = -16.8576, DISP = -12.0085]
 POLARIZATION    -54.3170
 CHARGE TRANSFER -48.8606
 TOTAL           -132.0438     (PRP + FRZ + POL + CT)
--------------------
 
 --------------------------------------------------------------
             Orbital Energies (a.u.) and Symmetries
 --------------------------------------------------------------
 
 Alpha MOs, Restricted
 -- Occupied --                  
-24.523 -19.100  -0.915  -0.885  -0.387  -0.285  -0.199  -0.166
  1 A'    2 A'    3 A'    4 A'    5 A'    6 A'    1 A"    7 A'                 
 -0.162  -0.161
  2 A"    8 A'                                                                 
 -- Virtual --                   
  0.202   0.232   0.243   0.246   0.285   0.320   0.336   0.379
  9 A'   10 A'    3 A"   11 A'   12 A'   13 A'    4 A"   14 A'                 
  0.406   0.433   0.475   0.499   0.513   0.547   0.599   0.638
  5 A"   15 A'   16 A'   17 A'    6 A"   18 A'   19 A'   20 A'                 
  0.675   0.687   0.689   0.771   0.772   0.812   0.821   0.892
 21 A'   22 A'    7 A"    8 A"   23 A'   24 A'    9 A"   25 A'                 
  0.927   0.942   0.957   0.990   1.022   1.091   1.103   1.152
 26 A'   10 A"   27 A'   28 A'   11 A"   29 A'   12 A"   30 A'                 
  1.215   1.273   1.278   1.376   1.387   1.493   1.525   1.551
 31 A'   13 A"   32 A'   33 A'   34 A'   14 A"   35 A'   36 A'                 
  1.603   1.968   2.175   2.227   2.315   2.377   2.568   2.679
 37 A'   38 A'   15 A"   16 A"   39 A'   40 A'   41 A'   17 A"                 
  2.685   2.714   2.743   2.803   2.996   3.125   3.235   3.420
 42 A'   18 A"   43 A'   44 A'   45 A'   19 A"   46 A'   20 A"                 
  3.437   3.521   3.657   3.671   3.696   3.780   3.808   3.901
 47 A'   48 A'   49 A'   50 A'   21 A"   22 A"   51 A'   52 A'                 
  4.028   4.086   4.225   4.275   4.280   4.325   4.380   4.392
 53 A'   23 A"   24 A"   54 A'   55 A'   25 A"   56 A'   26 A"                 
  4.449   4.680   4.982   5.034   5.238   5.492   5.872   6.356
 57 A'   58 A'   59 A'   60 A'   61 A'   62 A'   27 A"   63 A'                 
  6.477   6.758   6.812   6.926   7.041   7.068   7.200   7.362
 28 A"   64 A'   29 A"   30 A"   65 A'   31 A"   66 A'   32 A"                 
  7.363   7.366   7.366   7.480   7.517   7.538   7.780   7.916
 67 A'   33 A"   68 A'   69 A'   34 A"   70 A'   71 A'   72 A'                 
  8.169   8.933   8.938   9.041   9.054   9.533  44.619  57.778
 73 A'   35 A"   74 A'   36 A"   75 A'   76 A'   77 A'   78 A'                 
 
 Beta MOs, Restricted
 -- Occupied --                  
-24.523 -19.100  -0.915  -0.885  -0.387  -0.285  -0.199  -0.166
  1 A'    2 A'    3 A'    4 A'    5 A'    6 A'    1 A"    7 A'                 
 -0.162  -0.161
  2 A"    8 A'                                                                 
 -- Virtual --                   
  0.202   0.232   0.243   0.246   0.285   0.320   0.336   0.379
  9 A'   10 A'    3 A"   11 A'   12 A'   13 A'    4 A"   14 A'                 
  0.406   0.433   0.475   0.499   0.513   0.547   0.599   0.638
  5 A"   15 A'   16 A'   17 A'    6 A"   18 A'   19 A'   20 A'                 
  0.675   0.687   0.689   0.771   0.772   0.812   0.821   0.892
 21 A'   22 A'    7 A"    8 A"   23 A'   24 A'    9 A"   25 A'                 
  0.927   0.942   0.957   0.990   1.022   1.091   1.103   1.152
 26 A'   10 A"   27 A'   28 A'   11 A"   29 A'   12 A"   30 A'                 
  1.215   1.273   1.278   1.376   1.387   1.493   1.525   1.551
 31 A'   13 A"   32 A'   33 A'   34 A'   14 A"   35 A'   36 A'                 
  1.603   1.968   2.175   2.227   2.315   2.377   2.568   2.679
 37 A'   38 A'   15 A"   16 A"   39 A'   40 A'   41 A'   17 A"                 
  2.685   2.714   2.743   2.803   2.996   3.125   3.235   3.420
 42 A'   18 A"   43 A'   44 A'   45 A'   19 A"   46 A'   20 A"                 
  3.437   3.521   3.657   3.671   3.696   3.780   3.808   3.901
 47 A'   48 A'   49 A'   50 A'   21 A"   22 A"   51 A'   52 A'                 
  4.028   4.086   4.225   4.275   4.280   4.325   4.380   4.392
 53 A'   23 A"   24 A"   54 A'   55 A'   25 A"   56 A'   26 A"                 
  4.449   4.680   4.982   5.034   5.238   5.492   5.872   6.356
 57 A'   58 A'   59 A'   60 A'   61 A'   62 A'   27 A"   63 A'                 
  6.477   6.758   6.812   6.926   7.041   7.068   7.200   7.362
 28 A"   64 A'   29 A"   30 A"   65 A'   31 A"   66 A'   32 A"                 
  7.363   7.366   7.366   7.480   7.517   7.538   7.780   7.916
 67 A'   33 A"   68 A'   69 A'   34 A"   70 A'   71 A'   72 A'                 
  8.169   8.933   8.938   9.041   9.054   9.533  44.619  57.778
 73 A'   35 A"   74 A'   36 A"   75 A'   76 A'   77 A'   78 A'                 
 --------------------------------------------------------------
 
          Ground-State Mulliken Net Atomic Charges

     Atom                 Charge (a.u.)
  ----------------------------------------
      1 O                    -0.616715
      2 H                     0.101324
      3 H                     0.344109
      4 F                    -0.828717
  ----------------------------------------
  Sum of atomic charges =    -1.000000

 -----------------------------------------------------------------
                    Cartesian Multipole Moments
 -----------------------------------------------------------------
    Charge (ESU x 10^10)
                -4.8032
    Dipole Moment (Debye)
         X       2.5808      Y       1.3404      Z      -0.0000
       Tot       2.9081
    Quadrupole Moments (Debye-Ang)
        XX     -25.6155     XY       2.6295     YY     -13.6720
        XZ       0.0000     YZ      -0.0000     ZZ     -15.7437
    Octopole Moments (Debye-Ang^2)
       XXX       3.1307    XXY       4.0448    XYY       1.5628
       YYY       1.3900    XXZ       0.0000    XYZ       0.0000
       YYZ      -0.0000    XZZ      -1.2962    YZZ       0.1685
       ZZZ       0.0000
    Hexadecapole Moments (Debye-Ang^3)
      XXXX    -177.1245   XXXY       7.4416   XXYY     -27.7895
      XYYY       2.7789   YYYY     -18.0520   XXXZ       0.0000
      XXYZ      -0.0000   XYYZ       0.0000   YYYZ      -0.0000
      XXZZ     -31.7254   XYZZ       0.4629   YYZZ      -6.4102
      XZZZ       0.0000   YZZZ      -0.0000   ZZZZ     -19.1945
 -----------------------------------------------------------------
 Total job time:  44.69s(wall), 147.87s(cpu) 
 Fri Dec 29 18:05:34 2023

        *************************************************************
        *                                                           *
        *  Thank you very much for using Q-Chem.  Have a nice day.  *
        *                                                           *
        *************************************************************


