
Running Job 1 of 1 014_Cl-Water_0.80_almo.in
qchem 014_Cl-Water_0.80_almo.in_165063.0 /scratch/qchem165063/ 6
/home/kchung25/qchem/5.4.0/exe/qcprog.exe_s 014_Cl-Water_0.80_almo.in_165063.0 /scratch/qchem165063/
                  Welcome to Q-Chem
     A Quantum Leap Into The Future Of Chemistry


 Q-Chem 5.4, Q-Chem, Inc., Pleasanton, CA (2021)

 E. Epifanovsky,  A. T. B. Gilbert,  Xintian Feng,  Joonho Lee,  Yuezhi Mao,  
 N. Mardirossian,  P. Pokhilko,  A. White,  M. Wormit,  M. P. Coons,  
 A. L. Dempwolff,  Zhengting Gan,  D. Hait,  P. R. Horn,  L. D. Jacobson,  
 I. Kaliman,  J. Kussmann,  A. W. Lange,  Ka Un Lao,  D. S. Levine,  Jie Liu,  
 S. C. McKenzie,  A. F. Morrison,  K. Nanda,  F. Plasser,  D. R. Rehn,  
 M. L. Vidal,  Zhi-Qiang You,  Ying Zhu,  B. Alam,  B. Albrecht,  
 A. Aldossary,  E. Alguire,  J. H. Andersen,  D. Barton,  K. Begam,  A. Behn,  
 Y. A. Bernard,  E. J. Berquist,  H. Burton,  A. Carreras,  K. Carter-Fenk,  
 Romit Chakraborty,  A. D. Chien,  K. D. Closser,  V. Cofer-Shabica,  
 S. Dasgupta,  Jia Deng,  M. de Wergifosse,  M. Diedenhofen,  Hainam Do,  
 S. Ehlert,  Po-Tung Fang,  S. Fatehi,  Qingguo Feng,  T. Friedhoff,  
 J. Gayvert,  Qinghui Ge,  G. Gidofalvi,  M. Goldey,  J. Gomes,  
 C. Gonzalez-Espinoza,  S. Gulania,  A. Gunina,  M. W. D. Hanson-Heine,  
 P. H. P. Harbach,  A. W. Hauser,  M. F. Herbst,  M. Hernandez Vera,  
 M. Hodecker,  Z. C. Holden,  S. Houck,  Xunkun Huang,  Kerwin Hui,  
 B. C. Huynh,  M. Ivanov,  Hyunjun Ji,  Hanjie Jiang,  B. Kaduk,  S. Kaehler,  
 K. Khistyaev,  Jaehoon Kim,  P. Klunzinger,  Z. Koczor-Benda,  
 Joong Hoon Koh,  D. Kosenkov,  L. Koulias,  T. Kowalczyk,  C. M. Krauter,  
 K. Kue,  A. Kunitsa,  T. Kus,  A. Landau,  K. V. Lawler,  D. Lefrancois,  
 S. Lehtola,  Rain Li,  Yi-Pei Li,  Jiashu Liang,  M. Liebenthal,  
 Hung-Hsuan Lin,  You-Sheng Lin,  Fenglai Liu,  Kuan-Yu Liu,  
 M. Loipersberger,  A. Luenser,  A. Manjanath,  P. Manohar,  E. Mansoor,  
 S. F. Manzer,  Shan-Ping Mao,  A. V. Marenich,  T. Markovich,  S. Mason,  
 S. A. Maurer,  P. F. McLaughlin,  M. F. S. J. Menger,  J.-M. Mewes,  
 S. A. Mewes,  P. Morgante,  J. W. Mullinax,  K. J. Oosterbaan,  G. Paran,  
 Alexander C. Paul,  Suranjan K. Paul,  F. Pavosevic,  Zheng Pei,  S. Prager,  
 E. I. Proynov,  E. Ramos,  B. Rana,  A. E. Rask,  A. Rettig,  R. M. Richard,  
 F. Rob,  E. Rossomme,  T. Scheele,  M. Scheurer,  M. Schneider,  
 N. Sergueev,  S. M. Sharada,  W. Skomorowski,  D. W. Small,  C. J. Stein,  
 Yu-Chuan Su,  E. J. Sundstrom,  Zhen Tao,  J. Thirman,  T. Tsuchimochi,  
 N. M. Tubman,  S. P. Veccham,  O. Vydrov,  J. Wenzel,  J. Witte,  A. Yamada,  
 Kun Yao,  S. Yeganeh,  S. R. Yost,  A. Zech,  Igor Ying Zhang,  Xing Zhang,  
 Yu Zhang,  D. Zuev,  A. Aspuru-Guzik,  A. T. Bell,  N. A. Besley,  
 K. B. Bravaya,  B. R. Brooks,  D. Casanova,  Jeng-Da Chai,  S. Coriani,  
 C. J. Cramer,  A. E. DePrince, III,  R. A. DiStasio Jr.,  A. Dreuw,  
 B. D. Dunietz,  T. R. Furlani,  W. A. Goddard III,  S. Grimme,  
 S. Hammes-Schiffer,  T. Head-Gordon,  W. J. Hehre,  Chao-Ping Hsu,  
 T.-C. Jagau,  Yousung Jung,  A. Klamt,  Jing Kong,  D. S. Lambrecht,  
 WanZhen Liang,  N. J. Mayhall,  C. W. McCurdy,  J. B. Neaton,  T. Neudecker,  
 C. Ochsenfeld,  J. A. Parkhill,  R. Peverati,  V. A. Rassolov,  Yihan Shao,  
 L. V. Slipchenko,  R. P. Steele,  J. E. Subotnik,  A. J. W. Thom,  
 A. Tkatchenko,  D. G. Truhlar,  T. Van Voorhis,  T. A. Wesolowski,  
 K. B. Whaley,  H. L. Woodcock III,  P. M. Zimmerman,  S. Faraji,  
 P. M. W. Gill,  M. Head-Gordon,  J. M. Herbert,  A. I. Krylov

 Additional authors since Version 5.4.0: 
 Chandrima Chakravarty,  L. Cunha,  R. Kang,  Yongbin Kim,  S. Kotaru,  
 Shaozhi Li,  Xiangyuan Li,  F. Matz,  A. Molle,  V. Parravicini,  
 Haisheng Ren,  Hengyuan Shen,  Yingli Su,  Hung-Yi Tsai,  C. Utku,  
 Fang Wang,  Jeff Yang,  F. Zeller

 Contributors to earlier versions of Q-Chem not listed above: 
 R. D. Adamson,  B. Austin,  R. Baer,  J. Baker,  G. J. O. Beran,  
 K. Brandhorst,  S. T. Brown,  E. F. C. Byrd,  Arup K. Chakraborty,  
 G. K. L. Chan,  Chun-Min Chang,  Yunqing Chen,  C.-L. Cheng,  
 Siu Hung Chien,  D. M. Chipman,  D. L. Crittenden,  H. Dachsel,  
 R. J. Doerksen,  A. D. Dutoi,  R. G. Edgar,  J. Fosso-Tande,  
 L. Fusti-Molnar,  D. Ghosh,  A. Ghysels,  A. Golubeva-Zadorozhnaya,  
 J. Gonthier,  M. S. Gordon,  S. R. Gwaltney,  G. Hawkins,  J. E. Herr,  
 A. Heyden,  S. Hirata,  E. G. Hohenstein,  G. Kedziora,  F. J. Keil,  
 C. Kelley,  Jihan Kim,  R. A. King,  R. Z. Khaliullin,  P. P. Korambath,  
 W. Kurlancheek,  A. Laurent,  A. M. Lee,  M. S. Lee,  S. V. Levchenko,  
 Ching Yeh Lin,  D. Liotard,  E. Livshits,  R. C. Lochan,  I. Lotan,  
 L. A. Martinez-Martinez,  P. E. Maslen,  N. Nair,  D. P. O'Neill,  
 D. Neuhauser,  E. Neuscamman,  C. M. Oana,  R. Olivares-Amaya,  R. Olson,  
 T. M. Perrine,  B. Peters,  P. A. Pieniazek,  A. Prociuk,  Y. M. Rhee,  
 J. Ritchie,  M. A. Rohrdanz,  E. Rosta,  N. J. Russ,  H. F. Schaefer III,  
 M. W. Schmidt,  N. E. Schultz,  S. Sharma,  N. Shenvi,  C. D. Sherrill,  
 A. C. Simmonett,  A. Sodt,  T. Stein,  D. Stuck,  K. S. Thanthiriwatte,  
 V. Vanovschi,  L. Vogt,  Tao Wang,  A. Warshel,  M. A. Watson,  
 C. F. Williams,  Q. Wu,  X. Xu,  Jun Yang,  W. Zhang,  Yan Zhao

   Please cite Q-Chem as follows:
  "Software for the frontiers of quantum chemistry:
   An overview of developments in the Q-Chem 5 package"
   J. Chem. Phys. 155, 084801 (2021)
   https://doi.org/10.1063/5.0055522 (open access)

 Q-Chem 5.4.2 for Intel X86 EM64T Linux

 Parts of Q-Chem use Armadillo 9.900.5 (Nocturnal Misbehaviour).
 http://arma.sourceforge.net/

 Q-Chem begins on Fri Dec 29 18:09:50 2023  

 Host: 
0

     Scratch files written to /scratch/qchem165063//
 Dec1321 |scratch|qcdevops|jenkins|workspace|build_RNUM 5684   
 Processing $rem in /home/kchung25/qchem/5.4.0/config/preferences:
 Processing $rem in /home/kchung25/.qchemrc:

 Q-Chem warning in module libgen/rem_setup.C, line 3079:

 Neither GIA nor STOLL is specified by user. Use STOLL as the default


 Checking the input file for inconsistencies... 	...done.

--------------------------------------------------------------
User input:
--------------------------------------------------------------
$molecule
-1 1
--
0 1
O      0.000000     0.000000     0.000000
H     -0.073994     0.955205     0.000000
H      0.981943    -0.112425     0.000000
--
-1 1
Cl     2.456282     0.000000     0.000000
$end

$rem
JOBTYPE          eda
EDA2             1
METHOD           wB97M-V
BASIS            def2-TZVPPD
SYMMETRY         false
MEM_TOTAL        50000
MEM_STATIC       10000
THRESH           14
SCF_CONVERGENCE  8
XC_GRID          000099000590
NL_GRID          1
EDA_CLS_DISP     true
FD_MAT_VEC_PROD  FALSE
$end
--------------------------------------------------------------
 ----------------------------------------------------------------
             Standard Nuclear Orientation (Angstroms)
    I     Atom           X                Y                Z
 ----------------------------------------------------------------
    1      O       1.5773882190    -0.0988729612    -0.0000000000
    2      H       1.6922309399     0.8522857288     0.0000000000
    3      H       0.5915307288    -0.1691327997    -0.0000000000
    4      Cl     -0.8766392600     0.0063429859    -0.0000000000
 ----------------------------------------------------------------
 Molecular Point Group                 Cs    NOp =  2
 Largest Abelian Subgroup              Cs    NOp =  2
 Nuclear Repulsion Energy =          47.76429374 hartrees
 There are       14 alpha and       14 beta electrons
 Requested basis set is def2-TZVPPD
 There are 45 shells and 125 basis functions

 Q-Chem warning in module libmdc/get_mega.C, line 171:

 Allowed MEM_STATIC has been capped at MEM_STATIC=8191.
 Reduce the value of MEM_STATIC to silence this warning.


 Total QAlloc Memory Limit  50000 MB
 Mega-Array Size      8007 MB
 MEM_STATIC part      8191 MB

                       Distance Matrix (Angstroms)
             O (  1)   H (  2)   H (  3)
   H (  2)  0.958067
   H (  3)  0.988358  1.501611
   Cl(  4)  2.456282  2.704573  1.478619
 
 A cutoff of  1.0D-14 yielded   1020 shell pairs
 There are      8000 function pairs (     10081 Cartesian)
 Smallest overlap matrix eigenvalue = 3.28E-04

 Scale SEOQF with 1.000000e-01/1.000000e-01/1.000000e-01

 Standard Electronic Orientation quadrupole field applied
 Nucleus-field energy     =     0.0000000014 hartrees

 -----------------------------------------------------------------------
  General SCF calculation program by
  Eric Jon Sundstrom, Paul Horn, Yuezhi Mao, Dmitri Zuev, Alec White,
  David Stuck, Shaama M.S., Shane Yost, Joonho Lee, David Small,
  Daniel Levine, Susi Lehtola, Hugh Burton, Evgeny Epifanovsky,
  Bang C. Huynh
 -----------------------------------------------------------------------
================================================================
                 ALMO-EDA with the EDA2 driver                  
================================================================
 The second-generation ALMO-EDA (for DFT):                      
 P. R. Horn, Y. Mao and M. Head-Gordon, PCCP, 18, 23067 (2016)  
 Y. Mao et al. Annu. Rev. Phys. Chem. 72, 641 (2021)            
 Decomposition of the frozen energy:                            
 P. R. Horn, Y. Mao and M. Head-Gordon, JCP, 144, 114107 (2016) 
 FERF model for polarization:                                   
 P. R. Horn and M. Head-Gordon, JCP, 143, 114111 (2015)         
================================================================
 Using eda2 option set 1
 Option set summary: Frozen orbital wavefunction, initial wavefunction decomposition, and nDQ polarization.
--------------------------------
Printing EDA Options
--------------------------------
eda_child_super_basis      0
fragmo_guess_mode          0
child_mp                   1
child_mp_orders            232
cls_elec                   1
cls_disp                   1
scfmi_mode                 1
scfmi_occs                 0
scfmi_virts                0
frz_relax                  0
frz_relax_method           0
dc_pen_start               0
dc_pen_conv                0
dc_pen_increment           0
dc_pen_steps               0
dc_pen_thresh_factor       0
dc_pen_pre_newton_thresh   0
frz_ortho_decomp           1
frz_ortho_decomp_conv      6
plot_mo_ortho_frz          0
frgm_method                2
scfmi_freeze_ss            0
separate_rehyb             0
plot_diff_den              0
eda_nocv                   0
eda_vct_relax              1
disp_free_x                0
disp_free_c                0
eda_bsse                   0
eda_pct_a                  0
eda_covp                   0
--------------------------------
Attempting to make child job directory: /scratch/qchem165063//Frg1/
Attempting to make child job directory: /scratch/qchem165063//Frg2/
Creating input file /scratch/qchem165063/Frg1.input
using default PutDataFrgm: nothing
calling putenv with: QCSCRATCH=/scratch/qchem165063/ 
Spawning Job For Fragment 0
Done Job For Fragment 0
calling putenv with: QCSCRATCH=/scratch 
calling putenv with: QCTHREADS=6 
Creating input file /scratch/qchem165063/Frg2.input
using default PutDataFrgm: nothing
calling putenv with: QCSCRATCH=/scratch/qchem165063/ 
Spawning Job For Fragment 1
Done Job For Fragment 1
calling putenv with: QCSCRATCH=/scratch 
calling putenv with: QCTHREADS=6 
Doing General SCFMI
 Exchange:     0.1500 Hartree-Fock + 1.0000 wB97M-V + LR-HF
 Correlation:  1.0000 wB97M-V
 Using Euler-Maclaurin-Lebedev (99,590) quadrature formula
 Nonlocal Correlation:  VV10 with C = 0.0100 and b = 6.00 and scale = 1.00000
 Grid used for NLC:  SG-1 standard quadrature
performing fock build before subrot guess so that all methods have access
Printing subrot_rss_gen Method Specification:
Occupied Subspace Method is 0
Virtual Subspace Method is 0
Energy of the unrelaxed supersystem initial determinant -536.613604341461
write pseudocanon occs and virts to disk
write pseudocanon orbital energies to disk
Tolerance of ortho_decomp_scf: 1.00e-06
GDM subspace size: 20
Beginning the Orthogonal Decomposition of the Initial Supersystem Wavefunction
    1    -536.3836635723      8.38e-01     ortho_decomp Preconditoned Steepest Descent
    2    -536.4714433803      1.33e-02     ortho_decomp BFGS Step
    3    -536.4716124363      1.27e-03     ortho_decomp BFGS Step
    4    -536.4716132477      6.13e-05     ortho_decomp BFGS Step
    5    -536.4716132486      1.70e-06     ortho_decomp BFGS Step
    6    -536.4716132486      2.14e-07     ortho_decomp 00000 Convergence criterion met
 Hartree-Fock
 Hartree-Fock
 Hartree-Fock
 Exchange:     0.1500 Hartree-Fock + 1.0000 wB97M-V + LR-HF
 Correlation:  1.0000 wB97M-V
 Using Euler-Maclaurin-Lebedev (99,590) quadrature formula
 Nonlocal Correlation:  VV10 with C = 0.0100 and b = 6.00 and scale = 1.00000
 Grid used for NLC:  SG-1 standard quadrature
 Long-range K will be added via erf
 Coulomb attenuation parameter = 0.3 bohr**(-1)
 Nonlocal correlation = 1.158868303853e-01
Doing General SCFMI
 Exchange:     0.1500 Hartree-Fock + 1.0000 wB97M-V + LR-HF
 Correlation:  1.0000 wB97M-V
 Using Euler-Maclaurin-Lebedev (99,590) quadrature formula
 Nonlocal Correlation:  VV10 with C = 0.0100 and b = 6.00 and scale = 1.00000
 Grid used for NLC:  SG-1 standard quadrature
performing fock build at end of subrot_r(subrot) constructor so that all methods have access
<S^2> of initial wavefunction before polarization iterations 0.0000000000
Beginning iterations for the determination of the polarized wavefunction
Energy prior to optimization (guess energy) = -536.613604341461
Begin Timing: Total SCF Calculation
begin iterations for algorithm: DIIS         
the SCF tolerance is set to 1.00e-08
    1    -536.6136043415      2.52e-03     00000 
    2    -536.6342928726      1.43e-03     00000 
    3    -536.6377777812      5.02e-04     00000 
    4    -536.6387289379      1.98e-04     00000 
    5    -536.6389669154      9.58e-05     00000 
    6    -536.6390647940      2.80e-05     00000 
    7    -536.6390735821      9.78e-06     00000 
    8    -536.6390743443      4.08e-06     00000 
    9    -536.6390744469      1.55e-06     00000 
   10    -536.6390744679      7.06e-07     00000 
   11    -536.6390744726      2.25e-07     00000 
   12    -536.6390744729      9.64e-08     00000 
   13    -536.6390744729      4.95e-08     00000 
   14    -536.6390744729      2.48e-08     00000 
   15    -536.6390744729      9.88e-09     00000 Convergence criterion met
write pseudocanon occs and virts to disk
write pseudocanon orbital energies to disk
Timing for Total SCF: 12.00s (wall), 67.28s (cpu)
<S^2> of polarized wavefunction after polarization iterations 0.0000000000
relaxing scfmi constraint to allow all rotations in the entire AO span
Doing General SCFMI
 Exchange:     0.1500 Hartree-Fock + 1.0000 wB97M-V + LR-HF
 Correlation:  1.0000 wB97M-V
 Using Euler-Maclaurin-Lebedev (99,590) quadrature formula
 Nonlocal Correlation:  VV10 with C = 0.0100 and b = 6.00 and scale = 1.00000
 Grid used for NLC:  SG-1 standard quadrature
performing fock build at end of subrot_r(subrot) constructor so that all methods have access
<S^2> of polarized wavefunction before ct-allowed iterations 0.0000000000
Beginning iterations for the determination of the CT-Allowed wavefunction
Energy prior to optimization (guess energy) = -536.639074472899
Begin Timing: Total SCF Calculation
begin iterations for algorithm: DIIS         
the SCF tolerance is set to 1.00e-08
    1    -536.6390744729      2.17e-03     00000 
    2    -536.6777355618      3.42e-04     00000 
    3    -536.6791206214      1.91e-04     00000 
    4    -536.6793121445      6.05e-05     00000 
    5    -536.6793419350      2.39e-05     00000 
    6    -536.6793461021      3.72e-06     00000 
    7    -536.6793464848      8.67e-07     00000 
    8    -536.6793465024      3.02e-07     00000 
    9    -536.6793465036      7.76e-08     00000 
   10    -536.6793465038      1.64e-08     00000 
   11    -536.6793465038      4.45e-09     00000 Convergence criterion met
write pseudocanon occs and virts to disk
write pseudocanon orbital energies to disk
Timing for Total SCF: 9.00s (wall), 48.47s (cpu)
<S^2> of ct_allowed wavefunction after ct-allowed iterations 0.0000000000

================================
        Results of EDA2         
================================
Basic EDA Quantities
--------------------
Fragment Energies (Ha):
1  -76.4353325583
2 -460.2597934915
--------------------
  E_prp (kJ/mol) = -0.0000
  E_frz (kJ/mol) = 214.0378
  E_pol (kJ/mol) = -66.8726
  E_vct (kJ/mol) = -105.7355
  E_int (kJ/mol) = 41.4297
--------------------


Decomposition of frozen interaction energy
--------------------
  --------------------
  Orthogonal Frozen Decomposition:
  --------------------
     E_elec   (ELEC)   (kJ/mol) = -258.5577
     E_pauli  (PAULI)  (kJ/mol) = 499.9443
     E_disp   (DISP)   (kJ/mol) = -27.3488
  --------------------
  Classical Frozen Decomposition:
  --------------------
     E_cls_elec  (CLS ELEC)  (kJ/mol) = -208.7095
     E_mod_pauli (MOD PAULI) (kJ/mol) = 457.8041 (FRZ - CLS ELEC - CLS DISP)
     E_cls_disp  (CLS DISP)  (kJ/mol) = -35.0569
  --------------------
--------------------

Simplified EDA Summary (kJ/mol)
--------------------
 PREPARATION      -0.0000
 FROZEN           214.0378 (ELEC + PAULI + DISP)
[ELEC + PAULI = 249.0947, DISP = -35.0569]
 POLARIZATION    -66.8726
 CHARGE TRANSFER -105.7355
 TOTAL           41.4297     (PRP + FRZ + POL + CT)
--------------------
 
 --------------------------------------------------------------
             Orbital Energies (a.u.) and Symmetries
 --------------------------------------------------------------
 
 Alpha MOs, Restricted
 -- Occupied --                  
-101.58  -19.09   -9.35   -7.05   -7.05   -7.05   -0.91   -0.66
  1 A'    2 A'    3 A'    4 A'    5 A'    1 A"    6 A'    7 A'                 
 -0.407  -0.299  -0.206  -0.163  -0.154  -0.139
  8 A'    9 A'    2 A"   10 A'    3 A"   11 A'                                 
 -- Virtual --                   
  0.182   0.207   0.215   0.219   0.251   0.254   0.263   0.347
 12 A'   13 A'    4 A"   14 A'   15 A'   16 A'    5 A"   17 A'                 
  0.391   0.391   0.421   0.462   0.471   0.474   0.482   0.485
  6 A"   18 A'   19 A'   20 A'    7 A"    8 A"   21 A'   22 A'                 
  0.519   0.533   0.535   0.613   0.653   0.668   0.713   0.713
 23 A'    9 A"   24 A'   25 A'   26 A'   27 A'   10 A"   28 A'                 
  0.762   0.768   0.852   0.853   0.871   0.900   0.912   0.926
 29 A'   11 A"   12 A"   30 A'   31 A'   13 A"   32 A'   33 A'                 
  0.927   0.976   0.993   1.096   1.097   1.125   1.187   1.272
 14 A"   34 A'   35 A'   15 A"   36 A'   37 A'   38 A'   16 A"                 
  1.345   1.362   1.430   1.525   1.589   1.613   2.074   2.152
 39 A'   40 A'   17 A"   41 A'   42 A'   43 A'   44 A'   18 A"                 
  2.193   2.232   2.241   2.242   2.279   2.285   2.360   2.421
 19 A"   45 A'   20 A"   46 A'   21 A"   47 A'   48 A'   22 A"                 
  2.430   2.441   2.443   2.466   2.564   2.698   2.732   2.736
 49 A'   50 A'   23 A"   51 A'   52 A'   24 A"   53 A'   54 A'                 
  2.789   2.816   2.855   3.012   3.243   3.434   3.492   3.550
 25 A"   55 A'   56 A'   57 A'   26 A"   27 A"   58 A'   59 A'                 
  3.665   3.691   3.743   3.812   4.128   4.131   4.176   4.267
 60 A'   61 A'   28 A"   62 A'   29 A"   63 A'   30 A"   64 A'                 
  4.313   4.341   4.509   4.560   4.716   5.032   5.143   5.267
 65 A'   31 A"   66 A'   32 A"   67 A'   68 A'   69 A'   70 A'                 
  5.547   5.937   6.598   6.777   6.847   6.862   6.929   7.069
 71 A'   33 A"   72 A'   34 A"   73 A'   35 A"   36 A"   74 A'                 
  7.119   7.338   7.817   7.900   8.002   8.528   8.530   8.592
 37 A"   75 A'   76 A'   77 A'   78 A'   38 A"   79 A'   39 A"                 
  8.602   8.895  11.275  11.321  11.714  26.330  44.795
 80 A'   81 A'   40 A"   82 A'   83 A'   84 A'   85 A'                         
 
 Beta MOs, Restricted
 -- Occupied --                  
-101.58  -19.09   -9.35   -7.05   -7.05   -7.05   -0.91   -0.66
  1 A'    2 A'    3 A'    4 A'    5 A'    1 A"    6 A'    7 A'                 
 -0.407  -0.299  -0.206  -0.163  -0.154  -0.139
  8 A'    9 A'    2 A"   10 A'    3 A"   11 A'                                 
 -- Virtual --                   
  0.182   0.207   0.215   0.219   0.251   0.254   0.263   0.347
 12 A'   13 A'    4 A"   14 A'   15 A'   16 A'    5 A"   17 A'                 
  0.391   0.391   0.421   0.462   0.471   0.474   0.482   0.485
  6 A"   18 A'   19 A'   20 A'    7 A"    8 A"   21 A'   22 A'                 
  0.519   0.533   0.535   0.613   0.653   0.668   0.713   0.713
 23 A'    9 A"   24 A'   25 A'   26 A'   27 A'   10 A"   28 A'                 
  0.762   0.768   0.852   0.853   0.871   0.900   0.912   0.926
 29 A'   11 A"   12 A"   30 A'   31 A'   13 A"   32 A'   33 A'                 
  0.927   0.976   0.993   1.096   1.097   1.125   1.187   1.272
 14 A"   34 A'   35 A'   15 A"   36 A'   37 A'   38 A'   16 A"                 
  1.345   1.362   1.430   1.525   1.589   1.613   2.074   2.152
 39 A'   40 A'   17 A"   41 A'   42 A'   43 A'   44 A'   18 A"                 
  2.193   2.232   2.241   2.242   2.279   2.285   2.360   2.421
 19 A"   45 A'   20 A"   46 A'   21 A"   47 A'   48 A'   22 A"                 
  2.430   2.441   2.443   2.466   2.564   2.698   2.732   2.736
 49 A'   50 A'   23 A"   51 A'   52 A'   24 A"   53 A'   54 A'                 
  2.789   2.816   2.855   3.012   3.243   3.434   3.492   3.550
 25 A"   55 A'   56 A'   57 A'   26 A"   27 A"   58 A'   59 A'                 
  3.665   3.691   3.743   3.812   4.128   4.131   4.176   4.267
 60 A'   61 A'   28 A"   62 A'   29 A"   63 A'   30 A"   64 A'                 
  4.313   4.341   4.509   4.560   4.716   5.032   5.143   5.267
 65 A'   31 A"   66 A'   32 A"   67 A'   68 A'   69 A'   70 A'                 
  5.547   5.937   6.598   6.777   6.847   6.862   6.929   7.069
 71 A'   33 A"   72 A'   34 A"   73 A'   35 A"   36 A"   74 A'                 
  7.119   7.338   7.817   7.900   8.002   8.528   8.530   8.592
 37 A"   75 A'   76 A'   77 A'   78 A'   38 A"   79 A'   39 A"                 
  8.602   8.895  11.275  11.321  11.714  26.330  44.795
 80 A'   81 A'   40 A"   82 A'   83 A'   84 A'   85 A'                         
 --------------------------------------------------------------
 
          Ground-State Mulliken Net Atomic Charges

     Atom                 Charge (a.u.)
  ----------------------------------------
      1 O                    -0.514612
      2 H                     0.105146
      3 H                     0.172424
      4 Cl                   -0.762958
  ----------------------------------------
  Sum of atomic charges =    -1.000000

 -----------------------------------------------------------------
                    Cartesian Multipole Moments
 -----------------------------------------------------------------
    Charge (ESU x 10^10)
                -4.8032
    Dipole Moment (Debye)
         X       0.5981      Y       1.2380      Z       0.0000
       Tot       1.3749
    Quadrupole Moments (Debye-Ang)
        XX     -33.9977     XY       2.8667     YY     -22.6199
        XZ      -0.0000     YZ      -0.0000     ZZ     -24.8042
    Octopole Moments (Debye-Ang^2)
       XXX      -1.7978    XXY       5.5268    XYY       4.9583
       YYY       1.1409    XXZ       0.0000    XYZ      -0.0000
       YYZ       0.0000    XZZ       1.4228    YZZ       0.0528
       ZZZ       0.0000
    Hexadecapole Moments (Debye-Ang^3)
      XXXX    -253.7043   XXXY      11.0760   XXYY     -41.2231
      XYYY       3.2849   YYYY     -36.9239   XXXZ      -0.0000
      XXYZ       0.0000   XYYZ      -0.0000   YYYZ      -0.0000
      XXZZ     -47.2514   XYZZ       0.5222   YYZZ     -12.7027
      XZZZ      -0.0000   YZZZ      -0.0000   ZZZZ     -37.9419
 -----------------------------------------------------------------
 Total job time:  55.20s(wall), 205.63s(cpu) 
 Fri Dec 29 18:10:46 2023

        *************************************************************
        *                                                           *
        *  Thank you very much for using Q-Chem.  Have a nice day.  *
        *                                                           *
        *************************************************************


