
Running Job 1 of 1 019_F-2Water_1.00_almo.in
qchem 019_F-2Water_1.00_almo.in_225072.0 /scratch/qchem225072/ 6
/home/kchung25/qchem/5.4.0/exe/qcprog.exe_s 019_F-2Water_1.00_almo.in_225072.0 /scratch/qchem225072/
                  Welcome to Q-Chem
     A Quantum Leap Into The Future Of Chemistry


 Q-Chem 5.4, Q-Chem, Inc., Pleasanton, CA (2021)

 E. Epifanovsky,  A. T. B. Gilbert,  Xintian Feng,  Joonho Lee,  Yuezhi Mao,  
 N. Mardirossian,  P. Pokhilko,  A. White,  M. Wormit,  M. P. Coons,  
 A. L. Dempwolff,  Zhengting Gan,  D. Hait,  P. R. Horn,  L. D. Jacobson,  
 I. Kaliman,  J. Kussmann,  A. W. Lange,  Ka Un Lao,  D. S. Levine,  Jie Liu,  
 S. C. McKenzie,  A. F. Morrison,  K. Nanda,  F. Plasser,  D. R. Rehn,  
 M. L. Vidal,  Zhi-Qiang You,  Ying Zhu,  B. Alam,  B. Albrecht,  
 A. Aldossary,  E. Alguire,  J. H. Andersen,  D. Barton,  K. Begam,  A. Behn,  
 Y. A. Bernard,  E. J. Berquist,  H. Burton,  A. Carreras,  K. Carter-Fenk,  
 Romit Chakraborty,  A. D. Chien,  K. D. Closser,  V. Cofer-Shabica,  
 S. Dasgupta,  Jia Deng,  M. de Wergifosse,  M. Diedenhofen,  Hainam Do,  
 S. Ehlert,  Po-Tung Fang,  S. Fatehi,  Qingguo Feng,  T. Friedhoff,  
 J. Gayvert,  Qinghui Ge,  G. Gidofalvi,  M. Goldey,  J. Gomes,  
 C. Gonzalez-Espinoza,  S. Gulania,  A. Gunina,  M. W. D. Hanson-Heine,  
 P. H. P. Harbach,  A. W. Hauser,  M. F. Herbst,  M. Hernandez Vera,  
 M. Hodecker,  Z. C. Holden,  S. Houck,  Xunkun Huang,  Kerwin Hui,  
 B. C. Huynh,  M. Ivanov,  Hyunjun Ji,  Hanjie Jiang,  B. Kaduk,  S. Kaehler,  
 K. Khistyaev,  Jaehoon Kim,  P. Klunzinger,  Z. Koczor-Benda,  
 Joong Hoon Koh,  D. Kosenkov,  L. Koulias,  T. Kowalczyk,  C. M. Krauter,  
 K. Kue,  A. Kunitsa,  T. Kus,  A. Landau,  K. V. Lawler,  D. Lefrancois,  
 S. Lehtola,  Rain Li,  Yi-Pei Li,  Jiashu Liang,  M. Liebenthal,  
 Hung-Hsuan Lin,  You-Sheng Lin,  Fenglai Liu,  Kuan-Yu Liu,  
 M. Loipersberger,  A. Luenser,  A. Manjanath,  P. Manohar,  E. Mansoor,  
 S. F. Manzer,  Shan-Ping Mao,  A. V. Marenich,  T. Markovich,  S. Mason,  
 S. A. Maurer,  P. F. McLaughlin,  M. F. S. J. Menger,  J.-M. Mewes,  
 S. A. Mewes,  P. Morgante,  J. W. Mullinax,  K. J. Oosterbaan,  G. Paran,  
 Alexander C. Paul,  Suranjan K. Paul,  F. Pavosevic,  Zheng Pei,  S. Prager,  
 E. I. Proynov,  E. Ramos,  B. Rana,  A. E. Rask,  A. Rettig,  R. M. Richard,  
 F. Rob,  E. Rossomme,  T. Scheele,  M. Scheurer,  M. Schneider,  
 N. Sergueev,  S. M. Sharada,  W. Skomorowski,  D. W. Small,  C. J. Stein,  
 Yu-Chuan Su,  E. J. Sundstrom,  Zhen Tao,  J. Thirman,  T. Tsuchimochi,  
 N. M. Tubman,  S. P. Veccham,  O. Vydrov,  J. Wenzel,  J. Witte,  A. Yamada,  
 Kun Yao,  S. Yeganeh,  S. R. Yost,  A. Zech,  Igor Ying Zhang,  Xing Zhang,  
 Yu Zhang,  D. Zuev,  A. Aspuru-Guzik,  A. T. Bell,  N. A. Besley,  
 K. B. Bravaya,  B. R. Brooks,  D. Casanova,  Jeng-Da Chai,  S. Coriani,  
 C. J. Cramer,  A. E. DePrince, III,  R. A. DiStasio Jr.,  A. Dreuw,  
 B. D. Dunietz,  T. R. Furlani,  W. A. Goddard III,  S. Grimme,  
 S. Hammes-Schiffer,  T. Head-Gordon,  W. J. Hehre,  Chao-Ping Hsu,  
 T.-C. Jagau,  Yousung Jung,  A. Klamt,  Jing Kong,  D. S. Lambrecht,  
 WanZhen Liang,  N. J. Mayhall,  C. W. McCurdy,  J. B. Neaton,  T. Neudecker,  
 C. Ochsenfeld,  J. A. Parkhill,  R. Peverati,  V. A. Rassolov,  Yihan Shao,  
 L. V. Slipchenko,  R. P. Steele,  J. E. Subotnik,  A. J. W. Thom,  
 A. Tkatchenko,  D. G. Truhlar,  T. Van Voorhis,  T. A. Wesolowski,  
 K. B. Whaley,  H. L. Woodcock III,  P. M. Zimmerman,  S. Faraji,  
 P. M. W. Gill,  M. Head-Gordon,  J. M. Herbert,  A. I. Krylov

 Additional authors since Version 5.4.0: 
 Chandrima Chakravarty,  L. Cunha,  R. Kang,  Yongbin Kim,  S. Kotaru,  
 Shaozhi Li,  Xiangyuan Li,  F. Matz,  A. Molle,  V. Parravicini,  
 Haisheng Ren,  Hengyuan Shen,  Yingli Su,  Hung-Yi Tsai,  C. Utku,  
 Fang Wang,  Jeff Yang,  F. Zeller

 Contributors to earlier versions of Q-Chem not listed above: 
 R. D. Adamson,  B. Austin,  R. Baer,  J. Baker,  G. J. O. Beran,  
 K. Brandhorst,  S. T. Brown,  E. F. C. Byrd,  Arup K. Chakraborty,  
 G. K. L. Chan,  Chun-Min Chang,  Yunqing Chen,  C.-L. Cheng,  
 Siu Hung Chien,  D. M. Chipman,  D. L. Crittenden,  H. Dachsel,  
 R. J. Doerksen,  A. D. Dutoi,  R. G. Edgar,  J. Fosso-Tande,  
 L. Fusti-Molnar,  D. Ghosh,  A. Ghysels,  A. Golubeva-Zadorozhnaya,  
 J. Gonthier,  M. S. Gordon,  S. R. Gwaltney,  G. Hawkins,  J. E. Herr,  
 A. Heyden,  S. Hirata,  E. G. Hohenstein,  G. Kedziora,  F. J. Keil,  
 C. Kelley,  Jihan Kim,  R. A. King,  R. Z. Khaliullin,  P. P. Korambath,  
 W. Kurlancheek,  A. Laurent,  A. M. Lee,  M. S. Lee,  S. V. Levchenko,  
 Ching Yeh Lin,  D. Liotard,  E. Livshits,  R. C. Lochan,  I. Lotan,  
 L. A. Martinez-Martinez,  P. E. Maslen,  N. Nair,  D. P. O'Neill,  
 D. Neuhauser,  E. Neuscamman,  C. M. Oana,  R. Olivares-Amaya,  R. Olson,  
 T. M. Perrine,  B. Peters,  P. A. Pieniazek,  A. Prociuk,  Y. M. Rhee,  
 J. Ritchie,  M. A. Rohrdanz,  E. Rosta,  N. J. Russ,  H. F. Schaefer III,  
 M. W. Schmidt,  N. E. Schultz,  S. Sharma,  N. Shenvi,  C. D. Sherrill,  
 A. C. Simmonett,  A. Sodt,  T. Stein,  D. Stuck,  K. S. Thanthiriwatte,  
 V. Vanovschi,  L. Vogt,  Tao Wang,  A. Warshel,  M. A. Watson,  
 C. F. Williams,  Q. Wu,  X. Xu,  Jun Yang,  W. Zhang,  Yan Zhao

   Please cite Q-Chem as follows:
  "Software for the frontiers of quantum chemistry:
   An overview of developments in the Q-Chem 5 package"
   J. Chem. Phys. 155, 084801 (2021)
   https://doi.org/10.1063/5.0055522 (open access)

 Q-Chem 5.4.2 for Intel X86 EM64T Linux

 Parts of Q-Chem use Armadillo 9.900.5 (Nocturnal Misbehaviour).
 http://arma.sourceforge.net/

 Q-Chem begins on Sat Dec 30 19:01:39 2023  

 Host: 
0

     Scratch files written to /scratch/qchem225072//
 Dec1321 |scratch|qcdevops|jenkins|workspace|build_RNUM 5684   
 Processing $rem in /home/kchung25/qchem/5.4.0/config/preferences:
 Processing $rem in /home/kchung25/.qchemrc:

 Q-Chem warning in module libgen/rem_setup.C, line 3079:

 Neither GIA nor STOLL is specified by user. Use STOLL as the default


 Checking the input file for inconsistencies... 	...done.

--------------------------------------------------------------
User input:
--------------------------------------------------------------
$molecule
-1 1
--
-1 1
F      1.741108     0.000000     0.000000
--
0 1
O      0.000000    -0.007351     1.810088
H     -0.603559     0.630161     1.426970
H      0.742517    -0.027506     1.118978
O      0.000000     0.007351    -1.810088
H     -0.603559    -0.630161    -1.426970
H      0.742517     0.027506    -1.118978
$end

$rem
JOBTYPE          eda
EDA2             1
METHOD           wB97M-V
BASIS            def2-TZVPPD
SYMMETRY         false
MEM_TOTAL        50000
MEM_STATIC       10000
THRESH           14
SCF_CONVERGENCE  8
XC_GRID          000099000590
NL_GRID          1
EDA_CLS_DISP     true
FD_MAT_VEC_PROD  FALSE
$end
--------------------------------------------------------------
 ----------------------------------------------------------------
             Standard Nuclear Orientation (Angstroms)
    I     Atom           X                Y                Z
 ----------------------------------------------------------------
    1      F       0.0000000000     0.0000000000     1.1911808276
    2      O      -1.8092763805    -0.0546953726    -0.5499271724
    3      H      -1.4429650156     0.5926198026    -1.1534861724
    4      H      -1.1178756510    -0.0567659533     0.1925898276
    5      O       1.8092763805     0.0546953726    -0.5499271724
    6      H       1.4429650156    -0.5926198026    -1.1534861724
    7      H       1.1178756510     0.0567659533     0.1925898276
 ----------------------------------------------------------------
 Molecular Point Group                 C2    NOp =  2
 Largest Abelian Subgroup              C2    NOp =  2
 Nuclear Repulsion Energy =          73.39831139 hartrees
 There are       15 alpha and       15 beta electrons
 Requested basis set is def2-TZVPPD
 There are 70 shells and 188 basis functions

 Q-Chem warning in module libmdc/get_mega.C, line 171:

 Allowed MEM_STATIC has been capped at MEM_STATIC=8191.
 Reduce the value of MEM_STATIC to silence this warning.


 Total QAlloc Memory Limit  50000 MB
 Mega-Array Size      8007 MB
 MEM_STATIC part      8191 MB

                       Distance Matrix (Angstroms)
             F (  1)   O (  2)   H (  3)   H (  4)   O (  5)   H (  6)
   O (  2)  2.511559
   H (  3)  2.816169  0.957854
   H (  4)  1.500017  1.014579  1.529479
   O (  5)  2.511559  3.620206  3.351227  3.021916
   H (  6)  2.816169  3.351227  3.119837  2.942272  0.957854
   H (  7)  1.500017  3.021916  2.942272  2.238632  1.014579  1.529479

 
 A cutoff of  1.0D-14 yielded   2413 shell pairs
 There are     17623 function pairs (     22022 Cartesian)
 Smallest overlap matrix eigenvalue = 2.94E-04

 Scale SEOQF with 1.000000e-01/1.000000e-01/1.000000e-01

 Standard Electronic Orientation quadrupole field applied

 -----------------------------------------------------------------------
  General SCF calculation program by
  Eric Jon Sundstrom, Paul Horn, Yuezhi Mao, Dmitri Zuev, Alec White,
  David Stuck, Shaama M.S., Shane Yost, Joonho Lee, David Small,
  Daniel Levine, Susi Lehtola, Hugh Burton, Evgeny Epifanovsky,
  Bang C. Huynh
 -----------------------------------------------------------------------
================================================================
                 ALMO-EDA with the EDA2 driver                  
================================================================
 The second-generation ALMO-EDA (for DFT):                      
 P. R. Horn, Y. Mao and M. Head-Gordon, PCCP, 18, 23067 (2016)  
 Y. Mao et al. Annu. Rev. Phys. Chem. 72, 641 (2021)            
 Decomposition of the frozen energy:                            
 P. R. Horn, Y. Mao and M. Head-Gordon, JCP, 144, 114107 (2016) 
 FERF model for polarization:                                   
 P. R. Horn and M. Head-Gordon, JCP, 143, 114111 (2015)         
================================================================
 Using eda2 option set 1
 Option set summary: Frozen orbital wavefunction, initial wavefunction decomposition, and nDQ polarization.
--------------------------------
Printing EDA Options
--------------------------------
eda_child_super_basis      0
fragmo_guess_mode          0
child_mp                   1
child_mp_orders            232
cls_elec                   1
cls_disp                   1
scfmi_mode                 1
scfmi_occs                 0
scfmi_virts                0
frz_relax                  0
frz_relax_method           0
dc_pen_start               0
dc_pen_conv                0
dc_pen_increment           0
dc_pen_steps               0
dc_pen_thresh_factor       0
dc_pen_pre_newton_thresh   0
frz_ortho_decomp           1
frz_ortho_decomp_conv      6
plot_mo_ortho_frz          0
frgm_method                2
scfmi_freeze_ss            0
separate_rehyb             0
plot_diff_den              0
eda_nocv                   0
eda_vct_relax              1
disp_free_x                0
disp_free_c                0
eda_bsse                   0
eda_pct_a                  0
eda_covp                   0
--------------------------------
Attempting to make child job directory: /scratch/qchem225072//Frg1/
Attempting to make child job directory: /scratch/qchem225072//Frg2/
Creating input file /scratch/qchem225072/Frg1.input
using default PutDataFrgm: nothing
calling putenv with: QCSCRATCH=/scratch/qchem225072/ 
Spawning Job For Fragment 0
Done Job For Fragment 0
calling putenv with: QCSCRATCH=/scratch 
calling putenv with: QCTHREADS=6 
Creating input file /scratch/qchem225072/Frg2.input
using default PutDataFrgm: nothing
calling putenv with: QCSCRATCH=/scratch/qchem225072/ 
Spawning Job For Fragment 1
Done Job For Fragment 1
calling putenv with: QCSCRATCH=/scratch 
calling putenv with: QCTHREADS=6 
Doing General SCFMI
 Exchange:     0.1500 Hartree-Fock + 1.0000 wB97M-V + LR-HF
 Correlation:  1.0000 wB97M-V
 Using Euler-Maclaurin-Lebedev (99,590) quadrature formula
 Nonlocal Correlation:  VV10 with C = 0.0100 and b = 6.00 and scale = 1.00000
 Grid used for NLC:  SG-1 standard quadrature
performing fock build before subrot guess so that all methods have access
Printing subrot_rss_gen Method Specification:
Occupied Subspace Method is 0
Virtual Subspace Method is 0
Energy of the unrelaxed supersystem initial determinant -252.751332117798
write pseudocanon occs and virts to disk
write pseudocanon orbital energies to disk
Tolerance of ortho_decomp_scf: 1.00e-06
GDM subspace size: 20
Beginning the Orthogonal Decomposition of the Initial Supersystem Wavefunction
    1    -252.4448888273      5.11e-01     ortho_decomp Preconditoned Steepest Descent
    2    -252.4932701212      1.18e-02     ortho_decomp BFGS Step
    3    -252.4934278158      9.56e-04     ortho_decomp BFGS Step
    4    -252.4934280156      3.09e-05     ortho_decomp BFGS Step
    5    -252.4934280160      8.52e-07     ortho_decomp 00000 Convergence criterion met
 Hartree-Fock
 Hartree-Fock
 Hartree-Fock
 Exchange:     0.1500 Hartree-Fock + 1.0000 wB97M-V + LR-HF
 Correlation:  1.0000 wB97M-V
 Using Euler-Maclaurin-Lebedev (99,590) quadrature formula
 Nonlocal Correlation:  VV10 with C = 0.0100 and b = 6.00 and scale = 1.00000
 Grid used for NLC:  SG-1 standard quadrature
 Long-range K will be added via erf
 Coulomb attenuation parameter = 0.3 bohr**(-1)
 Nonlocal correlation = 1.246923205034e-01
Doing General SCFMI
 Exchange:     0.1500 Hartree-Fock + 1.0000 wB97M-V + LR-HF
 Correlation:  1.0000 wB97M-V
 Using Euler-Maclaurin-Lebedev (99,590) quadrature formula
 Nonlocal Correlation:  VV10 with C = 0.0100 and b = 6.00 and scale = 1.00000
 Grid used for NLC:  SG-1 standard quadrature
performing fock build at end of subrot_r(subrot) constructor so that all methods have access
<S^2> of initial wavefunction before polarization iterations 0.0000000000
Beginning iterations for the determination of the polarized wavefunction
Energy prior to optimization (guess energy) = -252.751332117798
Begin Timing: Total SCF Calculation
begin iterations for algorithm: DIIS         
the SCF tolerance is set to 1.00e-08
    1    -252.7513321178      1.94e-03     00000 
    2    -252.7852446252      8.95e-04     00000 
    3    -252.7889103225      5.94e-04     00000 
    4    -252.7903822900      1.07e-04     00000 
    5    -252.7905111749      4.90e-05     00000 
    6    -252.7905244934      2.19e-05     00000 
    7    -252.7905269197      2.47e-06     00000 
    8    -252.7905270133      4.78e-07     00000 
    9    -252.7905270161      1.19e-07     00000 
   10    -252.7905270163      2.52e-08     00000 
   11    -252.7905270163      5.51e-09     00000 Convergence criterion met
write pseudocanon occs and virts to disk
write pseudocanon orbital energies to disk
Timing for Total SCF: 23.00s (wall), 139.04s (cpu)
<S^2> of polarized wavefunction after polarization iterations 0.0000000000
relaxing scfmi constraint to allow all rotations in the entire AO span
Doing General SCFMI
 Exchange:     0.1500 Hartree-Fock + 1.0000 wB97M-V + LR-HF
 Correlation:  1.0000 wB97M-V
 Using Euler-Maclaurin-Lebedev (99,590) quadrature formula
 Nonlocal Correlation:  VV10 with C = 0.0100 and b = 6.00 and scale = 1.00000
 Grid used for NLC:  SG-1 standard quadrature
performing fock build at end of subrot_r(subrot) constructor so that all methods have access
<S^2> of polarized wavefunction before ct-allowed iterations 0.0000000000
Beginning iterations for the determination of the CT-Allowed wavefunction
Energy prior to optimization (guess energy) = -252.790527016298
Begin Timing: Total SCF Calculation
begin iterations for algorithm: DIIS         
the SCF tolerance is set to 1.00e-08
    1    -252.7905270163      1.19e-03     00000 
    2    -252.8180140560      2.87e-04     00000 
    3    -252.8186641708      3.08e-04     00000 
    4    -252.8195746140      2.19e-05     00000 
    5    -252.8195919830      1.08e-05     00000 
    6    -252.8195936534      3.71e-06     00000 
    7    -252.8195939139      7.31e-07     00000 
    8    -252.8195939334      1.07e-07     00000 
    9    -252.8195939342      2.38e-08     00000 
   10    -252.8195939343      5.01e-09     00000 Convergence criterion met
write pseudocanon occs and virts to disk
write pseudocanon orbital energies to disk
Timing for Total SCF: 21.00s (wall), 125.91s (cpu)
<S^2> of ct_allowed wavefunction after ct-allowed iterations 0.0000000000

================================
        Results of EDA2         
================================
Basic EDA Quantities
--------------------
Fragment Energies (Ha):
1  -99.8700285037
2 -152.8662075992
--------------------
  E_prp (kJ/mol) = 0.0000
  E_frz (kJ/mol) = -39.6351
  E_pol (kJ/mol) = -102.9074
  E_vct (kJ/mol) = -76.3161
  E_int (kJ/mol) = -218.8586
--------------------


Decomposition of frozen interaction energy
--------------------
  --------------------
  Orthogonal Frozen Decomposition:
  --------------------
     E_elec   (ELEC)   (kJ/mol) = -540.1028
     E_pauli  (PAULI)  (kJ/mol) = 530.4460
     E_disp   (DISP)   (kJ/mol) = -29.9783
  --------------------
  Classical Frozen Decomposition:
  --------------------
     E_cls_elec  (CLS ELEC)  (kJ/mol) = -312.1015
     E_mod_pauli (MOD PAULI) (kJ/mol) = 295.2027 (FRZ - CLS ELEC - CLS DISP)
     E_cls_disp  (CLS DISP)  (kJ/mol) = -22.7363
  --------------------
--------------------

Simplified EDA Summary (kJ/mol)
--------------------
 PREPARATION      0.0000
 FROZEN           -39.6351 (ELEC + PAULI + DISP)
[ELEC + PAULI = -16.8988, DISP = -22.7363]
 POLARIZATION    -102.9074
 CHARGE TRANSFER -76.3161
 TOTAL           -218.8586     (PRP + FRZ + POL + CT)
--------------------
 
 --------------------------------------------------------------
             Orbital Energies (a.u.) and Symmetries
 --------------------------------------------------------------
 
 Alpha MOs, Restricted
 -- Occupied --                  
-24.570 -19.122 -19.122  -0.973  -0.921  -0.916  -0.424  -0.417
  1 A     1 B     2 A     3 A     2 B     4 A     3 B     5 A                  
 -0.317  -0.309  -0.228  -0.224  -0.211  -0.205  -0.204
  6 A     4 B     5 B     7 A     6 B     8 A     7 B                          
 -- Virtual --                   
  0.186   0.196   0.211   0.219   0.237   0.242   0.245   0.282
  9 A     8 B     9 B    10 A    11 A    10 B    12 A    13 A                  
  0.292   0.319   0.335   0.367   0.373   0.401   0.428   0.432
 11 B    12 B    13 B    14 A    14 B    15 A    15 B    16 A                  
  0.449   0.466   0.494   0.500   0.507   0.533   0.545   0.562
 17 A    16 B    17 B    18 A    19 A    18 B    20 A    19 B                  
  0.600   0.612   0.618   0.636   0.651   0.674   0.685   0.700
 21 A    20 B    22 A    21 B    23 A    24 A    22 B    25 A                  
  0.708   0.761   0.768   0.779   0.779   0.810   0.857   0.879
 23 B    26 A    24 B    27 A    25 B    26 B    28 A    27 B                  
  0.934   0.935   0.943   0.955   0.971   1.004   1.009   1.057
 28 B    29 A    30 A    31 A    29 B    30 B    32 A    33 A                  
  1.063   1.094   1.113   1.151   1.166   1.172   1.239   1.280
 31 B    32 B    34 A    33 B    35 A    34 B    35 B    36 A                  
  1.305   1.347   1.353   1.374   1.387   1.435   1.475   1.505
 37 A    36 B    38 A    37 B    39 A    38 B    40 A    41 A                  
  1.527   1.579   1.581   1.624   1.673   1.942   2.015   2.151
 39 B    42 A    40 B    41 B    43 A    42 B    44 A    45 A                  
  2.174   2.238   2.251   2.324   2.337   2.360   2.423   2.553
 43 B    46 A    44 B    47 A    45 B    48 A    46 B    47 B                  
  2.554   2.681   2.688   2.725   2.742   2.779   2.938   2.968
 49 A    50 A    48 B    51 A    49 B    52 A    53 A    50 B                  
  3.141   3.182   3.200   3.258   3.404   3.418   3.462   3.470
 54 A    51 B    55 A    52 B    56 A    53 B    57 A    54 B                  
  3.508   3.539   3.641   3.654   3.675   3.677   3.701   3.704
 55 B    58 A    59 A    56 B    60 A    57 B    58 B    61 A                  
  3.788   3.889   3.917   4.023   4.065   4.076   4.098   4.196
 59 B    60 B    62 A    63 A    61 B    62 B    64 A    65 A                  
  4.219   4.224   4.250   4.308   4.311   4.327   4.352   4.360
 66 A    63 B    64 B    67 A    65 B    68 A    69 A    66 B                  
  4.411   4.419   4.485   4.506   4.678   4.698   4.991   4.995
 67 B    70 A    68 B    71 A    69 B    72 A    70 B    73 A                  
  5.059   5.075   5.227   5.244   5.491   5.533   5.886   5.890
 71 B    74 A    72 B    75 A    76 A    73 B    74 B    77 A                  
  6.420   6.450   6.585   6.607   6.760   6.777   6.797   6.805
 75 B    78 A    76 B    79 A    77 B    80 A    81 A    78 B                  
  6.889   6.924   7.021   7.029   7.065   7.065   7.206   7.247
 82 A    79 B    83 A    80 B    81 B    84 A    85 A    82 B                  
  7.311   7.395   7.419   7.446   7.483   7.541   7.578   7.795
 83 B    86 A    84 B    85 B    87 A    86 B    88 A    89 A                  
  7.810   7.910   7.945   8.106   8.201   8.989   9.021   9.099
 87 B    88 B    90 A    89 B    91 A    90 B    92 A    93 A                  
  9.292   9.670  44.671  44.678  57.889
 94 A    91 B    95 A    92 B    96 A                                          
 
 Beta MOs, Restricted
 -- Occupied --                  
-24.570 -19.122 -19.122  -0.973  -0.921  -0.916  -0.424  -0.417
  1 A     1 B     2 A     3 A     2 B     4 A     3 B     5 A                  
 -0.317  -0.309  -0.228  -0.224  -0.211  -0.205  -0.204
  6 A     4 B     5 B     7 A     6 B     8 A     7 B                          
 -- Virtual --                   
  0.186   0.196   0.211   0.219   0.237   0.242   0.245   0.282
  9 A     8 B     9 B    10 A    11 A    10 B    12 A    13 A                  
  0.292   0.319   0.335   0.367   0.373   0.401   0.428   0.432
 11 B    12 B    13 B    14 A    14 B    15 A    15 B    16 A                  
  0.449   0.466   0.494   0.500   0.507   0.533   0.545   0.562
 17 A    16 B    17 B    18 A    19 A    18 B    20 A    19 B                  
  0.600   0.612   0.618   0.636   0.651   0.674   0.685   0.700
 21 A    20 B    22 A    21 B    23 A    24 A    22 B    25 A                  
  0.708   0.761   0.768   0.779   0.779   0.810   0.857   0.879
 23 B    26 A    24 B    27 A    25 B    26 B    28 A    27 B                  
  0.934   0.935   0.943   0.955   0.971   1.004   1.009   1.057
 28 B    29 A    30 A    31 A    29 B    30 B    32 A    33 A                  
  1.063   1.094   1.113   1.151   1.166   1.172   1.239   1.280
 31 B    32 B    34 A    33 B    35 A    34 B    35 B    36 A                  
  1.305   1.347   1.353   1.374   1.387   1.435   1.475   1.505
 37 A    36 B    38 A    37 B    39 A    38 B    40 A    41 A                  
  1.527   1.579   1.581   1.624   1.673   1.942   2.015   2.151
 39 B    42 A    40 B    41 B    43 A    42 B    44 A    45 A                  
  2.174   2.238   2.251   2.324   2.337   2.360   2.423   2.553
 43 B    46 A    44 B    47 A    45 B    48 A    46 B    47 B                  
  2.554   2.681   2.688   2.725   2.742   2.779   2.938   2.968
 49 A    50 A    48 B    51 A    49 B    52 A    53 A    50 B                  
  3.141   3.182   3.200   3.258   3.404   3.418   3.462   3.470
 54 A    51 B    55 A    52 B    56 A    53 B    57 A    54 B                  
  3.508   3.539   3.641   3.654   3.675   3.677   3.701   3.704
 55 B    58 A    59 A    56 B    60 A    57 B    58 B    61 A                  
  3.788   3.889   3.917   4.023   4.065   4.076   4.098   4.196
 59 B    60 B    62 A    63 A    61 B    62 B    64 A    65 A                  
  4.219   4.224   4.250   4.308   4.311   4.327   4.352   4.360
 66 A    63 B    64 B    67 A    65 B    68 A    69 A    66 B                  
  4.411   4.419   4.485   4.506   4.678   4.698   4.991   4.995
 67 B    70 A    68 B    71 A    69 B    72 A    70 B    73 A                  
  5.059   5.075   5.227   5.244   5.491   5.533   5.886   5.890
 71 B    74 A    72 B    75 A    76 A    73 B    74 B    77 A                  
  6.420   6.450   6.585   6.607   6.760   6.777   6.797   6.805
 75 B    78 A    76 B    79 A    77 B    80 A    81 A    78 B                  
  6.889   6.924   7.021   7.029   7.065   7.065   7.206   7.247
 82 A    79 B    83 A    80 B    81 B    84 A    85 A    82 B                  
  7.311   7.395   7.419   7.446   7.483   7.541   7.578   7.795
 83 B    86 A    84 B    85 B    87 A    86 B    88 A    89 A                  
  7.810   7.910   7.945   8.106   8.201   8.989   9.021   9.099
 87 B    88 B    90 A    89 B    91 A    90 B    92 A    93 A                  
  9.292   9.670  44.671  44.678  57.889
 94 A    91 B    95 A    92 B    96 A                                          
 --------------------------------------------------------------
 
          Ground-State Mulliken Net Atomic Charges

     Atom                 Charge (a.u.)
  ----------------------------------------
      1 F                    -0.724544
      2 O                    -0.582703
      3 H                     0.116993
      4 H                     0.327982
      5 O                    -0.582703
      6 H                     0.116993
      7 H                     0.327982
  ----------------------------------------
  Sum of atomic charges =    -1.000000

 -----------------------------------------------------------------
                    Cartesian Multipole Moments
 -----------------------------------------------------------------
    Charge (ESU x 10^10)
                -4.8032
    Dipole Moment (Debye)
         X       0.0000      Y      -0.0000      Z      -2.5475
       Tot       2.5475
    Quadrupole Moments (Debye-Ang)
        XX     -38.2084     XY      -2.6349     YY     -21.4291
        XZ      -0.0000     YZ      -0.0000     ZZ     -25.4364
    Octopole Moments (Debye-Ang^2)
       XXX       0.0000    XXY      -0.0000    XYY       0.0000
       YYY      -0.0000    XXZ       9.7597    XYZ       5.0128
       YYZ      -0.3330    XZZ      -0.0000    YZZ      -0.0000
       ZZZ      -7.7022
    Hexadecapole Moments (Debye-Ang^3)
      XXXX    -393.0636   XXXY      -3.5278   XXYY     -55.8144
      XYYY      -1.6086   YYYY     -26.3798   XXXZ       0.0000
      XXYZ      -0.0000   XYYZ      -0.0000   YYYZ      -0.0000
      XXZZ     -68.8879   XYZZ      -5.9590   YYZZ     -21.9828
      XZZZ      -0.0000   YZZZ      -0.0000   ZZZZ    -114.7911
 -----------------------------------------------------------------
 Total job time:  166.72s(wall), 481.13s(cpu) 
 Sat Dec 30 19:04:26 2023

        *************************************************************
        *                                                           *
        *  Thank you very much for using Q-Chem.  Have a nice day.  *
        *                                                           *
        *************************************************************


