
Running Job 1 of 1 020_Cl-2Water_1.20_almo.in
qchem 020_Cl-2Water_1.20_almo.in_228304.0 /scratch/qchem228304/ 6
/home/kchung25/qchem/5.4.0/exe/qcprog.exe_s 020_Cl-2Water_1.20_almo.in_228304.0 /scratch/qchem228304/
                  Welcome to Q-Chem
     A Quantum Leap Into The Future Of Chemistry


 Q-Chem 5.4, Q-Chem, Inc., Pleasanton, CA (2021)

 E. Epifanovsky,  A. T. B. Gilbert,  Xintian Feng,  Joonho Lee,  Yuezhi Mao,  
 N. Mardirossian,  P. Pokhilko,  A. White,  M. Wormit,  M. P. Coons,  
 A. L. Dempwolff,  Zhengting Gan,  D. Hait,  P. R. Horn,  L. D. Jacobson,  
 I. Kaliman,  J. Kussmann,  A. W. Lange,  Ka Un Lao,  D. S. Levine,  Jie Liu,  
 S. C. McKenzie,  A. F. Morrison,  K. Nanda,  F. Plasser,  D. R. Rehn,  
 M. L. Vidal,  Zhi-Qiang You,  Ying Zhu,  B. Alam,  B. Albrecht,  
 A. Aldossary,  E. Alguire,  J. H. Andersen,  D. Barton,  K. Begam,  A. Behn,  
 Y. A. Bernard,  E. J. Berquist,  H. Burton,  A. Carreras,  K. Carter-Fenk,  
 Romit Chakraborty,  A. D. Chien,  K. D. Closser,  V. Cofer-Shabica,  
 S. Dasgupta,  Jia Deng,  M. de Wergifosse,  M. Diedenhofen,  Hainam Do,  
 S. Ehlert,  Po-Tung Fang,  S. Fatehi,  Qingguo Feng,  T. Friedhoff,  
 J. Gayvert,  Qinghui Ge,  G. Gidofalvi,  M. Goldey,  J. Gomes,  
 C. Gonzalez-Espinoza,  S. Gulania,  A. Gunina,  M. W. D. Hanson-Heine,  
 P. H. P. Harbach,  A. W. Hauser,  M. F. Herbst,  M. Hernandez Vera,  
 M. Hodecker,  Z. C. Holden,  S. Houck,  Xunkun Huang,  Kerwin Hui,  
 B. C. Huynh,  M. Ivanov,  Hyunjun Ji,  Hanjie Jiang,  B. Kaduk,  S. Kaehler,  
 K. Khistyaev,  Jaehoon Kim,  P. Klunzinger,  Z. Koczor-Benda,  
 Joong Hoon Koh,  D. Kosenkov,  L. Koulias,  T. Kowalczyk,  C. M. Krauter,  
 K. Kue,  A. Kunitsa,  T. Kus,  A. Landau,  K. V. Lawler,  D. Lefrancois,  
 S. Lehtola,  Rain Li,  Yi-Pei Li,  Jiashu Liang,  M. Liebenthal,  
 Hung-Hsuan Lin,  You-Sheng Lin,  Fenglai Liu,  Kuan-Yu Liu,  
 M. Loipersberger,  A. Luenser,  A. Manjanath,  P. Manohar,  E. Mansoor,  
 S. F. Manzer,  Shan-Ping Mao,  A. V. Marenich,  T. Markovich,  S. Mason,  
 S. A. Maurer,  P. F. McLaughlin,  M. F. S. J. Menger,  J.-M. Mewes,  
 S. A. Mewes,  P. Morgante,  J. W. Mullinax,  K. J. Oosterbaan,  G. Paran,  
 Alexander C. Paul,  Suranjan K. Paul,  F. Pavosevic,  Zheng Pei,  S. Prager,  
 E. I. Proynov,  E. Ramos,  B. Rana,  A. E. Rask,  A. Rettig,  R. M. Richard,  
 F. Rob,  E. Rossomme,  T. Scheele,  M. Scheurer,  M. Schneider,  
 N. Sergueev,  S. M. Sharada,  W. Skomorowski,  D. W. Small,  C. J. Stein,  
 Yu-Chuan Su,  E. J. Sundstrom,  Zhen Tao,  J. Thirman,  T. Tsuchimochi,  
 N. M. Tubman,  S. P. Veccham,  O. Vydrov,  J. Wenzel,  J. Witte,  A. Yamada,  
 Kun Yao,  S. Yeganeh,  S. R. Yost,  A. Zech,  Igor Ying Zhang,  Xing Zhang,  
 Yu Zhang,  D. Zuev,  A. Aspuru-Guzik,  A. T. Bell,  N. A. Besley,  
 K. B. Bravaya,  B. R. Brooks,  D. Casanova,  Jeng-Da Chai,  S. Coriani,  
 C. J. Cramer,  A. E. DePrince, III,  R. A. DiStasio Jr.,  A. Dreuw,  
 B. D. Dunietz,  T. R. Furlani,  W. A. Goddard III,  S. Grimme,  
 S. Hammes-Schiffer,  T. Head-Gordon,  W. J. Hehre,  Chao-Ping Hsu,  
 T.-C. Jagau,  Yousung Jung,  A. Klamt,  Jing Kong,  D. S. Lambrecht,  
 WanZhen Liang,  N. J. Mayhall,  C. W. McCurdy,  J. B. Neaton,  T. Neudecker,  
 C. Ochsenfeld,  J. A. Parkhill,  R. Peverati,  V. A. Rassolov,  Yihan Shao,  
 L. V. Slipchenko,  R. P. Steele,  J. E. Subotnik,  A. J. W. Thom,  
 A. Tkatchenko,  D. G. Truhlar,  T. Van Voorhis,  T. A. Wesolowski,  
 K. B. Whaley,  H. L. Woodcock III,  P. M. Zimmerman,  S. Faraji,  
 P. M. W. Gill,  M. Head-Gordon,  J. M. Herbert,  A. I. Krylov

 Additional authors since Version 5.4.0: 
 Chandrima Chakravarty,  L. Cunha,  R. Kang,  Yongbin Kim,  S. Kotaru,  
 Shaozhi Li,  Xiangyuan Li,  F. Matz,  A. Molle,  V. Parravicini,  
 Haisheng Ren,  Hengyuan Shen,  Yingli Su,  Hung-Yi Tsai,  C. Utku,  
 Fang Wang,  Jeff Yang,  F. Zeller

 Contributors to earlier versions of Q-Chem not listed above: 
 R. D. Adamson,  B. Austin,  R. Baer,  J. Baker,  G. J. O. Beran,  
 K. Brandhorst,  S. T. Brown,  E. F. C. Byrd,  Arup K. Chakraborty,  
 G. K. L. Chan,  Chun-Min Chang,  Yunqing Chen,  C.-L. Cheng,  
 Siu Hung Chien,  D. M. Chipman,  D. L. Crittenden,  H. Dachsel,  
 R. J. Doerksen,  A. D. Dutoi,  R. G. Edgar,  J. Fosso-Tande,  
 L. Fusti-Molnar,  D. Ghosh,  A. Ghysels,  A. Golubeva-Zadorozhnaya,  
 J. Gonthier,  M. S. Gordon,  S. R. Gwaltney,  G. Hawkins,  J. E. Herr,  
 A. Heyden,  S. Hirata,  E. G. Hohenstein,  G. Kedziora,  F. J. Keil,  
 C. Kelley,  Jihan Kim,  R. A. King,  R. Z. Khaliullin,  P. P. Korambath,  
 W. Kurlancheek,  A. Laurent,  A. M. Lee,  M. S. Lee,  S. V. Levchenko,  
 Ching Yeh Lin,  D. Liotard,  E. Livshits,  R. C. Lochan,  I. Lotan,  
 L. A. Martinez-Martinez,  P. E. Maslen,  N. Nair,  D. P. O'Neill,  
 D. Neuhauser,  E. Neuscamman,  C. M. Oana,  R. Olivares-Amaya,  R. Olson,  
 T. M. Perrine,  B. Peters,  P. A. Pieniazek,  A. Prociuk,  Y. M. Rhee,  
 J. Ritchie,  M. A. Rohrdanz,  E. Rosta,  N. J. Russ,  H. F. Schaefer III,  
 M. W. Schmidt,  N. E. Schultz,  S. Sharma,  N. Shenvi,  C. D. Sherrill,  
 A. C. Simmonett,  A. Sodt,  T. Stein,  D. Stuck,  K. S. Thanthiriwatte,  
 V. Vanovschi,  L. Vogt,  Tao Wang,  A. Warshel,  M. A. Watson,  
 C. F. Williams,  Q. Wu,  X. Xu,  Jun Yang,  W. Zhang,  Yan Zhao

   Please cite Q-Chem as follows:
  "Software for the frontiers of quantum chemistry:
   An overview of developments in the Q-Chem 5 package"
   J. Chem. Phys. 155, 084801 (2021)
   https://doi.org/10.1063/5.0055522 (open access)

 Q-Chem 5.4.2 for Intel X86 EM64T Linux

 Parts of Q-Chem use Armadillo 9.900.5 (Nocturnal Misbehaviour).
 http://arma.sourceforge.net/

 Q-Chem begins on Sat Dec 30 19:39:08 2023  

 Host: 
0

     Scratch files written to /scratch/qchem228304//
 Dec1321 |scratch|qcdevops|jenkins|workspace|build_RNUM 5684   
 Processing $rem in /home/kchung25/qchem/5.4.0/config/preferences:
 Processing $rem in /home/kchung25/.qchemrc:

 Q-Chem warning in module libgen/rem_setup.C, line 3079:

 Neither GIA nor STOLL is specified by user. Use STOLL as the default


 Checking the input file for inconsistencies... 	...done.

--------------------------------------------------------------
User input:
--------------------------------------------------------------
$molecule
-1 1
--
-1 1
Cl     3.213094     0.000000     0.000000
--
0 1
O      0.000000    -0.107289     1.572847
H     -0.369135     0.578119     1.010976
H      0.913486    -0.160341     1.215831
O      0.000000     0.107289    -1.572847
H     -0.369135    -0.578119    -1.010976
H      0.913486     0.160341    -1.215831
$end

$rem
JOBTYPE          eda
EDA2             1
METHOD           wB97M-V
BASIS            def2-TZVPPD
SYMMETRY         false
MEM_TOTAL        50000
MEM_STATIC       10000
THRESH           14
SCF_CONVERGENCE  8
XC_GRID          000099000590
NL_GRID          1
EDA_CLS_DISP     true
FD_MAT_VEC_PROD  FALSE
$end
--------------------------------------------------------------
 ----------------------------------------------------------------
             Standard Nuclear Orientation (Angstroms)
    I     Atom           X                Y                Z
 ----------------------------------------------------------------
    1      Cl     -0.0000000000    -0.0000000000     1.7073831892
    2      O      -0.0382121207     1.5760388475    -1.5057108108
    3      H       0.6218969314     0.9846513380    -1.8748458108
    4      H      -0.1068692187     1.2216927711    -0.5922248108
    5      O       0.0382121207    -1.5760388475    -1.5057108108
    6      H      -0.6218969314    -0.9846513380    -1.8748458108
    7      H       0.1068692187    -1.2216927711    -0.5922248108
 ----------------------------------------------------------------
 Molecular Point Group                 C2    NOp =  2
 Largest Abelian Subgroup              C2    NOp =  2
 Nuclear Repulsion Energy =          87.70084240 hartrees
 There are       19 alpha and       19 beta electrons
 Requested basis set is def2-TZVPPD
 There are 73 shells and 199 basis functions

 Q-Chem warning in module libmdc/get_mega.C, line 171:

 Allowed MEM_STATIC has been capped at MEM_STATIC=8191.
 Reduce the value of MEM_STATIC to silence this warning.


 Total QAlloc Memory Limit  50000 MB
 Mega-Array Size      8007 MB
 MEM_STATIC part      8191 MB

                       Distance Matrix (Angstroms)
             Cl(  1)   O (  2)   H (  3)   H (  4)   O (  5)   H (  6)
   O (  2)  3.579013
   H (  3)  3.766784  0.960075
   H (  4)  2.606176  0.982208  1.494124
   O (  5)  3.579013  3.153004  2.652185  2.946660
   H (  6)  3.766784  2.652185  2.329201  2.603522  0.960075
   H (  7)  2.606176  2.946660  2.603522  2.452716  0.982208  1.494124

 
 A cutoff of  1.0D-14 yielded   2558 shell pairs
 There are     19286 function pairs (     24046 Cartesian)
 Smallest overlap matrix eigenvalue = 3.46E-04

 Scale SEOQF with 1.000000e-01/1.000000e-01/1.000000e-01

 Standard Electronic Orientation quadrupole field applied
 Nucleus-field energy     =    -0.0000000068 hartrees

 -----------------------------------------------------------------------
  General SCF calculation program by
  Eric Jon Sundstrom, Paul Horn, Yuezhi Mao, Dmitri Zuev, Alec White,
  David Stuck, Shaama M.S., Shane Yost, Joonho Lee, David Small,
  Daniel Levine, Susi Lehtola, Hugh Burton, Evgeny Epifanovsky,
  Bang C. Huynh
 -----------------------------------------------------------------------
================================================================
                 ALMO-EDA with the EDA2 driver                  
================================================================
 The second-generation ALMO-EDA (for DFT):                      
 P. R. Horn, Y. Mao and M. Head-Gordon, PCCP, 18, 23067 (2016)  
 Y. Mao et al. Annu. Rev. Phys. Chem. 72, 641 (2021)            
 Decomposition of the frozen energy:                            
 P. R. Horn, Y. Mao and M. Head-Gordon, JCP, 144, 114107 (2016) 
 FERF model for polarization:                                   
 P. R. Horn and M. Head-Gordon, JCP, 143, 114111 (2015)         
================================================================
 Using eda2 option set 1
 Option set summary: Frozen orbital wavefunction, initial wavefunction decomposition, and nDQ polarization.
--------------------------------
Printing EDA Options
--------------------------------
eda_child_super_basis      0
fragmo_guess_mode          0
child_mp                   1
child_mp_orders            232
cls_elec                   1
cls_disp                   1
scfmi_mode                 1
scfmi_occs                 0
scfmi_virts                0
frz_relax                  0
frz_relax_method           0
dc_pen_start               0
dc_pen_conv                0
dc_pen_increment           0
dc_pen_steps               0
dc_pen_thresh_factor       0
dc_pen_pre_newton_thresh   0
frz_ortho_decomp           1
frz_ortho_decomp_conv      6
plot_mo_ortho_frz          0
frgm_method                2
scfmi_freeze_ss            0
separate_rehyb             0
plot_diff_den              0
eda_nocv                   0
eda_vct_relax              1
disp_free_x                0
disp_free_c                0
eda_bsse                   0
eda_pct_a                  0
eda_covp                   0
--------------------------------
Attempting to make child job directory: /scratch/qchem228304//Frg1/
Attempting to make child job directory: /scratch/qchem228304//Frg2/
Creating input file /scratch/qchem228304/Frg1.input
using default PutDataFrgm: nothing
calling putenv with: QCSCRATCH=/scratch/qchem228304/ 
Spawning Job For Fragment 0
Done Job For Fragment 0
calling putenv with: QCSCRATCH=/scratch 
calling putenv with: QCTHREADS=6 
Creating input file /scratch/qchem228304/Frg2.input
using default PutDataFrgm: nothing
calling putenv with: QCSCRATCH=/scratch/qchem228304/ 
Spawning Job For Fragment 1
Done Job For Fragment 1
calling putenv with: QCSCRATCH=/scratch 
calling putenv with: QCTHREADS=6 
Doing General SCFMI
 Exchange:     0.1500 Hartree-Fock + 1.0000 wB97M-V + LR-HF
 Correlation:  1.0000 wB97M-V
 Using Euler-Maclaurin-Lebedev (99,590) quadrature formula
 Nonlocal Correlation:  VV10 with C = 0.0100 and b = 6.00 and scale = 1.00000
 Grid used for NLC:  SG-1 standard quadrature
performing fock build before subrot guess so that all methods have access
Printing subrot_rss_gen Method Specification:
Occupied Subspace Method is 0
Virtual Subspace Method is 0
Energy of the unrelaxed supersystem initial determinant -613.160724484408
write pseudocanon occs and virts to disk
write pseudocanon orbital energies to disk
Tolerance of ortho_decomp_scf: 1.00e-06
GDM subspace size: 20
Beginning the Orthogonal Decomposition of the Initial Supersystem Wavefunction
    1    -613.0870316851      2.00e-01     ortho_decomp Preconditoned Steepest Descent
    2    -613.0978649774      2.38e-03     ortho_decomp BFGS Step
    3    -613.0978740781      1.40e-04     ortho_decomp BFGS Step
    4    -613.0978741046      5.53e-06     ortho_decomp BFGS Step
    5    -613.0978741046      1.05e-07     ortho_decomp 00000 Convergence criterion met
 Hartree-Fock
 Hartree-Fock
 Hartree-Fock
 Exchange:     0.1500 Hartree-Fock + 1.0000 wB97M-V + LR-HF
 Correlation:  1.0000 wB97M-V
 Using Euler-Maclaurin-Lebedev (99,590) quadrature formula
 Nonlocal Correlation:  VV10 with C = 0.0100 and b = 6.00 and scale = 1.00000
 Grid used for NLC:  SG-1 standard quadrature
 Long-range K will be added via erf
 Coulomb attenuation parameter = 0.3 bohr**(-1)
 Nonlocal correlation = 1.580676125727e-01
Doing General SCFMI
 Exchange:     0.1500 Hartree-Fock + 1.0000 wB97M-V + LR-HF
 Correlation:  1.0000 wB97M-V
 Using Euler-Maclaurin-Lebedev (99,590) quadrature formula
 Nonlocal Correlation:  VV10 with C = 0.0100 and b = 6.00 and scale = 1.00000
 Grid used for NLC:  SG-1 standard quadrature
performing fock build at end of subrot_r(subrot) constructor so that all methods have access
<S^2> of initial wavefunction before polarization iterations 0.0000000000
Beginning iterations for the determination of the polarized wavefunction
Energy prior to optimization (guess energy) = -613.160724484408
Begin Timing: Total SCF Calculation
begin iterations for algorithm: DIIS         
the SCF tolerance is set to 1.00e-08
    1    -613.1607244844      7.40e-04     00000 
    2    -613.1675801442      2.56e-04     00000 
    3    -613.1681360716      1.07e-04     00000 
    4    -613.1682419921      4.66e-05     00000 
    5    -613.1682614423      1.95e-05     00000 
    6    -613.1682652955      5.91e-06     00000 
    7    -613.1682657155      1.76e-06     00000 
    8    -613.1682657613      5.04e-07     00000 
    9    -613.1682657628      2.28e-07     00000 
   10    -613.1682657631      8.79e-08     00000 
   11    -613.1682657631      1.97e-08     00000 
   12    -613.1682657631      5.72e-09     00000 Convergence criterion met
write pseudocanon occs and virts to disk
write pseudocanon orbital energies to disk
Timing for Total SCF: 29.00s (wall), 174.99s (cpu)
<S^2> of polarized wavefunction after polarization iterations 0.0000000000
relaxing scfmi constraint to allow all rotations in the entire AO span
Doing General SCFMI
 Exchange:     0.1500 Hartree-Fock + 1.0000 wB97M-V + LR-HF
 Correlation:  1.0000 wB97M-V
 Using Euler-Maclaurin-Lebedev (99,590) quadrature formula
 Nonlocal Correlation:  VV10 with C = 0.0100 and b = 6.00 and scale = 1.00000
 Grid used for NLC:  SG-1 standard quadrature
performing fock build at end of subrot_r(subrot) constructor so that all methods have access
<S^2> of polarized wavefunction before ct-allowed iterations 0.0000000000
Beginning iterations for the determination of the CT-Allowed wavefunction
Energy prior to optimization (guess energy) = -613.168265763123
Begin Timing: Total SCF Calculation
begin iterations for algorithm: DIIS         
the SCF tolerance is set to 1.00e-08
    1    -613.1682657631      4.11e-04     00000 
    2    -613.1728348831      6.84e-05     00000 
    3    -613.1730764791      2.70e-05     00000 
    4    -613.1730917583      1.29e-05     00000 
    5    -613.1730953817      3.71e-06     00000 
    6    -613.1730956594      9.16e-07     00000 
    7    -613.1730957106      1.90e-07     00000 
    8    -613.1730957132      5.63e-08     00000 
    9    -613.1730957134      1.73e-08     00000 
   10    -613.1730957135      2.82e-09     00000 Convergence criterion met
write pseudocanon occs and virts to disk
write pseudocanon orbital energies to disk
Timing for Total SCF: 24.00s (wall), 143.88s (cpu)
<S^2> of ct_allowed wavefunction after ct-allowed iterations 0.0000000000

================================
        Results of EDA2         
================================
Basic EDA Quantities
--------------------
Fragment Energies (Ha):
1 -460.2597934912
2 -152.8724486167
--------------------
  E_prp (kJ/mol) = -0.0000
  E_frz (kJ/mol) = -74.7814
  E_pol (kJ/mol) = -19.7999
  E_vct (kJ/mol) = -12.6812
  E_int (kJ/mol) = -107.2624
--------------------


Decomposition of frozen interaction energy
--------------------
  --------------------
  Orthogonal Frozen Decomposition:
  --------------------
     E_elec   (ELEC)   (kJ/mol) = -130.8200
     E_pauli  (PAULI)  (kJ/mol) = 69.1860
     E_disp   (DISP)   (kJ/mol) = -13.1474
  --------------------
  Classical Frozen Decomposition:
  --------------------
     E_cls_elec  (CLS ELEC)  (kJ/mol) = -96.8678
     E_mod_pauli (MOD PAULI) (kJ/mol) = 33.9138 (FRZ - CLS ELEC - CLS DISP)
     E_cls_disp  (CLS DISP)  (kJ/mol) = -11.8274
  --------------------
--------------------

Simplified EDA Summary (kJ/mol)
--------------------
 PREPARATION      -0.0000
 FROZEN           -74.7814 (ELEC + PAULI + DISP)
[ELEC + PAULI = -62.9540, DISP = -11.8274]
 POLARIZATION    -19.7999
 CHARGE TRANSFER -12.6812
 TOTAL           -107.2624     (PRP + FRZ + POL + CT)
--------------------
 
 --------------------------------------------------------------
             Orbital Energies (a.u.) and Symmetries
 --------------------------------------------------------------
 
 Alpha MOs, Restricted
 -- Occupied --                  
-101.59  -19.19  -19.19   -9.36   -7.06   -7.06   -7.06   -1.00
  1 A     1 B     2 A     3 A     4 A     2 B     3 B     5 A                  
 -0.988  -0.642  -0.483  -0.478  -0.374  -0.359  -0.288  -0.276
  4 B     6 A     7 A     5 B     8 A     6 B     9 A     7 B                  
 -0.167  -0.163  -0.161
 10 A     8 B     9 B                                                          
 -- Virtual --                   
  0.163   0.182   0.191   0.192   0.212   0.224   0.230   0.231
 11 A    10 B    11 B    12 A    13 A    12 B    14 A    13 B                  
  0.233   0.255   0.297   0.339   0.343   0.354   0.364   0.370
 15 A    14 B    15 B    16 B    16 A    17 A    17 B    18 A                  
  0.405   0.408   0.424   0.446   0.467   0.472   0.484   0.489
 19 A    18 B    20 A    21 A    19 B    22 A    23 A    20 B                  
  0.498   0.507   0.522   0.530   0.533   0.539   0.563   0.588
 21 B    24 A    25 A    26 A    22 B    23 B    24 B    25 B                  
  0.594   0.636   0.656   0.662   0.692   0.704   0.737   0.753
 27 A    26 B    28 A    29 A    27 B    30 A    28 B    29 B                  
  0.764   0.780   0.797   0.832   0.863   0.896   0.906   0.916
 31 A    30 B    32 A    31 B    33 A    32 B    34 A    35 A                  
  0.917   0.931   0.932   0.951   0.960   0.968   0.971   0.994
 33 B    36 A    37 A    34 B    35 B    36 B    38 A    39 A                  
  1.035   1.049   1.086   1.091   1.116   1.186   1.209   1.245
 37 B    40 A    38 B    41 A    39 B    42 A    40 B    43 A                  
  1.270   1.279   1.305   1.324   1.359   1.424   1.463   1.465
 41 B    44 A    42 B    45 A    43 B    46 A    47 A    44 B                  
  1.519   1.587   1.600   1.652   2.078   2.098   2.133   2.178
 45 B    46 B    48 A    49 A    47 B    50 A    51 A    48 B                  
  2.211   2.229   2.245   2.247   2.263   2.299   2.323   2.338
 52 A    49 B    53 A    54 A    50 B    55 A    51 B    56 A                  
  2.370   2.401   2.406   2.442   2.447   2.458   2.458   2.472
 52 B    57 A    53 B    54 B    55 B    56 B    58 A    59 A                  
  2.538   2.572   2.663   2.690   2.755   2.787   2.891   2.979
 60 A    57 B    58 B    59 B    61 A    60 B    62 A    63 A                  
  2.989   3.057   3.148   3.378   3.394   3.402   3.424   3.460
 61 B    64 A    62 B    65 A    63 B    66 A    64 B    67 A                  
  3.472   3.572   3.606   3.631   3.637   3.658   3.688   3.722
 65 B    66 B    68 A    67 B    68 B    69 A    70 A    71 A                  
  3.751   3.865   3.867   3.991   4.092   4.093   4.146   4.217
 69 B    70 B    72 A    73 A    74 A    71 B    72 B    75 A                  
  4.236   4.259   4.292   4.339   4.382   4.386   4.434   4.478
 73 B    76 A    74 B    77 A    75 B    76 B    78 A    79 A                  
  4.575   4.880   4.888   4.966   4.992   5.108   5.148   5.343
 77 B    80 A    78 B    79 B    81 A    82 A    80 B    83 A                  
  5.447   5.856   5.865   6.472   6.472   6.634   6.636   6.714
 81 B    82 B    84 A    83 B    85 A    86 A    84 B    87 A                  
  6.717   6.740   6.749   6.837   6.838   6.942   6.984   7.034
 85 B    88 A    86 B    89 A    87 B    88 B    90 A    91 A                  
  7.055   7.182   7.221   7.688   7.689   7.810   7.866   7.924
 89 B    92 A    90 B    93 A    91 B    94 A    92 B    95 A                  
  7.932   8.524   8.525   8.533   8.575   8.582  11.219  11.317
 93 B    96 A    97 A    94 B    98 A    95 B    96 B    97 B                  
 11.429  25.255  44.544  44.571
 99 A   100 A   101 A    98 B                                                  
 
 Beta MOs, Restricted
 -- Occupied --                  
-101.59  -19.19  -19.19   -9.36   -7.06   -7.06   -7.06   -1.00
  1 A     1 B     2 A     3 A     4 A     2 B     3 B     5 A                  
 -0.988  -0.642  -0.483  -0.478  -0.374  -0.359  -0.288  -0.276
  4 B     6 A     7 A     5 B     8 A     6 B     9 A     7 B                  
 -0.167  -0.163  -0.161
 10 A     8 B     9 B                                                          
 -- Virtual --                   
  0.163   0.182   0.191   0.192   0.212   0.224   0.230   0.231
 11 A    10 B    11 B    12 A    13 A    12 B    14 A    13 B                  
  0.233   0.255   0.297   0.339   0.343   0.354   0.364   0.370
 15 A    14 B    15 B    16 B    16 A    17 A    17 B    18 A                  
  0.405   0.408   0.424   0.446   0.467   0.472   0.484   0.489
 19 A    18 B    20 A    21 A    19 B    22 A    23 A    20 B                  
  0.498   0.507   0.522   0.530   0.533   0.539   0.563   0.588
 21 B    24 A    25 A    26 A    22 B    23 B    24 B    25 B                  
  0.594   0.636   0.656   0.662   0.692   0.704   0.737   0.753
 27 A    26 B    28 A    29 A    27 B    30 A    28 B    29 B                  
  0.764   0.780   0.797   0.832   0.863   0.896   0.906   0.916
 31 A    30 B    32 A    31 B    33 A    32 B    34 A    35 A                  
  0.917   0.931   0.932   0.951   0.960   0.968   0.971   0.994
 33 B    36 A    37 A    34 B    35 B    36 B    38 A    39 A                  
  1.035   1.049   1.086   1.091   1.116   1.186   1.209   1.245
 37 B    40 A    38 B    41 A    39 B    42 A    40 B    43 A                  
  1.270   1.279   1.305   1.324   1.359   1.424   1.463   1.465
 41 B    44 A    42 B    45 A    43 B    46 A    47 A    44 B                  
  1.519   1.587   1.600   1.652   2.078   2.098   2.133   2.178
 45 B    46 B    48 A    49 A    47 B    50 A    51 A    48 B                  
  2.211   2.229   2.245   2.247   2.263   2.299   2.323   2.338
 52 A    49 B    53 A    54 A    50 B    55 A    51 B    56 A                  
  2.370   2.401   2.406   2.442   2.447   2.458   2.458   2.472
 52 B    57 A    53 B    54 B    55 B    56 B    58 A    59 A                  
  2.538   2.572   2.663   2.690   2.755   2.787   2.891   2.979
 60 A    57 B    58 B    59 B    61 A    60 B    62 A    63 A                  
  2.989   3.057   3.148   3.378   3.394   3.402   3.424   3.460
 61 B    64 A    62 B    65 A    63 B    66 A    64 B    67 A                  
  3.472   3.572   3.606   3.631   3.637   3.658   3.688   3.722
 65 B    66 B    68 A    67 B    68 B    69 A    70 A    71 A                  
  3.751   3.865   3.867   3.991   4.092   4.093   4.146   4.217
 69 B    70 B    72 A    73 A    74 A    71 B    72 B    75 A                  
  4.236   4.259   4.292   4.339   4.382   4.386   4.434   4.478
 73 B    76 A    74 B    77 A    75 B    76 B    78 A    79 A                  
  4.575   4.880   4.888   4.966   4.992   5.108   5.148   5.343
 77 B    80 A    78 B    79 B    81 A    82 A    80 B    83 A                  
  5.447   5.856   5.865   6.472   6.472   6.634   6.636   6.714
 81 B    82 B    84 A    83 B    85 A    86 A    84 B    87 A                  
  6.717   6.740   6.749   6.837   6.838   6.942   6.984   7.034
 85 B    88 A    86 B    89 A    87 B    88 B    90 A    91 A                  
  7.055   7.182   7.221   7.688   7.689   7.810   7.866   7.924
 89 B    92 A    90 B    93 A    91 B    94 A    92 B    95 A                  
  7.932   8.524   8.525   8.533   8.575   8.582  11.219  11.317
 93 B    96 A    97 A    94 B    98 A    95 B    96 B    97 B                  
 11.429  25.255  44.544  44.571
 99 A   100 A   101 A    98 B                                                  
 --------------------------------------------------------------
 
          Ground-State Mulliken Net Atomic Charges

     Atom                 Charge (a.u.)
  ----------------------------------------
      1 Cl                   -0.866823
      2 O                    -0.484061
      3 H                     0.179281
      4 H                     0.238192
      5 O                    -0.484061
      6 H                     0.179281
      7 H                     0.238192
  ----------------------------------------
  Sum of atomic charges =    -1.000000

 -----------------------------------------------------------------
                    Cartesian Multipole Moments
 -----------------------------------------------------------------
    Charge (ESU x 10^10)
                -4.8032
    Dipole Moment (Debye)
         X      -0.0000      Y      -0.0000      Z      -4.4704
       Tot       4.4704
    Quadrupole Moments (Debye-Ang)
        XX     -30.8262     XY       1.2555     YY     -41.3565
        XZ       0.0000     YZ       0.0000     ZZ     -46.7506
    Octopole Moments (Debye-Ang^2)
       XXX      -0.0000    XXY      -0.0000    XYY       0.0000
       YYY       0.0000    XXZ      -8.9500    XYZ      -4.2381
       YYZ      11.7775    XZZ      -0.0000    YZZ       0.0000
       ZZZ     -38.4268
    Hexadecapole Moments (Debye-Ang^3)
      XXXX     -47.2021   XXXY       0.8074   XXYY     -49.3707
      XYYY      -2.8415   YYYY    -289.0452   XXXZ      -0.0000
      XXYZ      -0.0000   XYYZ      -0.0000   YYYZ      -0.0000
      XXZZ     -92.8975   XYZZ       9.7081   YYZZ    -158.5570
      XZZZ      -0.0000   YZZZ       0.0000   ZZZZ    -552.0041
 -----------------------------------------------------------------
 Total job time:  194.71s(wall), 570.42s(cpu) 
 Sat Dec 30 19:42:23 2023

        *************************************************************
        *                                                           *
        *  Thank you very much for using Q-Chem.  Have a nice day.  *
        *                                                           *
        *************************************************************


