
Running Job 1 of 1 021_Br-2Water_1.10_almo.in
qchem 021_Br-2Water_1.10_almo.in_230776.0 /scratch/qchem230776/ 6
/home/kchung25/qchem/5.4.0/exe/qcprog.exe_s 021_Br-2Water_1.10_almo.in_230776.0 /scratch/qchem230776/
                  Welcome to Q-Chem
     A Quantum Leap Into The Future Of Chemistry


 Q-Chem 5.4, Q-Chem, Inc., Pleasanton, CA (2021)

 E. Epifanovsky,  A. T. B. Gilbert,  Xintian Feng,  Joonho Lee,  Yuezhi Mao,  
 N. Mardirossian,  P. Pokhilko,  A. White,  M. Wormit,  M. P. Coons,  
 A. L. Dempwolff,  Zhengting Gan,  D. Hait,  P. R. Horn,  L. D. Jacobson,  
 I. Kaliman,  J. Kussmann,  A. W. Lange,  Ka Un Lao,  D. S. Levine,  Jie Liu,  
 S. C. McKenzie,  A. F. Morrison,  K. Nanda,  F. Plasser,  D. R. Rehn,  
 M. L. Vidal,  Zhi-Qiang You,  Ying Zhu,  B. Alam,  B. Albrecht,  
 A. Aldossary,  E. Alguire,  J. H. Andersen,  D. Barton,  K. Begam,  A. Behn,  
 Y. A. Bernard,  E. J. Berquist,  H. Burton,  A. Carreras,  K. Carter-Fenk,  
 Romit Chakraborty,  A. D. Chien,  K. D. Closser,  V. Cofer-Shabica,  
 S. Dasgupta,  Jia Deng,  M. de Wergifosse,  M. Diedenhofen,  Hainam Do,  
 S. Ehlert,  Po-Tung Fang,  S. Fatehi,  Qingguo Feng,  T. Friedhoff,  
 J. Gayvert,  Qinghui Ge,  G. Gidofalvi,  M. Goldey,  J. Gomes,  
 C. Gonzalez-Espinoza,  S. Gulania,  A. Gunina,  M. W. D. Hanson-Heine,  
 P. H. P. Harbach,  A. W. Hauser,  M. F. Herbst,  M. Hernandez Vera,  
 M. Hodecker,  Z. C. Holden,  S. Houck,  Xunkun Huang,  Kerwin Hui,  
 B. C. Huynh,  M. Ivanov,  Hyunjun Ji,  Hanjie Jiang,  B. Kaduk,  S. Kaehler,  
 K. Khistyaev,  Jaehoon Kim,  P. Klunzinger,  Z. Koczor-Benda,  
 Joong Hoon Koh,  D. Kosenkov,  L. Koulias,  T. Kowalczyk,  C. M. Krauter,  
 K. Kue,  A. Kunitsa,  T. Kus,  A. Landau,  K. V. Lawler,  D. Lefrancois,  
 S. Lehtola,  Rain Li,  Yi-Pei Li,  Jiashu Liang,  M. Liebenthal,  
 Hung-Hsuan Lin,  You-Sheng Lin,  Fenglai Liu,  Kuan-Yu Liu,  
 M. Loipersberger,  A. Luenser,  A. Manjanath,  P. Manohar,  E. Mansoor,  
 S. F. Manzer,  Shan-Ping Mao,  A. V. Marenich,  T. Markovich,  S. Mason,  
 S. A. Maurer,  P. F. McLaughlin,  M. F. S. J. Menger,  J.-M. Mewes,  
 S. A. Mewes,  P. Morgante,  J. W. Mullinax,  K. J. Oosterbaan,  G. Paran,  
 Alexander C. Paul,  Suranjan K. Paul,  F. Pavosevic,  Zheng Pei,  S. Prager,  
 E. I. Proynov,  E. Ramos,  B. Rana,  A. E. Rask,  A. Rettig,  R. M. Richard,  
 F. Rob,  E. Rossomme,  T. Scheele,  M. Scheurer,  M. Schneider,  
 N. Sergueev,  S. M. Sharada,  W. Skomorowski,  D. W. Small,  C. J. Stein,  
 Yu-Chuan Su,  E. J. Sundstrom,  Zhen Tao,  J. Thirman,  T. Tsuchimochi,  
 N. M. Tubman,  S. P. Veccham,  O. Vydrov,  J. Wenzel,  J. Witte,  A. Yamada,  
 Kun Yao,  S. Yeganeh,  S. R. Yost,  A. Zech,  Igor Ying Zhang,  Xing Zhang,  
 Yu Zhang,  D. Zuev,  A. Aspuru-Guzik,  A. T. Bell,  N. A. Besley,  
 K. B. Bravaya,  B. R. Brooks,  D. Casanova,  Jeng-Da Chai,  S. Coriani,  
 C. J. Cramer,  A. E. DePrince, III,  R. A. DiStasio Jr.,  A. Dreuw,  
 B. D. Dunietz,  T. R. Furlani,  W. A. Goddard III,  S. Grimme,  
 S. Hammes-Schiffer,  T. Head-Gordon,  W. J. Hehre,  Chao-Ping Hsu,  
 T.-C. Jagau,  Yousung Jung,  A. Klamt,  Jing Kong,  D. S. Lambrecht,  
 WanZhen Liang,  N. J. Mayhall,  C. W. McCurdy,  J. B. Neaton,  T. Neudecker,  
 C. Ochsenfeld,  J. A. Parkhill,  R. Peverati,  V. A. Rassolov,  Yihan Shao,  
 L. V. Slipchenko,  R. P. Steele,  J. E. Subotnik,  A. J. W. Thom,  
 A. Tkatchenko,  D. G. Truhlar,  T. Van Voorhis,  T. A. Wesolowski,  
 K. B. Whaley,  H. L. Woodcock III,  P. M. Zimmerman,  S. Faraji,  
 P. M. W. Gill,  M. Head-Gordon,  J. M. Herbert,  A. I. Krylov

 Additional authors since Version 5.4.0: 
 Chandrima Chakravarty,  L. Cunha,  R. Kang,  Yongbin Kim,  S. Kotaru,  
 Shaozhi Li,  Xiangyuan Li,  F. Matz,  A. Molle,  V. Parravicini,  
 Haisheng Ren,  Hengyuan Shen,  Yingli Su,  Hung-Yi Tsai,  C. Utku,  
 Fang Wang,  Jeff Yang,  F. Zeller

 Contributors to earlier versions of Q-Chem not listed above: 
 R. D. Adamson,  B. Austin,  R. Baer,  J. Baker,  G. J. O. Beran,  
 K. Brandhorst,  S. T. Brown,  E. F. C. Byrd,  Arup K. Chakraborty,  
 G. K. L. Chan,  Chun-Min Chang,  Yunqing Chen,  C.-L. Cheng,  
 Siu Hung Chien,  D. M. Chipman,  D. L. Crittenden,  H. Dachsel,  
 R. J. Doerksen,  A. D. Dutoi,  R. G. Edgar,  J. Fosso-Tande,  
 L. Fusti-Molnar,  D. Ghosh,  A. Ghysels,  A. Golubeva-Zadorozhnaya,  
 J. Gonthier,  M. S. Gordon,  S. R. Gwaltney,  G. Hawkins,  J. E. Herr,  
 A. Heyden,  S. Hirata,  E. G. Hohenstein,  G. Kedziora,  F. J. Keil,  
 C. Kelley,  Jihan Kim,  R. A. King,  R. Z. Khaliullin,  P. P. Korambath,  
 W. Kurlancheek,  A. Laurent,  A. M. Lee,  M. S. Lee,  S. V. Levchenko,  
 Ching Yeh Lin,  D. Liotard,  E. Livshits,  R. C. Lochan,  I. Lotan,  
 L. A. Martinez-Martinez,  P. E. Maslen,  N. Nair,  D. P. O'Neill,  
 D. Neuhauser,  E. Neuscamman,  C. M. Oana,  R. Olivares-Amaya,  R. Olson,  
 T. M. Perrine,  B. Peters,  P. A. Pieniazek,  A. Prociuk,  Y. M. Rhee,  
 J. Ritchie,  M. A. Rohrdanz,  E. Rosta,  N. J. Russ,  H. F. Schaefer III,  
 M. W. Schmidt,  N. E. Schultz,  S. Sharma,  N. Shenvi,  C. D. Sherrill,  
 A. C. Simmonett,  A. Sodt,  T. Stein,  D. Stuck,  K. S. Thanthiriwatte,  
 V. Vanovschi,  L. Vogt,  Tao Wang,  A. Warshel,  M. A. Watson,  
 C. F. Williams,  Q. Wu,  X. Xu,  Jun Yang,  W. Zhang,  Yan Zhao

   Please cite Q-Chem as follows:
  "Software for the frontiers of quantum chemistry:
   An overview of developments in the Q-Chem 5 package"
   J. Chem. Phys. 155, 084801 (2021)
   https://doi.org/10.1063/5.0055522 (open access)

 Q-Chem 5.4.2 for Intel X86 EM64T Linux

 Parts of Q-Chem use Armadillo 9.900.5 (Nocturnal Misbehaviour).
 http://arma.sourceforge.net/

 Q-Chem begins on Sat Dec 30 20:08:55 2023  

 Host: 
0

     Scratch files written to /scratch/qchem230776//
 Dec1321 |scratch|qcdevops|jenkins|workspace|build_RNUM 5684   
 Processing $rem in /home/kchung25/qchem/5.4.0/config/preferences:
 Processing $rem in /home/kchung25/.qchemrc:

 Q-Chem warning in module libgen/rem_setup.C, line 3079:

 Neither GIA nor STOLL is specified by user. Use STOLL as the default


 Checking the input file for inconsistencies... 	...done.

--------------------------------------------------------------
User input:
--------------------------------------------------------------
$molecule
-1 1
--
-1 1
Br     3.116108     0.000000     0.000000
--
0 1
O      0.000000    -0.112811     1.567716
H     -0.349529     0.578740     1.000386
H      0.921124    -0.169041     1.237825
O      0.000000     0.112811    -1.567716
H     -0.349529    -0.578740    -1.000386
H      0.921124     0.169041    -1.237825
$end

$rem
JOBTYPE          eda
EDA2             1
METHOD           wB97M-V
BASIS            def2-TZVPPD
SYMMETRY         false
MEM_TOTAL        50000
MEM_STATIC       10000
THRESH           14
SCF_CONVERGENCE  8
XC_GRID          000099000590
NL_GRID          1
EDA_CLS_DISP     true
FD_MAT_VEC_PROD  FALSE
$end
--------------------------------------------------------------
 ----------------------------------------------------------------
             Standard Nuclear Orientation (Angstroms)
    I     Atom           X                Y                Z
 ----------------------------------------------------------------
    1      Br     -0.0000000000     0.0000000000     1.1123449091
    2      O      -0.0375390181     1.5713212913    -2.0037630909
    3      H       0.6260244045     0.9714965680    -2.3532920909
    4      H      -0.1095164220     1.2445046178    -1.0826390909
    5      O       0.0375390181    -1.5713212913    -2.0037630909
    6      H      -0.6260244045    -0.9714965680    -2.3532920909
    7      H       0.1095164220    -1.2445046178    -1.0826390909
 ----------------------------------------------------------------
 Molecular Point Group                 C2    NOp =  2
 Largest Abelian Subgroup              C2    NOp =  2
 Nuclear Repulsion Energy =         145.56997023 hartrees
 There are       28 alpha and       28 beta electrons
 Requested basis set is def2-TZVPPD
 There are 75 shells and 205 basis functions

 Q-Chem warning in module libmdc/get_mega.C, line 171:

 Allowed MEM_STATIC has been capped at MEM_STATIC=8191.
 Reduce the value of MEM_STATIC to silence this warning.


 Total QAlloc Memory Limit  50000 MB
 Mega-Array Size      8007 MB
 MEM_STATIC part      8191 MB

                       Distance Matrix (Angstroms)
             Br(  1)   O (  2)   H (  3)   H (  4)   O (  5)   H (  6)
   O (  2)  3.490070
   H (  3)  3.653266  0.960352
   H (  4)  2.525617  0.980030  1.493356
   O (  5)  3.490070  3.143539  2.633326  2.966306
   H (  6)  3.653266  2.633326  2.311460  2.606147  0.960352
   H (  7)  2.525617  2.966306  2.606147  2.498628  0.980030  1.493356

 
 A cutoff of  1.0D-14 yielded   2701 shell pairs
 There are     20517 function pairs (     25647 Cartesian)
 Smallest overlap matrix eigenvalue = 3.09E-04

 Scale SEOQF with 1.000000e-01/1.000000e-01/1.000000e-01

 Standard Electronic Orientation quadrupole field applied
 Nucleus-field energy     =    -0.0000000098 hartrees

 -----------------------------------------------------------------------
  General SCF calculation program by
  Eric Jon Sundstrom, Paul Horn, Yuezhi Mao, Dmitri Zuev, Alec White,
  David Stuck, Shaama M.S., Shane Yost, Joonho Lee, David Small,
  Daniel Levine, Susi Lehtola, Hugh Burton, Evgeny Epifanovsky,
  Bang C. Huynh
 -----------------------------------------------------------------------
================================================================
                 ALMO-EDA with the EDA2 driver                  
================================================================
 The second-generation ALMO-EDA (for DFT):                      
 P. R. Horn, Y. Mao and M. Head-Gordon, PCCP, 18, 23067 (2016)  
 Y. Mao et al. Annu. Rev. Phys. Chem. 72, 641 (2021)            
 Decomposition of the frozen energy:                            
 P. R. Horn, Y. Mao and M. Head-Gordon, JCP, 144, 114107 (2016) 
 FERF model for polarization:                                   
 P. R. Horn and M. Head-Gordon, JCP, 143, 114111 (2015)         
================================================================
 Using eda2 option set 1
 Option set summary: Frozen orbital wavefunction, initial wavefunction decomposition, and nDQ polarization.
--------------------------------
Printing EDA Options
--------------------------------
eda_child_super_basis      0
fragmo_guess_mode          0
child_mp                   1
child_mp_orders            232
cls_elec                   1
cls_disp                   1
scfmi_mode                 1
scfmi_occs                 0
scfmi_virts                0
frz_relax                  0
frz_relax_method           0
dc_pen_start               0
dc_pen_conv                0
dc_pen_increment           0
dc_pen_steps               0
dc_pen_thresh_factor       0
dc_pen_pre_newton_thresh   0
frz_ortho_decomp           1
frz_ortho_decomp_conv      6
plot_mo_ortho_frz          0
frgm_method                2
scfmi_freeze_ss            0
separate_rehyb             0
plot_diff_den              0
eda_nocv                   0
eda_vct_relax              1
disp_free_x                0
disp_free_c                0
eda_bsse                   0
eda_pct_a                  0
eda_covp                   0
--------------------------------
Attempting to make child job directory: /scratch/qchem230776//Frg1/
Attempting to make child job directory: /scratch/qchem230776//Frg2/
Creating input file /scratch/qchem230776/Frg1.input
using default PutDataFrgm: nothing
calling putenv with: QCSCRATCH=/scratch/qchem230776/ 
Spawning Job For Fragment 0
Done Job For Fragment 0
calling putenv with: QCSCRATCH=/scratch 
calling putenv with: QCTHREADS=6 
Creating input file /scratch/qchem230776/Frg2.input
using default PutDataFrgm: nothing
calling putenv with: QCSCRATCH=/scratch/qchem230776/ 
Spawning Job For Fragment 1
Done Job For Fragment 1
calling putenv with: QCSCRATCH=/scratch 
calling putenv with: QCTHREADS=6 
Doing General SCFMI
 Exchange:     0.1500 Hartree-Fock + 1.0000 wB97M-V + LR-HF
 Correlation:  1.0000 wB97M-V
 Using Euler-Maclaurin-Lebedev (99,590) quadrature formula
 Nonlocal Correlation:  VV10 with C = 0.0100 and b = 6.00 and scale = 1.00000
 Grid used for NLC:  SG-1 standard quadrature
performing fock build before subrot guess so that all methods have access
Printing subrot_rss_gen Method Specification:
Occupied Subspace Method is 0
Virtual Subspace Method is 0
Energy of the unrelaxed supersystem initial determinant -2726.992110277428
write pseudocanon occs and virts to disk
write pseudocanon orbital energies to disk
Tolerance of ortho_decomp_scf: 1.00e-06
GDM subspace size: 20
Beginning the Orthogonal Decomposition of the Initial Supersystem Wavefunction
    1   -2726.8886997748      3.94e-01     ortho_decomp Preconditoned Steepest Descent
    2   -2726.9138563197      2.40e-03     ortho_decomp BFGS Step
    3   -2726.9138789482      2.81e-04     ortho_decomp BFGS Step
    4   -2726.9138790446      8.24e-06     ortho_decomp BFGS Step
    5   -2726.9138790447      2.00e-07     ortho_decomp 00000 Convergence criterion met
 Hartree-Fock
 Hartree-Fock
 Hartree-Fock
 Exchange:     0.1500 Hartree-Fock + 1.0000 wB97M-V + LR-HF
 Correlation:  1.0000 wB97M-V
 Using Euler-Maclaurin-Lebedev (99,590) quadrature formula
 Nonlocal Correlation:  VV10 with C = 0.0100 and b = 6.00 and scale = 1.00000
 Grid used for NLC:  SG-1 standard quadrature
 Long-range K will be added via erf
 Coulomb attenuation parameter = 0.3 bohr**(-1)
 Nonlocal correlation = 2.328358949704e-01
Doing General SCFMI
 Exchange:     0.1500 Hartree-Fock + 1.0000 wB97M-V + LR-HF
 Correlation:  1.0000 wB97M-V
 Using Euler-Maclaurin-Lebedev (99,590) quadrature formula
 Nonlocal Correlation:  VV10 with C = 0.0100 and b = 6.00 and scale = 1.00000
 Grid used for NLC:  SG-1 standard quadrature
performing fock build at end of subrot_r(subrot) constructor so that all methods have access
<S^2> of initial wavefunction before polarization iterations 0.0000000000
Beginning iterations for the determination of the polarized wavefunction
Energy prior to optimization (guess energy) = -2726.992110277429
Begin Timing: Total SCF Calculation
begin iterations for algorithm: DIIS         
the SCF tolerance is set to 1.00e-08
    1   -2726.9921102774      7.49e-04     00000 
    2   -2726.9995489835      2.44e-04     00000 
    3   -2727.0001392833      8.93e-05     00000 
    4   -2727.0002501426      3.92e-05     00000 
    5   -2727.0002680483      1.55e-05     00000 
    6   -2727.0002732739      5.90e-06     00000 
    7   -2727.0002740306      2.61e-06     00000 
    8   -2727.0002741575      1.25e-06     00000 
    9   -2727.0002741668      6.57e-07     00000 
   10   -2727.0002741688      2.70e-07     00000 
   11   -2727.0002741692      9.62e-08     00000 
   12   -2727.0002741693      3.22e-08     00000 
   13   -2727.0002741693      7.68e-09     00000 Convergence criterion met
write pseudocanon occs and virts to disk
write pseudocanon orbital energies to disk
Timing for Total SCF: 37.00s (wall), 223.03s (cpu)
<S^2> of polarized wavefunction after polarization iterations 0.0000000000
relaxing scfmi constraint to allow all rotations in the entire AO span
Doing General SCFMI
 Exchange:     0.1500 Hartree-Fock + 1.0000 wB97M-V + LR-HF
 Correlation:  1.0000 wB97M-V
 Using Euler-Maclaurin-Lebedev (99,590) quadrature formula
 Nonlocal Correlation:  VV10 with C = 0.0100 and b = 6.00 and scale = 1.00000
 Grid used for NLC:  SG-1 standard quadrature
performing fock build at end of subrot_r(subrot) constructor so that all methods have access
<S^2> of polarized wavefunction before ct-allowed iterations 0.0000000000
Beginning iterations for the determination of the CT-Allowed wavefunction
Energy prior to optimization (guess energy) = -2727.000274169292
Begin Timing: Total SCF Calculation
begin iterations for algorithm: DIIS         
the SCF tolerance is set to 1.00e-08
    1   -2727.0002741693      6.49e-04     00000 
    2   -2727.0075515195      8.32e-05     00000 
    3   -2727.0079037815      3.50e-05     00000 
    4   -2727.0079269925      1.97e-05     00000 
    5   -2727.0079337763      3.72e-06     00000 
    6   -2727.0079341177      1.37e-06     00000 
    7   -2727.0079341896      3.41e-07     00000 
    8   -2727.0079341970      7.12e-08     00000 
    9   -2727.0079341975      1.99e-08     00000 
   10   -2727.0079341975      3.78e-09     00000 Convergence criterion met
write pseudocanon occs and virts to disk
write pseudocanon orbital energies to disk
Timing for Total SCF: 27.00s (wall), 167.47s (cpu)
<S^2> of ct_allowed wavefunction after ct-allowed iterations 0.0000000000

================================
        Results of EDA2         
================================
Basic EDA Quantities
--------------------
Fragment Energies (Ha):
1-2574.0946475099
2 -152.8728627966
--------------------
  E_prp (kJ/mol) = 0.0000
  E_frz (kJ/mol) = -64.5880
  E_pol (kJ/mol) = -21.4346
  E_vct (kJ/mol) = -20.1116
  E_int (kJ/mol) = -106.1342
--------------------


Decomposition of frozen interaction energy
--------------------
  --------------------
  Orthogonal Frozen Decomposition:
  --------------------
     E_elec   (ELEC)   (kJ/mol) = -154.2443
     E_pauli  (PAULI)  (kJ/mol) = 107.5718
     E_disp   (DISP)   (kJ/mol) = -17.9155
  --------------------
  Classical Frozen Decomposition:
  --------------------
     E_cls_elec  (CLS ELEC)  (kJ/mol) = -110.3419
     E_mod_pauli (MOD PAULI) (kJ/mol) = 63.3613 (FRZ - CLS ELEC - CLS DISP)
     E_cls_disp  (CLS DISP)  (kJ/mol) = -17.6074
  --------------------
--------------------

Simplified EDA Summary (kJ/mol)
--------------------
 PREPARATION      0.0000
 FROZEN           -64.5880 (ELEC + PAULI + DISP)
[ELEC + PAULI = -46.9806, DISP = -17.6074]
 POLARIZATION    -21.4346
 CHARGE TRANSFER -20.1116
 TOTAL           -106.1342     (PRP + FRZ + POL + CT)
--------------------
 
 --------------------------------------------------------------
             Orbital Energies (a.u.) and Symmetries
 --------------------------------------------------------------
 
 Alpha MOs, Restricted
 -- Occupied --                  
-483.25  -62.55  -56.24  -56.24  -56.24  -19.18  -19.18   -8.63
  1 A     2 A     3 A     1 B     2 B     3 B     4 A     5 A                  
 -6.414  -6.414  -6.413  -2.496  -2.496  -2.496  -2.495  -2.495
  6 A     4 B     5 B     7 A     6 B     7 B     8 A     9 A                  
 -0.990  -0.983  -0.624  -0.478  -0.473  -0.369  -0.354  -0.283
 10 A     8 B    11 A    12 A     9 B    13 A    10 B    14 A                  
 -0.271  -0.165  -0.161  -0.159
 11 B    15 A    12 B    13 B                                                  
 -- Virtual --                   
  0.155   0.170   0.181   0.184   0.209   0.211   0.213   0.231
 16 A    14 B    17 A    15 B    16 B    18 A    17 B    19 A                  
  0.234   0.253   0.299   0.316   0.339   0.341   0.347   0.361
 20 A    18 B    19 B    21 A    22 A    20 B    21 B    23 A                  
  0.368   0.386   0.394   0.409   0.431   0.438   0.451   0.458
 24 A    25 A    22 B    26 A    23 B    27 A    24 B    28 A                  
  0.479   0.494   0.496   0.503   0.516   0.524   0.548   0.583
 25 B    29 A    26 B    30 A    31 A    27 B    28 B    32 A                  
  0.588   0.639   0.647   0.657   0.664   0.694   0.699   0.729
 29 B    30 B    31 B    33 A    34 A    32 B    35 A    33 B                  
  0.737   0.745   0.747   0.759   0.763   0.767   0.784   0.801
 36 A    34 B    37 A    38 A    35 B    39 A    36 B    40 A                  
  0.808   0.816   0.886   0.893   0.910   0.911   0.963   0.964
 37 B    41 A    42 A    38 B    39 B    43 A    44 A    40 B                  
  0.989   1.026   1.088   1.094   1.111   1.192   1.212   1.264
 45 A    41 B    42 B    46 A    43 B    47 A    44 B    48 A                  
  1.269   1.282   1.326   1.338   1.362   1.425   1.461   1.468
 45 B    49 A    46 B    50 A    47 B    51 A    48 B    52 A                  
  1.483   1.556   1.588   1.651   1.817   1.819   1.832   1.844
 49 B    53 A    50 B    54 A    55 A    56 A    51 B    57 A                  
  1.850   1.866   1.874   1.889   1.893   1.909   2.014   2.060
 52 B    53 B    54 B    55 B    58 A    59 A    56 B    60 A                  
  2.085   2.090   2.116   2.146   2.154   2.179   2.200   2.287
 57 B    58 B    61 A    62 A    59 B    63 A    60 B    61 B                  
  2.304   2.350   2.385   2.475   2.504   2.695   2.762   2.947
 64 A    65 A    62 B    66 A    63 B    64 B    67 A    68 A                  
  2.989   3.064   3.159   3.383   3.409   3.417   3.434   3.466
 65 B    69 A    66 B    70 A    71 A    67 B    68 B    72 A                  
  3.472   3.579   3.613   3.639   3.645   3.667   3.701   3.804
 69 B    70 B    73 A    71 B    72 B    74 A    75 A    76 A                  
  3.824   3.874   3.876   4.002   4.099   4.102   4.154   4.225
 73 B    74 B    77 A    78 A    79 A    75 B    76 B    80 A                  
  4.237   4.261   4.302   4.348   4.379   4.387   4.446   4.480
 77 B    81 A    78 B    82 A    79 B    80 B    83 A    84 A                  
  4.488   4.494   4.516   4.544   4.551   4.615   4.891   4.899
 85 A    86 A    81 B    82 B    87 A    83 B    88 A    84 B                  
  4.979   5.004   5.122   5.167   5.362   5.464   5.863   5.873
 85 B    89 A    90 A    86 B    91 A    87 B    88 B    92 A                  
  6.482   6.484   6.645   6.649   6.723   6.728   6.748   6.758
 89 B    93 A    94 A    90 B    95 A    91 B    96 A    92 B                  
  6.841   6.844   6.951   6.992   7.042   7.063   7.190   7.235
 93 B    97 A    94 B    98 A    99 A    95 B   100 A    96 B                  
  7.688   7.700   7.821   7.885   7.918   7.945   7.964  44.572
101 A    97 B   102 A    98 B   103 A    99 B   104 A   105 A                  
 44.606
100 B                                                                          
 
 Beta MOs, Restricted
 -- Occupied --                  
-483.25  -62.55  -56.24  -56.24  -56.24  -19.18  -19.18   -8.63
  1 A     2 A     3 A     1 B     2 B     3 B     4 A     5 A                  
 -6.414  -6.414  -6.413  -2.496  -2.496  -2.496  -2.495  -2.495
  6 A     4 B     5 B     7 A     6 B     7 B     8 A     9 A                  
 -0.990  -0.983  -0.624  -0.478  -0.473  -0.369  -0.354  -0.283
 10 A     8 B    11 A    12 A     9 B    13 A    10 B    14 A                  
 -0.271  -0.165  -0.161  -0.159
 11 B    15 A    12 B    13 B                                                  
 -- Virtual --                   
  0.155   0.170   0.181   0.184   0.209   0.211   0.213   0.231
 16 A    14 B    17 A    15 B    16 B    18 A    17 B    19 A                  
  0.234   0.253   0.299   0.316   0.339   0.341   0.347   0.361
 20 A    18 B    19 B    21 A    22 A    20 B    21 B    23 A                  
  0.368   0.386   0.394   0.409   0.431   0.438   0.451   0.458
 24 A    25 A    22 B    26 A    23 B    27 A    24 B    28 A                  
  0.479   0.494   0.496   0.503   0.516   0.524   0.548   0.583
 25 B    29 A    26 B    30 A    31 A    27 B    28 B    32 A                  
  0.588   0.639   0.647   0.657   0.664   0.694   0.699   0.729
 29 B    30 B    31 B    33 A    34 A    32 B    35 A    33 B                  
  0.737   0.745   0.747   0.759   0.763   0.767   0.784   0.801
 36 A    34 B    37 A    38 A    35 B    39 A    36 B    40 A                  
  0.808   0.816   0.886   0.893   0.910   0.911   0.963   0.964
 37 B    41 A    42 A    38 B    39 B    43 A    44 A    40 B                  
  0.989   1.026   1.088   1.094   1.111   1.192   1.212   1.264
 45 A    41 B    42 B    46 A    43 B    47 A    44 B    48 A                  
  1.269   1.282   1.326   1.338   1.362   1.425   1.461   1.468
 45 B    49 A    46 B    50 A    47 B    51 A    48 B    52 A                  
  1.483   1.556   1.588   1.651   1.817   1.819   1.832   1.844
 49 B    53 A    50 B    54 A    55 A    56 A    51 B    57 A                  
  1.850   1.866   1.874   1.889   1.893   1.909   2.014   2.060
 52 B    53 B    54 B    55 B    58 A    59 A    56 B    60 A                  
  2.085   2.090   2.116   2.146   2.154   2.179   2.200   2.287
 57 B    58 B    61 A    62 A    59 B    63 A    60 B    61 B                  
  2.304   2.350   2.385   2.475   2.504   2.695   2.762   2.947
 64 A    65 A    62 B    66 A    63 B    64 B    67 A    68 A                  
  2.989   3.064   3.159   3.383   3.409   3.417   3.434   3.466
 65 B    69 A    66 B    70 A    71 A    67 B    68 B    72 A                  
  3.472   3.579   3.613   3.639   3.645   3.667   3.701   3.804
 69 B    70 B    73 A    71 B    72 B    74 A    75 A    76 A                  
  3.824   3.874   3.876   4.002   4.099   4.102   4.154   4.225
 73 B    74 B    77 A    78 A    79 A    75 B    76 B    80 A                  
  4.237   4.261   4.302   4.348   4.379   4.387   4.446   4.480
 77 B    81 A    78 B    82 A    79 B    80 B    83 A    84 A                  
  4.488   4.494   4.516   4.544   4.551   4.615   4.891   4.899
 85 A    86 A    81 B    82 B    87 A    83 B    88 A    84 B                  
  4.979   5.004   5.122   5.167   5.362   5.464   5.863   5.873
 85 B    89 A    90 A    86 B    91 A    87 B    88 B    92 A                  
  6.482   6.484   6.645   6.649   6.723   6.728   6.748   6.758
 89 B    93 A    94 A    90 B    95 A    91 B    96 A    92 B                  
  6.841   6.844   6.951   6.992   7.042   7.063   7.190   7.235
 93 B    97 A    94 B    98 A    99 A    95 B   100 A    96 B                  
  7.688   7.700   7.821   7.885   7.918   7.945   7.964  44.572
101 A    97 B   102 A    98 B   103 A    99 B   104 A   105 A                  
 44.606
100 B                                                                          
 --------------------------------------------------------------
 
          Ground-State Mulliken Net Atomic Charges

     Atom                 Charge (a.u.)
  ----------------------------------------
      1 Br                   -0.852385
      2 O                    -0.494234
      3 H                     0.184568
      4 H                     0.235859
      5 O                    -0.494234
      6 H                     0.184568
      7 H                     0.235859
  ----------------------------------------
  Sum of atomic charges =    -1.000000

 -----------------------------------------------------------------
                    Cartesian Multipole Moments
 -----------------------------------------------------------------
    Charge (ESU x 10^10)
                -4.8032
    Dipole Moment (Debye)
         X      -0.0000      Y      -0.0000      Z      -1.3071
       Tot       1.3071
    Quadrupole Moments (Debye-Ang)
        XX     -37.1198     XY       1.1862     YY     -47.7124
        XZ      -0.0000     YZ       0.0000     ZZ     -49.3379
    Octopole Moments (Debye-Ang^2)
       XXX      -0.0000    XXY      -0.0000    XYY      -0.0000
       YYY      -0.0000    XXZ       1.0980    XYZ      -4.6904
       YYZ      27.7060    XZZ      -0.0000    YZZ       0.0000
       ZZZ      16.6633
    Hexadecapole Moments (Debye-Ang^3)
      XXXX     -58.4828   XXXY       0.7372   XXYY     -53.1147
      XYYY      -3.2126   YYYY    -300.2869   XXXZ      -0.0000
      XXYZ      -0.0000   XYYZ       0.0000   YYYZ      -0.0000
      XXZZ     -99.4829   XYZZ      13.6720   YYZZ    -190.0813
      XZZZ      -0.0000   YZZZ       0.0000   ZZZZ    -581.5153
 -----------------------------------------------------------------
 Total job time:  209.10s(wall), 687.81s(cpu) 
 Sat Dec 30 20:12:24 2023

        *************************************************************
        *                                                           *
        *  Thank you very much for using Q-Chem.  Have a nice day.  *
        *                                                           *
        *************************************************************


