
Running Job 1 of 1 049_F-Water_Deg00_-60_almo.in
qchem 049_F-Water_Deg00_-60_almo.in_423227.0 /scratch/qchem423227/ 6
/home/kchung25/qchem/5.4.0/exe/qcprog.exe_s 049_F-Water_Deg00_-60_almo.in_423227.0 /scratch/qchem423227/
                  Welcome to Q-Chem
     A Quantum Leap Into The Future Of Chemistry


 Q-Chem 5.4, Q-Chem, Inc., Pleasanton, CA (2021)

 E. Epifanovsky,  A. T. B. Gilbert,  Xintian Feng,  Joonho Lee,  Yuezhi Mao,  
 N. Mardirossian,  P. Pokhilko,  A. White,  M. Wormit,  M. P. Coons,  
 A. L. Dempwolff,  Zhengting Gan,  D. Hait,  P. R. Horn,  L. D. Jacobson,  
 I. Kaliman,  J. Kussmann,  A. W. Lange,  Ka Un Lao,  D. S. Levine,  Jie Liu,  
 S. C. McKenzie,  A. F. Morrison,  K. Nanda,  F. Plasser,  D. R. Rehn,  
 M. L. Vidal,  Zhi-Qiang You,  Ying Zhu,  B. Alam,  B. Albrecht,  
 A. Aldossary,  E. Alguire,  J. H. Andersen,  D. Barton,  K. Begam,  A. Behn,  
 Y. A. Bernard,  E. J. Berquist,  H. Burton,  A. Carreras,  K. Carter-Fenk,  
 Romit Chakraborty,  A. D. Chien,  K. D. Closser,  V. Cofer-Shabica,  
 S. Dasgupta,  Jia Deng,  M. de Wergifosse,  M. Diedenhofen,  Hainam Do,  
 S. Ehlert,  Po-Tung Fang,  S. Fatehi,  Qingguo Feng,  T. Friedhoff,  
 J. Gayvert,  Qinghui Ge,  G. Gidofalvi,  M. Goldey,  J. Gomes,  
 C. Gonzalez-Espinoza,  S. Gulania,  A. Gunina,  M. W. D. Hanson-Heine,  
 P. H. P. Harbach,  A. W. Hauser,  M. F. Herbst,  M. Hernandez Vera,  
 M. Hodecker,  Z. C. Holden,  S. Houck,  Xunkun Huang,  Kerwin Hui,  
 B. C. Huynh,  M. Ivanov,  Hyunjun Ji,  Hanjie Jiang,  B. Kaduk,  S. Kaehler,  
 K. Khistyaev,  Jaehoon Kim,  P. Klunzinger,  Z. Koczor-Benda,  
 Joong Hoon Koh,  D. Kosenkov,  L. Koulias,  T. Kowalczyk,  C. M. Krauter,  
 K. Kue,  A. Kunitsa,  T. Kus,  A. Landau,  K. V. Lawler,  D. Lefrancois,  
 S. Lehtola,  Rain Li,  Yi-Pei Li,  Jiashu Liang,  M. Liebenthal,  
 Hung-Hsuan Lin,  You-Sheng Lin,  Fenglai Liu,  Kuan-Yu Liu,  
 M. Loipersberger,  A. Luenser,  A. Manjanath,  P. Manohar,  E. Mansoor,  
 S. F. Manzer,  Shan-Ping Mao,  A. V. Marenich,  T. Markovich,  S. Mason,  
 S. A. Maurer,  P. F. McLaughlin,  M. F. S. J. Menger,  J.-M. Mewes,  
 S. A. Mewes,  P. Morgante,  J. W. Mullinax,  K. J. Oosterbaan,  G. Paran,  
 Alexander C. Paul,  Suranjan K. Paul,  F. Pavosevic,  Zheng Pei,  S. Prager,  
 E. I. Proynov,  E. Ramos,  B. Rana,  A. E. Rask,  A. Rettig,  R. M. Richard,  
 F. Rob,  E. Rossomme,  T. Scheele,  M. Scheurer,  M. Schneider,  
 N. Sergueev,  S. M. Sharada,  W. Skomorowski,  D. W. Small,  C. J. Stein,  
 Yu-Chuan Su,  E. J. Sundstrom,  Zhen Tao,  J. Thirman,  T. Tsuchimochi,  
 N. M. Tubman,  S. P. Veccham,  O. Vydrov,  J. Wenzel,  J. Witte,  A. Yamada,  
 Kun Yao,  S. Yeganeh,  S. R. Yost,  A. Zech,  Igor Ying Zhang,  Xing Zhang,  
 Yu Zhang,  D. Zuev,  A. Aspuru-Guzik,  A. T. Bell,  N. A. Besley,  
 K. B. Bravaya,  B. R. Brooks,  D. Casanova,  Jeng-Da Chai,  S. Coriani,  
 C. J. Cramer,  A. E. DePrince, III,  R. A. DiStasio Jr.,  A. Dreuw,  
 B. D. Dunietz,  T. R. Furlani,  W. A. Goddard III,  S. Grimme,  
 S. Hammes-Schiffer,  T. Head-Gordon,  W. J. Hehre,  Chao-Ping Hsu,  
 T.-C. Jagau,  Yousung Jung,  A. Klamt,  Jing Kong,  D. S. Lambrecht,  
 WanZhen Liang,  N. J. Mayhall,  C. W. McCurdy,  J. B. Neaton,  T. Neudecker,  
 C. Ochsenfeld,  J. A. Parkhill,  R. Peverati,  V. A. Rassolov,  Yihan Shao,  
 L. V. Slipchenko,  R. P. Steele,  J. E. Subotnik,  A. J. W. Thom,  
 A. Tkatchenko,  D. G. Truhlar,  T. Van Voorhis,  T. A. Wesolowski,  
 K. B. Whaley,  H. L. Woodcock III,  P. M. Zimmerman,  S. Faraji,  
 P. M. W. Gill,  M. Head-Gordon,  J. M. Herbert,  A. I. Krylov

 Additional authors since Version 5.4.0: 
 Chandrima Chakravarty,  L. Cunha,  R. Kang,  Yongbin Kim,  S. Kotaru,  
 Shaozhi Li,  Xiangyuan Li,  F. Matz,  A. Molle,  V. Parravicini,  
 Haisheng Ren,  Hengyuan Shen,  Yingli Su,  Hung-Yi Tsai,  C. Utku,  
 Fang Wang,  Jeff Yang,  F. Zeller

 Contributors to earlier versions of Q-Chem not listed above: 
 R. D. Adamson,  B. Austin,  R. Baer,  J. Baker,  G. J. O. Beran,  
 K. Brandhorst,  S. T. Brown,  E. F. C. Byrd,  Arup K. Chakraborty,  
 G. K. L. Chan,  Chun-Min Chang,  Yunqing Chen,  C.-L. Cheng,  
 Siu Hung Chien,  D. M. Chipman,  D. L. Crittenden,  H. Dachsel,  
 R. J. Doerksen,  A. D. Dutoi,  R. G. Edgar,  J. Fosso-Tande,  
 L. Fusti-Molnar,  D. Ghosh,  A. Ghysels,  A. Golubeva-Zadorozhnaya,  
 J. Gonthier,  M. S. Gordon,  S. R. Gwaltney,  G. Hawkins,  J. E. Herr,  
 A. Heyden,  S. Hirata,  E. G. Hohenstein,  G. Kedziora,  F. J. Keil,  
 C. Kelley,  Jihan Kim,  R. A. King,  R. Z. Khaliullin,  P. P. Korambath,  
 W. Kurlancheek,  A. Laurent,  A. M. Lee,  M. S. Lee,  S. V. Levchenko,  
 Ching Yeh Lin,  D. Liotard,  E. Livshits,  R. C. Lochan,  I. Lotan,  
 L. A. Martinez-Martinez,  P. E. Maslen,  N. Nair,  D. P. O'Neill,  
 D. Neuhauser,  E. Neuscamman,  C. M. Oana,  R. Olivares-Amaya,  R. Olson,  
 T. M. Perrine,  B. Peters,  P. A. Pieniazek,  A. Prociuk,  Y. M. Rhee,  
 J. Ritchie,  M. A. Rohrdanz,  E. Rosta,  N. J. Russ,  H. F. Schaefer III,  
 M. W. Schmidt,  N. E. Schultz,  S. Sharma,  N. Shenvi,  C. D. Sherrill,  
 A. C. Simmonett,  A. Sodt,  T. Stein,  D. Stuck,  K. S. Thanthiriwatte,  
 V. Vanovschi,  L. Vogt,  Tao Wang,  A. Warshel,  M. A. Watson,  
 C. F. Williams,  Q. Wu,  X. Xu,  Jun Yang,  W. Zhang,  Yan Zhao

   Please cite Q-Chem as follows:
  "Software for the frontiers of quantum chemistry:
   An overview of developments in the Q-Chem 5 package"
   J. Chem. Phys. 155, 084801 (2021)
   https://doi.org/10.1063/5.0055522 (open access)

 Q-Chem 5.4.2 for Intel X86 EM64T Linux

 Parts of Q-Chem use Armadillo 9.900.5 (Nocturnal Misbehaviour).
 http://arma.sourceforge.net/

 Q-Chem begins on Wed Jan  3 17:49:44 2024  

 Host: 
0

     Scratch files written to /scratch/qchem423227//
 Dec1321 |scratch|qcdevops|jenkins|workspace|build_RNUM 5684   
 Processing $rem in /home/kchung25/qchem/5.4.0/config/preferences:
 Processing $rem in /home/kchung25/.qchemrc:

 Q-Chem warning in module libgen/rem_setup.C, line 3079:

 Neither GIA nor STOLL is specified by user. Use STOLL as the default


 Checking the input file for inconsistencies... 	...done.

--------------------------------------------------------------
User input:
--------------------------------------------------------------
$molecule
-1 1
--
0 1
O      0.000000     0.000000     0.000000
H     -0.897287     0.334379     0.000000
H      0.561815     0.899651     0.000000
--
-1 1
F      2.426389     0.000000     0.000000
$end

$rem
JOBTYPE          eda
EDA2             1
METHOD           wB97M-V
BASIS            def2-TZVPPD
SYMMETRY         false
MEM_TOTAL        50000
MEM_STATIC       10000
THRESH           14
SCF_CONVERGENCE  8
XC_GRID          000099000590
NL_GRID          1
EDA_CLS_DISP     true
FD_MAT_VEC_PROD  FALSE
$end
--------------------------------------------------------------
 ----------------------------------------------------------------
             Standard Nuclear Orientation (Angstroms)
    I     Atom           X                Y                Z
 ----------------------------------------------------------------
    1      O       1.1280639899    -0.1113669946     0.0000000000
    2      H       2.0383254231     0.1858827306     0.0000000000
    3      H       0.6036671914     0.8105961358    -0.0000000000
    4      F      -1.2962782815    -0.0117269900    -0.0000000000
 ----------------------------------------------------------------
 Molecular Point Group                 Cs    NOp =  2
 Largest Abelian Subgroup              Cs    NOp =  2
 Nuclear Repulsion Energy =          28.17935463 hartrees
 There are       10 alpha and       10 beta electrons
 Requested basis set is def2-TZVPPD
 There are 42 shells and 114 basis functions

 Q-Chem warning in module libmdc/get_mega.C, line 171:

 Allowed MEM_STATIC has been capped at MEM_STATIC=8191.
 Reduce the value of MEM_STATIC to silence this warning.


 Total QAlloc Memory Limit  50000 MB
 Mega-Array Size      8007 MB
 MEM_STATIC part      8191 MB

                       Distance Matrix (Angstroms)
             O (  1)   H (  2)   H (  3)
   H (  2)  0.957566
   H (  3)  1.060664  1.564772
   F (  4)  2.426389  3.340454  2.070268
 
 A cutoff of  1.0D-14 yielded    886 shell pairs
 There are      6652 function pairs (      8429 Cartesian)
 Smallest overlap matrix eigenvalue = 5.83E-04

 Scale SEOQF with 1.000000e-01/1.000000e-01/1.000000e-01

 Standard Electronic Orientation quadrupole field applied
 Nucleus-field energy     =     0.0000000011 hartrees

 -----------------------------------------------------------------------
  General SCF calculation program by
  Eric Jon Sundstrom, Paul Horn, Yuezhi Mao, Dmitri Zuev, Alec White,
  David Stuck, Shaama M.S., Shane Yost, Joonho Lee, David Small,
  Daniel Levine, Susi Lehtola, Hugh Burton, Evgeny Epifanovsky,
  Bang C. Huynh
 -----------------------------------------------------------------------
================================================================
                 ALMO-EDA with the EDA2 driver                  
================================================================
 The second-generation ALMO-EDA (for DFT):                      
 P. R. Horn, Y. Mao and M. Head-Gordon, PCCP, 18, 23067 (2016)  
 Y. Mao et al. Annu. Rev. Phys. Chem. 72, 641 (2021)            
 Decomposition of the frozen energy:                            
 P. R. Horn, Y. Mao and M. Head-Gordon, JCP, 144, 114107 (2016) 
 FERF model for polarization:                                   
 P. R. Horn and M. Head-Gordon, JCP, 143, 114111 (2015)         
================================================================
 Using eda2 option set 1
 Option set summary: Frozen orbital wavefunction, initial wavefunction decomposition, and nDQ polarization.
--------------------------------
Printing EDA Options
--------------------------------
eda_child_super_basis      0
fragmo_guess_mode          0
child_mp                   1
child_mp_orders            232
cls_elec                   1
cls_disp                   1
scfmi_mode                 1
scfmi_occs                 0
scfmi_virts                0
frz_relax                  0
frz_relax_method           0
dc_pen_start               0
dc_pen_conv                0
dc_pen_increment           0
dc_pen_steps               0
dc_pen_thresh_factor       0
dc_pen_pre_newton_thresh   0
frz_ortho_decomp           1
frz_ortho_decomp_conv      6
plot_mo_ortho_frz          0
frgm_method                2
scfmi_freeze_ss            0
separate_rehyb             0
plot_diff_den              0
eda_nocv                   0
eda_vct_relax              1
disp_free_x                0
disp_free_c                0
eda_bsse                   0
eda_pct_a                  0
eda_covp                   0
--------------------------------
Attempting to make child job directory: /scratch/qchem423227//Frg1/
Attempting to make child job directory: /scratch/qchem423227//Frg2/
Creating input file /scratch/qchem423227/Frg1.input
using default PutDataFrgm: nothing
calling putenv with: QCSCRATCH=/scratch/qchem423227/ 
Spawning Job For Fragment 0
Done Job For Fragment 0
calling putenv with: QCSCRATCH=/scratch 
calling putenv with: QCTHREADS=6 
Creating input file /scratch/qchem423227/Frg2.input
using default PutDataFrgm: nothing
calling putenv with: QCSCRATCH=/scratch/qchem423227/ 
Spawning Job For Fragment 1
Done Job For Fragment 1
calling putenv with: QCSCRATCH=/scratch 
calling putenv with: QCTHREADS=6 
Doing General SCFMI
 Exchange:     0.1500 Hartree-Fock + 1.0000 wB97M-V + LR-HF
 Correlation:  1.0000 wB97M-V
 Using Euler-Maclaurin-Lebedev (99,590) quadrature formula
 Nonlocal Correlation:  VV10 with C = 0.0100 and b = 6.00 and scale = 1.00000
 Grid used for NLC:  SG-1 standard quadrature
performing fock build before subrot guess so that all methods have access
Printing subrot_rss_gen Method Specification:
Occupied Subspace Method is 0
Virtual Subspace Method is 0
Energy of the unrelaxed supersystem initial determinant -176.286072193223
write pseudocanon occs and virts to disk
write pseudocanon orbital energies to disk
Tolerance of ortho_decomp_scf: 1.00e-06
GDM subspace size: 20
Beginning the Orthogonal Decomposition of the Initial Supersystem Wavefunction
    1    -176.2130908823      4.07e-01     ortho_decomp Preconditoned Steepest Descent
    2    -176.2298455001      9.69e-03     ortho_decomp BFGS Step
    3    -176.2298968625      6.95e-04     ortho_decomp BFGS Step
    4    -176.2298969190      2.23e-05     ortho_decomp BFGS Step
    5    -176.2298969191      5.40e-07     ortho_decomp 00000 Convergence criterion met
 Hartree-Fock
 Hartree-Fock
 Hartree-Fock
 Exchange:     0.1500 Hartree-Fock + 1.0000 wB97M-V + LR-HF
 Correlation:  1.0000 wB97M-V
 Using Euler-Maclaurin-Lebedev (99,590) quadrature formula
 Nonlocal Correlation:  VV10 with C = 0.0100 and b = 6.00 and scale = 1.00000
 Grid used for NLC:  SG-1 standard quadrature
 Long-range K will be added via erf
 Coulomb attenuation parameter = 0.3 bohr**(-1)
 Nonlocal correlation = 8.415828370228e-02
Doing General SCFMI
 Exchange:     0.1500 Hartree-Fock + 1.0000 wB97M-V + LR-HF
 Correlation:  1.0000 wB97M-V
 Using Euler-Maclaurin-Lebedev (99,590) quadrature formula
 Nonlocal Correlation:  VV10 with C = 0.0100 and b = 6.00 and scale = 1.00000
 Grid used for NLC:  SG-1 standard quadrature
performing fock build at end of subrot_r(subrot) constructor so that all methods have access
<S^2> of initial wavefunction before polarization iterations 0.0000000000
Beginning iterations for the determination of the polarized wavefunction
Energy prior to optimization (guess energy) = -176.286072193223
Begin Timing: Total SCF Calculation
begin iterations for algorithm: DIIS         
the SCF tolerance is set to 1.00e-08
    1    -176.2860721932      1.55e-03     00000 
    2    -176.2925793784      1.07e-03     00000 
    3    -176.2939596490      3.97e-04     00000 
    4    -176.2942141245      8.65e-05     00000 
    5    -176.2942403537      4.82e-05     00000 
    6    -176.2942442738      1.74e-05     00000 
    7    -176.2942450310      2.37e-06     00000 
    8    -176.2942450774      5.97e-07     00000 
    9    -176.2942450803      1.27e-07     00000 
   10    -176.2942450805      2.11e-08     00000 
   11    -176.2942450805      4.06e-09     00000 Convergence criterion met
write pseudocanon occs and virts to disk
write pseudocanon orbital energies to disk
Timing for Total SCF: 7.00s (wall), 40.31s (cpu)
<S^2> of polarized wavefunction after polarization iterations 0.0000000000
relaxing scfmi constraint to allow all rotations in the entire AO span
Doing General SCFMI
 Exchange:     0.1500 Hartree-Fock + 1.0000 wB97M-V + LR-HF
 Correlation:  1.0000 wB97M-V
 Using Euler-Maclaurin-Lebedev (99,590) quadrature formula
 Nonlocal Correlation:  VV10 with C = 0.0100 and b = 6.00 and scale = 1.00000
 Grid used for NLC:  SG-1 standard quadrature
performing fock build at end of subrot_r(subrot) constructor so that all methods have access
<S^2> of polarized wavefunction before ct-allowed iterations 0.0000000000
Beginning iterations for the determination of the CT-Allowed wavefunction
Energy prior to optimization (guess energy) = -176.294245080485
Begin Timing: Total SCF Calculation
begin iterations for algorithm: DIIS         
the SCF tolerance is set to 1.00e-08
    1    -176.2942450805      6.12e-04     00000 
    2    -176.2979184474      1.36e-04     00000 
    3    -176.2981664445      1.24e-04     00000 
    4    -176.2982346025      2.90e-05     00000 
    5    -176.2982473732      4.61e-06     00000 
    6    -176.2982481089      3.17e-06     00000 
    7    -176.2982482098      8.59e-07     00000 
    8    -176.2982482245      1.85e-07     00000 
    9    -176.2982482259      3.94e-08     00000 
   10    -176.2982482260      8.99e-09     00000 Convergence criterion met
write pseudocanon occs and virts to disk
write pseudocanon orbital energies to disk
Timing for Total SCF: 6.00s (wall), 36.06s (cpu)
<S^2> of ct_allowed wavefunction after ct-allowed iterations 0.0000000000

================================
        Results of EDA2         
================================
Basic EDA Quantities
--------------------
Fragment Energies (Ha):
1  -76.4283911509
2  -99.8700285040
--------------------
  E_prp (kJ/mol) = 0.0000
  E_frz (kJ/mol) = 32.4186
  E_pol (kJ/mol) = -21.4582
  E_vct (kJ/mol) = -10.5104
  E_int (kJ/mol) = 0.4501
--------------------


Decomposition of frozen interaction energy
--------------------
  --------------------
  Orthogonal Frozen Decomposition:
  --------------------
     E_elec   (ELEC)   (kJ/mol) = -104.1882
     E_pauli  (PAULI)  (kJ/mol) = 150.4841
     E_disp   (DISP)   (kJ/mol) = -13.8773
  --------------------
  Classical Frozen Decomposition:
  --------------------
     E_cls_elec  (CLS ELEC)  (kJ/mol) = -27.5204
     E_mod_pauli (MOD PAULI) (kJ/mol) = 68.9059 (FRZ - CLS ELEC - CLS DISP)
     E_cls_disp  (CLS DISP)  (kJ/mol) = -8.9669
  --------------------
--------------------

Simplified EDA Summary (kJ/mol)
--------------------
 PREPARATION      0.0000
 FROZEN           32.4186 (ELEC + PAULI + DISP)
[ELEC + PAULI = 41.3856, DISP = -8.9669]
 POLARIZATION    -21.4582
 CHARGE TRANSFER -10.5104
 TOTAL           0.4501     (PRP + FRZ + POL + CT)
--------------------
 
 --------------------------------------------------------------
             Orbital Energies (a.u.) and Symmetries
 --------------------------------------------------------------
 
 Alpha MOs, Restricted
 -- Occupied --                  
-24.472 -19.144  -0.927  -0.849  -0.413  -0.303  -0.226  -0.115
  1 A'    2 A'    3 A'    4 A'    5 A'    6 A'    1 A"    7 A'                 
 -0.112  -0.109
  2 A"    8 A'                                                                 
 -- Virtual --                   
  0.175   0.223   0.253   0.268   0.306   0.345   0.355   0.370
  9 A'   10 A'    3 A"   11 A'   12 A'   13 A'    4 A"   14 A'                 
  0.394   0.418   0.419   0.430   0.461   0.514   0.563   0.588
 15 A'   16 A'    5 A"    6 A"   17 A'   18 A'   19 A'   20 A'                 
  0.638   0.700   0.706   0.743   0.759   0.848   0.862   0.899
 21 A'    7 A"   22 A'   23 A'    8 A"   24 A'    9 A"   25 A'                 
  0.919   0.926   0.957   0.990   1.010   1.056   1.141   1.145
 26 A'   10 A"   27 A'   11 A"   28 A'   29 A'   12 A"   30 A'                 
  1.178   1.244   1.244   1.358   1.367   1.415   1.446   1.519
 31 A'   32 A'   13 A"   33 A'   14 A"   34 A'   35 A'   36 A'                 
  1.577   1.711   2.117   2.177   2.266   2.354   2.503   2.736
 37 A'   38 A'   15 A"   16 A"   39 A'   40 A'   41 A'   17 A"                 
  2.742   2.769   2.782   2.818   2.912   3.047   3.053   3.354
 42 A'   43 A'   18 A"   44 A'   45 A'   19 A"   46 A'   47 A'                 
  3.380   3.474   3.515   3.645   3.647   3.738   3.830   3.865
 20 A"   48 A'   49 A'   50 A'   21 A"   51 A'   22 A"   52 A'                 
  3.885   4.034   4.138   4.141   4.229   4.248   4.345   4.391
 53 A'   23 A"   54 A'   24 A"   25 A"   55 A'   26 A"   56 A'                 
  4.477   4.610   4.827   4.947   5.128   5.383   5.842   6.331
 57 A'   58 A'   59 A'   60 A'   61 A'   62 A'   27 A"   63 A'                 
  6.453   6.747   6.784   6.884   7.002   7.051   7.155   7.414
 28 A"   64 A'   29 A"   30 A"   65 A'   31 A"   66 A'   32 A"                 
  7.414   7.416   7.418   7.422   7.436   7.456   7.671   7.759
 67 A'   33 A"   68 A'   34 A"   69 A'   70 A'   71 A'   72 A'                 
  7.977   8.990   8.994   9.021   9.049   9.078  44.429  57.823
 73 A'   35 A"   74 A'   36 A"   75 A'   76 A'   77 A'   78 A'                 
 
 Beta MOs, Restricted
 -- Occupied --                  
-24.472 -19.144  -0.927  -0.849  -0.413  -0.303  -0.226  -0.115
  1 A'    2 A'    3 A'    4 A'    5 A'    6 A'    1 A"    7 A'                 
 -0.112  -0.109
  2 A"    8 A'                                                                 
 -- Virtual --                   
  0.175   0.223   0.253   0.268   0.306   0.345   0.355   0.370
  9 A'   10 A'    3 A"   11 A'   12 A'   13 A'    4 A"   14 A'                 
  0.394   0.418   0.419   0.430   0.461   0.514   0.563   0.588
 15 A'   16 A'    5 A"    6 A"   17 A'   18 A'   19 A'   20 A'                 
  0.638   0.700   0.706   0.743   0.759   0.848   0.862   0.899
 21 A'    7 A"   22 A'   23 A'    8 A"   24 A'    9 A"   25 A'                 
  0.919   0.926   0.957   0.990   1.010   1.056   1.141   1.145
 26 A'   10 A"   27 A'   11 A"   28 A'   29 A'   12 A"   30 A'                 
  1.178   1.244   1.244   1.358   1.367   1.415   1.446   1.519
 31 A'   32 A'   13 A"   33 A'   14 A"   34 A'   35 A'   36 A'                 
  1.577   1.711   2.117   2.177   2.266   2.354   2.503   2.736
 37 A'   38 A'   15 A"   16 A"   39 A'   40 A'   41 A'   17 A"                 
  2.742   2.769   2.782   2.818   2.912   3.047   3.053   3.354
 42 A'   43 A'   18 A"   44 A'   45 A'   19 A"   46 A'   47 A'                 
  3.380   3.474   3.515   3.645   3.647   3.738   3.830   3.865
 20 A"   48 A'   49 A'   50 A'   21 A"   51 A'   22 A"   52 A'                 
  3.885   4.034   4.138   4.141   4.229   4.248   4.345   4.391
 53 A'   23 A"   54 A'   24 A"   25 A"   55 A'   26 A"   56 A'                 
  4.477   4.610   4.827   4.947   5.128   5.383   5.842   6.331
 57 A'   58 A'   59 A'   60 A'   61 A'   62 A'   27 A"   63 A'                 
  6.453   6.747   6.784   6.884   7.002   7.051   7.155   7.414
 28 A"   64 A'   29 A"   30 A"   65 A'   31 A"   66 A'   32 A"                 
  7.414   7.416   7.418   7.422   7.436   7.456   7.671   7.759
 67 A'   33 A"   68 A'   34 A"   69 A'   70 A'   71 A'   72 A'                 
  7.977   8.990   8.994   9.021   9.049   9.078  44.429  57.823
 73 A'   35 A"   74 A'   36 A"   75 A'   76 A'   77 A'   78 A'                 
 --------------------------------------------------------------
 
          Ground-State Mulliken Net Atomic Charges

     Atom                 Charge (a.u.)
  ----------------------------------------
      1 O                    -0.397284
      2 H                     0.108029
      3 H                     0.255015
      4 F                    -0.965760
  ----------------------------------------
  Sum of atomic charges =    -1.000000

 -----------------------------------------------------------------
                    Cartesian Multipole Moments
 -----------------------------------------------------------------
    Charge (ESU x 10^10)
                -4.8032
    Dipole Moment (Debye)
         X       5.7793      Y       1.5862      Z       0.0000
       Tot       5.9930
    Quadrupole Moments (Debye-Ang)
        XX     -21.9952     XY       1.5305     YY     -14.0851
        XZ       0.0000     YZ      -0.0000     ZZ     -16.0098
    Octopole Moments (Debye-Ang^2)
       XXX      21.0628    XXY       0.9590    XYY       1.8721
       YYY       0.7763    XXZ       0.0000    XYZ       0.0000
       YYZ       0.0000    XZZ       0.2388    YZZ      -0.0490
       ZZZ       0.0000
    Hexadecapole Moments (Debye-Ang^3)
      XXXX    -159.3265   XXXY       2.7346   XXYY     -30.8131
      XYYY       0.9743   YYYY     -20.3083   XXXZ       0.0000
      XXYZ      -0.0000   XYYZ       0.0000   YYYZ      -0.0000
      XXZZ     -32.3449   XYZZ       0.1962   YYZZ      -6.9253
      XZZZ       0.0000   YZZZ      -0.0000   ZZZZ     -20.1976
 -----------------------------------------------------------------
 Total job time:  42.88s(wall), 141.82s(cpu) 
 Wed Jan  3 17:50:27 2024

        *************************************************************
        *                                                           *
        *  Thank you very much for using Q-Chem.  Have a nice day.  *
        *                                                           *
        *************************************************************


