
Running Job 1 of 1 050_Cl-Water_Deg00_+30_almo.in
qchem 050_Cl-Water_Deg00_+30_almo.in_427006.0 /scratch/qchem427006/ 6
/home/kchung25/qchem/5.4.0/exe/qcprog.exe_s 050_Cl-Water_Deg00_+30_almo.in_427006.0 /scratch/qchem427006/
                  Welcome to Q-Chem
     A Quantum Leap Into The Future Of Chemistry


 Q-Chem 5.4, Q-Chem, Inc., Pleasanton, CA (2021)

 E. Epifanovsky,  A. T. B. Gilbert,  Xintian Feng,  Joonho Lee,  Yuezhi Mao,  
 N. Mardirossian,  P. Pokhilko,  A. White,  M. Wormit,  M. P. Coons,  
 A. L. Dempwolff,  Zhengting Gan,  D. Hait,  P. R. Horn,  L. D. Jacobson,  
 I. Kaliman,  J. Kussmann,  A. W. Lange,  Ka Un Lao,  D. S. Levine,  Jie Liu,  
 S. C. McKenzie,  A. F. Morrison,  K. Nanda,  F. Plasser,  D. R. Rehn,  
 M. L. Vidal,  Zhi-Qiang You,  Ying Zhu,  B. Alam,  B. Albrecht,  
 A. Aldossary,  E. Alguire,  J. H. Andersen,  D. Barton,  K. Begam,  A. Behn,  
 Y. A. Bernard,  E. J. Berquist,  H. Burton,  A. Carreras,  K. Carter-Fenk,  
 Romit Chakraborty,  A. D. Chien,  K. D. Closser,  V. Cofer-Shabica,  
 S. Dasgupta,  Jia Deng,  M. de Wergifosse,  M. Diedenhofen,  Hainam Do,  
 S. Ehlert,  Po-Tung Fang,  S. Fatehi,  Qingguo Feng,  T. Friedhoff,  
 J. Gayvert,  Qinghui Ge,  G. Gidofalvi,  M. Goldey,  J. Gomes,  
 C. Gonzalez-Espinoza,  S. Gulania,  A. Gunina,  M. W. D. Hanson-Heine,  
 P. H. P. Harbach,  A. W. Hauser,  M. F. Herbst,  M. Hernandez Vera,  
 M. Hodecker,  Z. C. Holden,  S. Houck,  Xunkun Huang,  Kerwin Hui,  
 B. C. Huynh,  M. Ivanov,  Hyunjun Ji,  Hanjie Jiang,  B. Kaduk,  S. Kaehler,  
 K. Khistyaev,  Jaehoon Kim,  P. Klunzinger,  Z. Koczor-Benda,  
 Joong Hoon Koh,  D. Kosenkov,  L. Koulias,  T. Kowalczyk,  C. M. Krauter,  
 K. Kue,  A. Kunitsa,  T. Kus,  A. Landau,  K. V. Lawler,  D. Lefrancois,  
 S. Lehtola,  Rain Li,  Yi-Pei Li,  Jiashu Liang,  M. Liebenthal,  
 Hung-Hsuan Lin,  You-Sheng Lin,  Fenglai Liu,  Kuan-Yu Liu,  
 M. Loipersberger,  A. Luenser,  A. Manjanath,  P. Manohar,  E. Mansoor,  
 S. F. Manzer,  Shan-Ping Mao,  A. V. Marenich,  T. Markovich,  S. Mason,  
 S. A. Maurer,  P. F. McLaughlin,  M. F. S. J. Menger,  J.-M. Mewes,  
 S. A. Mewes,  P. Morgante,  J. W. Mullinax,  K. J. Oosterbaan,  G. Paran,  
 Alexander C. Paul,  Suranjan K. Paul,  F. Pavosevic,  Zheng Pei,  S. Prager,  
 E. I. Proynov,  E. Ramos,  B. Rana,  A. E. Rask,  A. Rettig,  R. M. Richard,  
 F. Rob,  E. Rossomme,  T. Scheele,  M. Scheurer,  M. Schneider,  
 N. Sergueev,  S. M. Sharada,  W. Skomorowski,  D. W. Small,  C. J. Stein,  
 Yu-Chuan Su,  E. J. Sundstrom,  Zhen Tao,  J. Thirman,  T. Tsuchimochi,  
 N. M. Tubman,  S. P. Veccham,  O. Vydrov,  J. Wenzel,  J. Witte,  A. Yamada,  
 Kun Yao,  S. Yeganeh,  S. R. Yost,  A. Zech,  Igor Ying Zhang,  Xing Zhang,  
 Yu Zhang,  D. Zuev,  A. Aspuru-Guzik,  A. T. Bell,  N. A. Besley,  
 K. B. Bravaya,  B. R. Brooks,  D. Casanova,  Jeng-Da Chai,  S. Coriani,  
 C. J. Cramer,  A. E. DePrince, III,  R. A. DiStasio Jr.,  A. Dreuw,  
 B. D. Dunietz,  T. R. Furlani,  W. A. Goddard III,  S. Grimme,  
 S. Hammes-Schiffer,  T. Head-Gordon,  W. J. Hehre,  Chao-Ping Hsu,  
 T.-C. Jagau,  Yousung Jung,  A. Klamt,  Jing Kong,  D. S. Lambrecht,  
 WanZhen Liang,  N. J. Mayhall,  C. W. McCurdy,  J. B. Neaton,  T. Neudecker,  
 C. Ochsenfeld,  J. A. Parkhill,  R. Peverati,  V. A. Rassolov,  Yihan Shao,  
 L. V. Slipchenko,  R. P. Steele,  J. E. Subotnik,  A. J. W. Thom,  
 A. Tkatchenko,  D. G. Truhlar,  T. Van Voorhis,  T. A. Wesolowski,  
 K. B. Whaley,  H. L. Woodcock III,  P. M. Zimmerman,  S. Faraji,  
 P. M. W. Gill,  M. Head-Gordon,  J. M. Herbert,  A. I. Krylov

 Additional authors since Version 5.4.0: 
 Chandrima Chakravarty,  L. Cunha,  R. Kang,  Yongbin Kim,  S. Kotaru,  
 Shaozhi Li,  Xiangyuan Li,  F. Matz,  A. Molle,  V. Parravicini,  
 Haisheng Ren,  Hengyuan Shen,  Yingli Su,  Hung-Yi Tsai,  C. Utku,  
 Fang Wang,  Jeff Yang,  F. Zeller

 Contributors to earlier versions of Q-Chem not listed above: 
 R. D. Adamson,  B. Austin,  R. Baer,  J. Baker,  G. J. O. Beran,  
 K. Brandhorst,  S. T. Brown,  E. F. C. Byrd,  Arup K. Chakraborty,  
 G. K. L. Chan,  Chun-Min Chang,  Yunqing Chen,  C.-L. Cheng,  
 Siu Hung Chien,  D. M. Chipman,  D. L. Crittenden,  H. Dachsel,  
 R. J. Doerksen,  A. D. Dutoi,  R. G. Edgar,  J. Fosso-Tande,  
 L. Fusti-Molnar,  D. Ghosh,  A. Ghysels,  A. Golubeva-Zadorozhnaya,  
 J. Gonthier,  M. S. Gordon,  S. R. Gwaltney,  G. Hawkins,  J. E. Herr,  
 A. Heyden,  S. Hirata,  E. G. Hohenstein,  G. Kedziora,  F. J. Keil,  
 C. Kelley,  Jihan Kim,  R. A. King,  R. Z. Khaliullin,  P. P. Korambath,  
 W. Kurlancheek,  A. Laurent,  A. M. Lee,  M. S. Lee,  S. V. Levchenko,  
 Ching Yeh Lin,  D. Liotard,  E. Livshits,  R. C. Lochan,  I. Lotan,  
 L. A. Martinez-Martinez,  P. E. Maslen,  N. Nair,  D. P. O'Neill,  
 D. Neuhauser,  E. Neuscamman,  C. M. Oana,  R. Olivares-Amaya,  R. Olson,  
 T. M. Perrine,  B. Peters,  P. A. Pieniazek,  A. Prociuk,  Y. M. Rhee,  
 J. Ritchie,  M. A. Rohrdanz,  E. Rosta,  N. J. Russ,  H. F. Schaefer III,  
 M. W. Schmidt,  N. E. Schultz,  S. Sharma,  N. Shenvi,  C. D. Sherrill,  
 A. C. Simmonett,  A. Sodt,  T. Stein,  D. Stuck,  K. S. Thanthiriwatte,  
 V. Vanovschi,  L. Vogt,  Tao Wang,  A. Warshel,  M. A. Watson,  
 C. F. Williams,  Q. Wu,  X. Xu,  Jun Yang,  W. Zhang,  Yan Zhao

   Please cite Q-Chem as follows:
  "Software for the frontiers of quantum chemistry:
   An overview of developments in the Q-Chem 5 package"
   J. Chem. Phys. 155, 084801 (2021)
   https://doi.org/10.1063/5.0055522 (open access)

 Q-Chem 5.4.2 for Intel X86 EM64T Linux

 Parts of Q-Chem use Armadillo 9.900.5 (Nocturnal Misbehaviour).
 http://arma.sourceforge.net/

 Q-Chem begins on Wed Jan  3 18:27:57 2024  

 Host: 
0

     Scratch files written to /scratch/qchem427006//
 Dec1321 |scratch|qcdevops|jenkins|workspace|build_RNUM 5684   
 Processing $rem in /home/kchung25/qchem/5.4.0/config/preferences:
 Processing $rem in /home/kchung25/.qchemrc:

 Q-Chem warning in module libgen/rem_setup.C, line 3079:

 Neither GIA nor STOLL is specified by user. Use STOLL as the default


 Checking the input file for inconsistencies... 	...done.

--------------------------------------------------------------
User input:
--------------------------------------------------------------
$molecule
-1 1
--
0 1
O      0.000000     0.000000     0.000000
H      0.413522     0.864229     0.000000
H      0.794175    -0.588334     0.000000
--
-1 1
Cl     3.070352     0.000000     0.000000
$end

$rem
JOBTYPE          eda
EDA2             1
METHOD           wB97M-V
BASIS            def2-TZVPPD
SYMMETRY         false
MEM_TOTAL        50000
MEM_STATIC       10000
THRESH           14
SCF_CONVERGENCE  8
XC_GRID          000099000590
NL_GRID          1
EDA_CLS_DISP     true
FD_MAT_VEC_PROD  FALSE
$end
--------------------------------------------------------------
 ----------------------------------------------------------------
             Standard Nuclear Orientation (Angstroms)
    I     Atom           X                Y                Z
 ----------------------------------------------------------------
    1      O       1.9776470155    -0.0340723825     0.0000000000
    2      H       1.5745781950     0.8350810762    -0.0000000000
    3      H       1.1764341274    -0.6127853806     0.0000000000
    4      Cl     -1.0924816733     0.0029578450    -0.0000000000
 ----------------------------------------------------------------
 Molecular Point Group                 Cs    NOp =  2
 Largest Abelian Subgroup              Cs    NOp =  2
 Nuclear Repulsion Energy =          39.54050631 hartrees
 There are       14 alpha and       14 beta electrons
 Requested basis set is def2-TZVPPD
 There are 45 shells and 125 basis functions

 Q-Chem warning in module libmdc/get_mega.C, line 171:

 Allowed MEM_STATIC has been capped at MEM_STATIC=8191.
 Reduce the value of MEM_STATIC to silence this warning.


 Total QAlloc Memory Limit  50000 MB
 Mega-Array Size      8007 MB
 MEM_STATIC part      8191 MB

                       Distance Matrix (Angstroms)
             O (  1)   H (  2)   H (  3)
   H (  2)  0.958067
   H (  3)  0.988358  1.501611
   Cl(  4)  3.070352  2.793857  2.350982
 
 A cutoff of  1.0D-14 yielded   1006 shell pairs
 There are      7852 function pairs (      9875 Cartesian)
 Smallest overlap matrix eigenvalue = 5.04E-04

 Scale SEOQF with 1.000000e-01/1.000000e-01/1.000000e-01

 Standard Electronic Orientation quadrupole field applied
 Nucleus-field energy     =     0.0000000021 hartrees

 -----------------------------------------------------------------------
  General SCF calculation program by
  Eric Jon Sundstrom, Paul Horn, Yuezhi Mao, Dmitri Zuev, Alec White,
  David Stuck, Shaama M.S., Shane Yost, Joonho Lee, David Small,
  Daniel Levine, Susi Lehtola, Hugh Burton, Evgeny Epifanovsky,
  Bang C. Huynh
 -----------------------------------------------------------------------
================================================================
                 ALMO-EDA with the EDA2 driver                  
================================================================
 The second-generation ALMO-EDA (for DFT):                      
 P. R. Horn, Y. Mao and M. Head-Gordon, PCCP, 18, 23067 (2016)  
 Y. Mao et al. Annu. Rev. Phys. Chem. 72, 641 (2021)            
 Decomposition of the frozen energy:                            
 P. R. Horn, Y. Mao and M. Head-Gordon, JCP, 144, 114107 (2016) 
 FERF model for polarization:                                   
 P. R. Horn and M. Head-Gordon, JCP, 143, 114111 (2015)         
================================================================
 Using eda2 option set 1
 Option set summary: Frozen orbital wavefunction, initial wavefunction decomposition, and nDQ polarization.
--------------------------------
Printing EDA Options
--------------------------------
eda_child_super_basis      0
fragmo_guess_mode          0
child_mp                   1
child_mp_orders            232
cls_elec                   1
cls_disp                   1
scfmi_mode                 1
scfmi_occs                 0
scfmi_virts                0
frz_relax                  0
frz_relax_method           0
dc_pen_start               0
dc_pen_conv                0
dc_pen_increment           0
dc_pen_steps               0
dc_pen_thresh_factor       0
dc_pen_pre_newton_thresh   0
frz_ortho_decomp           1
frz_ortho_decomp_conv      6
plot_mo_ortho_frz          0
frgm_method                2
scfmi_freeze_ss            0
separate_rehyb             0
plot_diff_den              0
eda_nocv                   0
eda_vct_relax              1
disp_free_x                0
disp_free_c                0
eda_bsse                   0
eda_pct_a                  0
eda_covp                   0
--------------------------------
Attempting to make child job directory: /scratch/qchem427006//Frg1/
Attempting to make child job directory: /scratch/qchem427006//Frg2/
Creating input file /scratch/qchem427006/Frg1.input
using default PutDataFrgm: nothing
calling putenv with: QCSCRATCH=/scratch/qchem427006/ 
Spawning Job For Fragment 0
Done Job For Fragment 0
calling putenv with: QCSCRATCH=/scratch 
calling putenv with: QCTHREADS=6 
Creating input file /scratch/qchem427006/Frg2.input
using default PutDataFrgm: nothing
calling putenv with: QCSCRATCH=/scratch/qchem427006/ 
Spawning Job For Fragment 1
Done Job For Fragment 1
calling putenv with: QCSCRATCH=/scratch 
calling putenv with: QCTHREADS=6 
Doing General SCFMI
 Exchange:     0.1500 Hartree-Fock + 1.0000 wB97M-V + LR-HF
 Correlation:  1.0000 wB97M-V
 Using Euler-Maclaurin-Lebedev (99,590) quadrature formula
 Nonlocal Correlation:  VV10 with C = 0.0100 and b = 6.00 and scale = 1.00000
 Grid used for NLC:  SG-1 standard quadrature
performing fock build before subrot guess so that all methods have access
Printing subrot_rss_gen Method Specification:
Occupied Subspace Method is 0
Virtual Subspace Method is 0
Energy of the unrelaxed supersystem initial determinant -536.708470953187
write pseudocanon occs and virts to disk
write pseudocanon orbital energies to disk
Tolerance of ortho_decomp_scf: 1.00e-06
GDM subspace size: 20
Beginning the Orthogonal Decomposition of the Initial Supersystem Wavefunction
    1    -536.6312957686      3.47e-01     ortho_decomp Preconditoned Steepest Descent
    2    -536.6472879594      4.77e-03     ortho_decomp BFGS Step
    3    -536.6473084926      3.50e-04     ortho_decomp BFGS Step
    4    -536.6473085613      1.40e-05     ortho_decomp BFGS Step
    5    -536.6473085613      2.53e-07     ortho_decomp 00000 Convergence criterion met
 Hartree-Fock
 Hartree-Fock
 Hartree-Fock
 Exchange:     0.1500 Hartree-Fock + 1.0000 wB97M-V + LR-HF
 Correlation:  1.0000 wB97M-V
 Using Euler-Maclaurin-Lebedev (99,590) quadrature formula
 Nonlocal Correlation:  VV10 with C = 0.0100 and b = 6.00 and scale = 1.00000
 Grid used for NLC:  SG-1 standard quadrature
 Long-range K will be added via erf
 Coulomb attenuation parameter = 0.3 bohr**(-1)
 Nonlocal correlation = 1.167960255627e-01
Doing General SCFMI
 Exchange:     0.1500 Hartree-Fock + 1.0000 wB97M-V + LR-HF
 Correlation:  1.0000 wB97M-V
 Using Euler-Maclaurin-Lebedev (99,590) quadrature formula
 Nonlocal Correlation:  VV10 with C = 0.0100 and b = 6.00 and scale = 1.00000
 Grid used for NLC:  SG-1 standard quadrature
performing fock build at end of subrot_r(subrot) constructor so that all methods have access
<S^2> of initial wavefunction before polarization iterations 0.0000000000
Beginning iterations for the determination of the polarized wavefunction
Energy prior to optimization (guess energy) = -536.708470953187
Begin Timing: Total SCF Calculation
begin iterations for algorithm: DIIS         
the SCF tolerance is set to 1.00e-08
    1    -536.7084709532      9.04e-04     00000 
    2    -536.7125922946      2.85e-04     00000 
    3    -536.7129473724      1.20e-04     00000 
    4    -536.7130192007      4.04e-05     00000 
    5    -536.7130318678      1.86e-05     00000 
    6    -536.7130336323      7.97e-06     00000 
    7    -536.7130339212      2.50e-06     00000 
    8    -536.7130339524      5.29e-07     00000 
    9    -536.7130339536      1.59e-07     00000 
   10    -536.7130339538      5.02e-08     00000 
   11    -536.7130339538      1.31e-08     00000 
   12    -536.7130339538      3.85e-09     00000 Convergence criterion met
write pseudocanon occs and virts to disk
write pseudocanon orbital energies to disk
Timing for Total SCF: 9.00s (wall), 51.58s (cpu)
<S^2> of polarized wavefunction after polarization iterations 0.0000000000
relaxing scfmi constraint to allow all rotations in the entire AO span
Doing General SCFMI
 Exchange:     0.1500 Hartree-Fock + 1.0000 wB97M-V + LR-HF
 Correlation:  1.0000 wB97M-V
 Using Euler-Maclaurin-Lebedev (99,590) quadrature formula
 Nonlocal Correlation:  VV10 with C = 0.0100 and b = 6.00 and scale = 1.00000
 Grid used for NLC:  SG-1 standard quadrature
performing fock build at end of subrot_r(subrot) constructor so that all methods have access
<S^2> of polarized wavefunction before ct-allowed iterations 0.0000000000
Beginning iterations for the determination of the CT-Allowed wavefunction
Energy prior to optimization (guess energy) = -536.713033953786
Begin Timing: Total SCF Calculation
begin iterations for algorithm: DIIS         
the SCF tolerance is set to 1.00e-08
    1    -536.7130339538      6.46e-04     00000 
    2    -536.7170315206      1.02e-04     00000 
    3    -536.7172330580      4.21e-05     00000 
    4    -536.7172462941      2.18e-05     00000 
    5    -536.7172501924      5.41e-06     00000 
    6    -536.7172504519      1.36e-06     00000 
    7    -536.7172505021      2.80e-07     00000 
    8    -536.7172505044      9.19e-08     00000 
    9    -536.7172505046      2.39e-08     00000 
   10    -536.7172505046      4.33e-09     00000 Convergence criterion met
write pseudocanon occs and virts to disk
write pseudocanon orbital energies to disk
Timing for Total SCF: 7.00s (wall), 42.22s (cpu)
<S^2> of ct_allowed wavefunction after ct-allowed iterations 0.0000000000

================================
        Results of EDA2         
================================
Basic EDA Quantities
--------------------
Fragment Energies (Ha):
1  -76.4353325423
2 -460.2597934915
--------------------
  E_prp (kJ/mol) = 0.0000
  E_frz (kJ/mol) = -35.0375
  E_pol (kJ/mol) = -11.9803
  E_vct (kJ/mol) = -11.0707
  E_int (kJ/mol) = -58.0885
--------------------


Decomposition of frozen interaction energy
--------------------
  --------------------
  Orthogonal Frozen Decomposition:
  --------------------
     E_elec   (ELEC)   (kJ/mol) = -121.6571
     E_pauli  (PAULI)  (kJ/mol) = 99.8102
     E_disp   (DISP)   (kJ/mol) = -13.1907
  --------------------
  Classical Frozen Decomposition:
  --------------------
     E_cls_elec  (CLS ELEC)  (kJ/mol) = -80.5591
     E_mod_pauli (MOD PAULI) (kJ/mol) = 58.4016 (FRZ - CLS ELEC - CLS DISP)
     E_cls_disp  (CLS DISP)  (kJ/mol) = -12.8800
  --------------------
--------------------

Simplified EDA Summary (kJ/mol)
--------------------
 PREPARATION      0.0000
 FROZEN           -35.0375 (ELEC + PAULI + DISP)
[ELEC + PAULI = -22.1575, DISP = -12.8800]
 POLARIZATION    -11.9803
 CHARGE TRANSFER -11.0707
 TOTAL           -58.0885     (PRP + FRZ + POL + CT)
--------------------
 
 --------------------------------------------------------------
             Orbital Energies (a.u.) and Symmetries
 --------------------------------------------------------------
 
 Alpha MOs, Restricted
 -- Occupied --                  
-101.57  -19.15   -9.34   -7.04   -7.04   -7.04   -0.95   -0.63
  1 A'    2 A'    3 A'    4 A'    5 A'    1 A"    6 A'    7 A'                 
 -0.446  -0.331  -0.247  -0.149  -0.147  -0.146
  8 A'    9 A'    2 A"   10 A'   11 A'    3 A"                                 
 -- Virtual --                   
  0.190   0.204   0.220   0.221   0.235   0.242   0.252   0.357
 12 A'   13 A'    4 A"   14 A'   15 A'   16 A'    5 A"   17 A'                 
  0.378   0.382   0.384   0.432   0.458   0.461   0.476   0.495
 18 A'   19 A'    6 A"    7 A"   20 A'   21 A'    8 A"   22 A'                 
  0.507   0.520   0.529   0.549   0.563   0.642   0.681   0.686
 23 A'   24 A'    9 A"   25 A'   26 A'   27 A'   28 A'   10 A"                 
  0.746   0.748   0.789   0.825   0.877   0.920   0.941   0.941
 11 A"   29 A'   12 A"   30 A'   31 A'   32 A'   13 A"   33 A'                 
  0.944   0.947   0.955   0.982   0.986   1.047   1.103   1.216
 34 A'   14 A"   35 A'   15 A"   36 A'   37 A'   38 A'   16 A"                 
  1.217   1.279   1.285   1.385   1.446   1.550   1.599   2.101
 39 A'   17 A"   40 A'   41 A'   42 A'   43 A'   44 A'   18 A"                 
  2.155   2.181   2.255   2.257   2.274   2.292   2.321   2.366
 19 A"   45 A'   46 A'   20 A"   21 A"   47 A'   48 A'   49 A'                 
  2.423   2.458   2.459   2.461   2.471   2.476   2.512   2.578
 50 A'   22 A"   51 A'   23 A"   24 A"   52 A'   53 A'   54 A'                 
  2.654   2.689   2.781   2.859   2.962   3.086   3.354   3.356
 25 A"   55 A'   56 A'   57 A'   58 A'   26 A"   59 A'   27 A"                 
  3.488   3.614   3.677   3.683   3.716   3.913   4.043   4.103
 60 A'   61 A'   28 A"   62 A'   63 A'   64 A'   29 A"   30 A"                 
  4.252   4.265   4.352   4.407   4.541   4.903   4.989   5.133
 65 A'   31 A"   32 A"   66 A'   67 A'   68 A'   69 A'   70 A'                 
  5.393   5.883   6.485   6.649   6.755   6.770   6.854   6.999
 71 A'   33 A"   72 A'   34 A"   73 A'   35 A"   36 A"   74 A'                 
  7.059   7.206   7.705   7.835   7.932   8.538   8.538   8.548
 37 A"   75 A'   76 A'   77 A'   78 A'   38 A"   79 A'   39 A"                 
  8.566   8.608  11.218  11.245  11.395  25.193  44.505
 80 A'   81 A'   40 A"   82 A'   83 A'   84 A'   85 A'                         
 
 Beta MOs, Restricted
 -- Occupied --                  
-101.57  -19.15   -9.34   -7.04   -7.04   -7.04   -0.95   -0.63
  1 A'    2 A'    3 A'    4 A'    5 A'    1 A"    6 A'    7 A'                 
 -0.446  -0.331  -0.247  -0.149  -0.147  -0.146
  8 A'    9 A'    2 A"   10 A'   11 A'    3 A"                                 
 -- Virtual --                   
  0.190   0.204   0.220   0.221   0.235   0.242   0.252   0.357
 12 A'   13 A'    4 A"   14 A'   15 A'   16 A'    5 A"   17 A'                 
  0.378   0.382   0.384   0.432   0.458   0.461   0.476   0.495
 18 A'   19 A'    6 A"    7 A"   20 A'   21 A'    8 A"   22 A'                 
  0.507   0.520   0.529   0.549   0.563   0.642   0.681   0.686
 23 A'   24 A'    9 A"   25 A'   26 A'   27 A'   28 A'   10 A"                 
  0.746   0.748   0.789   0.825   0.877   0.920   0.941   0.941
 11 A"   29 A'   12 A"   30 A'   31 A'   32 A'   13 A"   33 A'                 
  0.944   0.947   0.955   0.982   0.986   1.047   1.103   1.216
 34 A'   14 A"   35 A'   15 A"   36 A'   37 A'   38 A'   16 A"                 
  1.217   1.279   1.285   1.385   1.446   1.550   1.599   2.101
 39 A'   17 A"   40 A'   41 A'   42 A'   43 A'   44 A'   18 A"                 
  2.155   2.181   2.255   2.257   2.274   2.292   2.321   2.366
 19 A"   45 A'   46 A'   20 A"   21 A"   47 A'   48 A'   49 A'                 
  2.423   2.458   2.459   2.461   2.471   2.476   2.512   2.578
 50 A'   22 A"   51 A'   23 A"   24 A"   52 A'   53 A'   54 A'                 
  2.654   2.689   2.781   2.859   2.962   3.086   3.354   3.356
 25 A"   55 A'   56 A'   57 A'   58 A'   26 A"   59 A'   27 A"                 
  3.488   3.614   3.677   3.683   3.716   3.913   4.043   4.103
 60 A'   61 A'   28 A"   62 A'   63 A'   64 A'   29 A"   30 A"                 
  4.252   4.265   4.352   4.407   4.541   4.903   4.989   5.133
 65 A'   31 A"   32 A"   66 A'   67 A'   68 A'   69 A'   70 A'                 
  5.393   5.883   6.485   6.649   6.755   6.770   6.854   6.999
 71 A'   33 A"   72 A'   34 A"   73 A'   35 A"   36 A"   74 A'                 
  7.059   7.206   7.705   7.835   7.932   8.538   8.538   8.548
 37 A"   75 A'   76 A'   77 A'   78 A'   38 A"   79 A'   39 A"                 
  8.566   8.608  11.218  11.245  11.395  25.193  44.505
 80 A'   81 A'   40 A"   82 A'   83 A'   84 A'   85 A'                         
 --------------------------------------------------------------
 
          Ground-State Mulliken Net Atomic Charges

     Atom                 Charge (a.u.)
  ----------------------------------------
      1 O                    -0.457814
      2 H                     0.156656
      3 H                     0.231995
      4 Cl                   -0.930837
  ----------------------------------------
  Sum of atomic charges =    -1.000000

 -----------------------------------------------------------------
                    Cartesian Multipole Moments
 -----------------------------------------------------------------
    Charge (ESU x 10^10)
                -4.8032
    Dipole Moment (Debye)
         X       2.0980      Y       0.4705      Z      -0.0000
       Tot       2.1501
    Quadrupole Moments (Debye-Ang)
        XX     -38.4731     XY       1.2794     YY     -22.3066
        XZ       0.0000     YZ       0.0000     ZZ     -25.4233
    Octopole Moments (Debye-Ang^2)
       XXX      -3.2489    XXY       3.0693    XYY       8.2359
       YYY       0.8587    XXZ      -0.0000    XYZ      -0.0000
       YYZ      -0.0000    XZZ       3.1952    YZZ       0.0641
       ZZZ      -0.0000
    Hexadecapole Moments (Debye-Ang^3)
      XXXX    -383.1039   XXXY       6.3912   XXYY     -55.6324
      XYYY       1.7969   YYYY     -39.7990   XXXZ       0.0000
      XXYZ       0.0000   XYYZ       0.0000   YYYZ       0.0000
      XXZZ     -64.2072   XYZZ       0.2021   YYZZ     -13.7506
      XZZZ       0.0000   YZZZ       0.0000   ZZZZ     -40.9592
 -----------------------------------------------------------------
 Total job time:  48.62s(wall), 171.38s(cpu) 
 Wed Jan  3 18:28:46 2024

        *************************************************************
        *                                                           *
        *  Thank you very much for using Q-Chem.  Have a nice day.  *
        *                                                           *
        *************************************************************


