
Running Job 1 of 1 051_Br-Water_Deg00_-30_almo.in
qchem 051_Br-Water_Deg00_-30_almo.in_430090.0 /scratch/qchem430090/ 6
/home/kchung25/qchem/5.4.0/exe/qcprog.exe_s 051_Br-Water_Deg00_-30_almo.in_430090.0 /scratch/qchem430090/
                  Welcome to Q-Chem
     A Quantum Leap Into The Future Of Chemistry


 Q-Chem 5.4, Q-Chem, Inc., Pleasanton, CA (2021)

 E. Epifanovsky,  A. T. B. Gilbert,  Xintian Feng,  Joonho Lee,  Yuezhi Mao,  
 N. Mardirossian,  P. Pokhilko,  A. White,  M. Wormit,  M. P. Coons,  
 A. L. Dempwolff,  Zhengting Gan,  D. Hait,  P. R. Horn,  L. D. Jacobson,  
 I. Kaliman,  J. Kussmann,  A. W. Lange,  Ka Un Lao,  D. S. Levine,  Jie Liu,  
 S. C. McKenzie,  A. F. Morrison,  K. Nanda,  F. Plasser,  D. R. Rehn,  
 M. L. Vidal,  Zhi-Qiang You,  Ying Zhu,  B. Alam,  B. Albrecht,  
 A. Aldossary,  E. Alguire,  J. H. Andersen,  D. Barton,  K. Begam,  A. Behn,  
 Y. A. Bernard,  E. J. Berquist,  H. Burton,  A. Carreras,  K. Carter-Fenk,  
 Romit Chakraborty,  A. D. Chien,  K. D. Closser,  V. Cofer-Shabica,  
 S. Dasgupta,  Jia Deng,  M. de Wergifosse,  M. Diedenhofen,  Hainam Do,  
 S. Ehlert,  Po-Tung Fang,  S. Fatehi,  Qingguo Feng,  T. Friedhoff,  
 J. Gayvert,  Qinghui Ge,  G. Gidofalvi,  M. Goldey,  J. Gomes,  
 C. Gonzalez-Espinoza,  S. Gulania,  A. Gunina,  M. W. D. Hanson-Heine,  
 P. H. P. Harbach,  A. W. Hauser,  M. F. Herbst,  M. Hernandez Vera,  
 M. Hodecker,  Z. C. Holden,  S. Houck,  Xunkun Huang,  Kerwin Hui,  
 B. C. Huynh,  M. Ivanov,  Hyunjun Ji,  Hanjie Jiang,  B. Kaduk,  S. Kaehler,  
 K. Khistyaev,  Jaehoon Kim,  P. Klunzinger,  Z. Koczor-Benda,  
 Joong Hoon Koh,  D. Kosenkov,  L. Koulias,  T. Kowalczyk,  C. M. Krauter,  
 K. Kue,  A. Kunitsa,  T. Kus,  A. Landau,  K. V. Lawler,  D. Lefrancois,  
 S. Lehtola,  Rain Li,  Yi-Pei Li,  Jiashu Liang,  M. Liebenthal,  
 Hung-Hsuan Lin,  You-Sheng Lin,  Fenglai Liu,  Kuan-Yu Liu,  
 M. Loipersberger,  A. Luenser,  A. Manjanath,  P. Manohar,  E. Mansoor,  
 S. F. Manzer,  Shan-Ping Mao,  A. V. Marenich,  T. Markovich,  S. Mason,  
 S. A. Maurer,  P. F. McLaughlin,  M. F. S. J. Menger,  J.-M. Mewes,  
 S. A. Mewes,  P. Morgante,  J. W. Mullinax,  K. J. Oosterbaan,  G. Paran,  
 Alexander C. Paul,  Suranjan K. Paul,  F. Pavosevic,  Zheng Pei,  S. Prager,  
 E. I. Proynov,  E. Ramos,  B. Rana,  A. E. Rask,  A. Rettig,  R. M. Richard,  
 F. Rob,  E. Rossomme,  T. Scheele,  M. Scheurer,  M. Schneider,  
 N. Sergueev,  S. M. Sharada,  W. Skomorowski,  D. W. Small,  C. J. Stein,  
 Yu-Chuan Su,  E. J. Sundstrom,  Zhen Tao,  J. Thirman,  T. Tsuchimochi,  
 N. M. Tubman,  S. P. Veccham,  O. Vydrov,  J. Wenzel,  J. Witte,  A. Yamada,  
 Kun Yao,  S. Yeganeh,  S. R. Yost,  A. Zech,  Igor Ying Zhang,  Xing Zhang,  
 Yu Zhang,  D. Zuev,  A. Aspuru-Guzik,  A. T. Bell,  N. A. Besley,  
 K. B. Bravaya,  B. R. Brooks,  D. Casanova,  Jeng-Da Chai,  S. Coriani,  
 C. J. Cramer,  A. E. DePrince, III,  R. A. DiStasio Jr.,  A. Dreuw,  
 B. D. Dunietz,  T. R. Furlani,  W. A. Goddard III,  S. Grimme,  
 S. Hammes-Schiffer,  T. Head-Gordon,  W. J. Hehre,  Chao-Ping Hsu,  
 T.-C. Jagau,  Yousung Jung,  A. Klamt,  Jing Kong,  D. S. Lambrecht,  
 WanZhen Liang,  N. J. Mayhall,  C. W. McCurdy,  J. B. Neaton,  T. Neudecker,  
 C. Ochsenfeld,  J. A. Parkhill,  R. Peverati,  V. A. Rassolov,  Yihan Shao,  
 L. V. Slipchenko,  R. P. Steele,  J. E. Subotnik,  A. J. W. Thom,  
 A. Tkatchenko,  D. G. Truhlar,  T. Van Voorhis,  T. A. Wesolowski,  
 K. B. Whaley,  H. L. Woodcock III,  P. M. Zimmerman,  S. Faraji,  
 P. M. W. Gill,  M. Head-Gordon,  J. M. Herbert,  A. I. Krylov

 Additional authors since Version 5.4.0: 
 Chandrima Chakravarty,  L. Cunha,  R. Kang,  Yongbin Kim,  S. Kotaru,  
 Shaozhi Li,  Xiangyuan Li,  F. Matz,  A. Molle,  V. Parravicini,  
 Haisheng Ren,  Hengyuan Shen,  Yingli Su,  Hung-Yi Tsai,  C. Utku,  
 Fang Wang,  Jeff Yang,  F. Zeller

 Contributors to earlier versions of Q-Chem not listed above: 
 R. D. Adamson,  B. Austin,  R. Baer,  J. Baker,  G. J. O. Beran,  
 K. Brandhorst,  S. T. Brown,  E. F. C. Byrd,  Arup K. Chakraborty,  
 G. K. L. Chan,  Chun-Min Chang,  Yunqing Chen,  C.-L. Cheng,  
 Siu Hung Chien,  D. M. Chipman,  D. L. Crittenden,  H. Dachsel,  
 R. J. Doerksen,  A. D. Dutoi,  R. G. Edgar,  J. Fosso-Tande,  
 L. Fusti-Molnar,  D. Ghosh,  A. Ghysels,  A. Golubeva-Zadorozhnaya,  
 J. Gonthier,  M. S. Gordon,  S. R. Gwaltney,  G. Hawkins,  J. E. Herr,  
 A. Heyden,  S. Hirata,  E. G. Hohenstein,  G. Kedziora,  F. J. Keil,  
 C. Kelley,  Jihan Kim,  R. A. King,  R. Z. Khaliullin,  P. P. Korambath,  
 W. Kurlancheek,  A. Laurent,  A. M. Lee,  M. S. Lee,  S. V. Levchenko,  
 Ching Yeh Lin,  D. Liotard,  E. Livshits,  R. C. Lochan,  I. Lotan,  
 L. A. Martinez-Martinez,  P. E. Maslen,  N. Nair,  D. P. O'Neill,  
 D. Neuhauser,  E. Neuscamman,  C. M. Oana,  R. Olivares-Amaya,  R. Olson,  
 T. M. Perrine,  B. Peters,  P. A. Pieniazek,  A. Prociuk,  Y. M. Rhee,  
 J. Ritchie,  M. A. Rohrdanz,  E. Rosta,  N. J. Russ,  H. F. Schaefer III,  
 M. W. Schmidt,  N. E. Schultz,  S. Sharma,  N. Shenvi,  C. D. Sherrill,  
 A. C. Simmonett,  A. Sodt,  T. Stein,  D. Stuck,  K. S. Thanthiriwatte,  
 V. Vanovschi,  L. Vogt,  Tao Wang,  A. Warshel,  M. A. Watson,  
 C. F. Williams,  Q. Wu,  X. Xu,  Jun Yang,  W. Zhang,  Yan Zhao

   Please cite Q-Chem as follows:
  "Software for the frontiers of quantum chemistry:
   An overview of developments in the Q-Chem 5 package"
   J. Chem. Phys. 155, 084801 (2021)
   https://doi.org/10.1063/5.0055522 (open access)

 Q-Chem 5.4.2 for Intel X86 EM64T Linux

 Parts of Q-Chem use Armadillo 9.900.5 (Nocturnal Misbehaviour).
 http://arma.sourceforge.net/

 Q-Chem begins on Wed Jan  3 19:01:24 2024  

 Host: 
0

     Scratch files written to /scratch/qchem430090//
 Dec1321 |scratch|qcdevops|jenkins|workspace|build_RNUM 5684   
 Processing $rem in /home/kchung25/qchem/5.4.0/config/preferences:
 Processing $rem in /home/kchung25/.qchemrc:

 Q-Chem warning in module libgen/rem_setup.C, line 3079:

 Neither GIA nor STOLL is specified by user. Use STOLL as the default


 Checking the input file for inconsistencies... 	...done.

--------------------------------------------------------------
User input:
--------------------------------------------------------------
$molecule
-1 1
--
0 1
O      0.000000     0.000000     0.000000
H     -0.544891     0.788345     0.000000
H      0.902246     0.394244     0.000000
--
-1 1
Br     3.212066     0.000000     0.000000
$end

$rem
JOBTYPE          eda
EDA2             1
METHOD           wB97M-V
BASIS            def2-TZVPPD
SYMMETRY         false
MEM_TOTAL        50000
MEM_STATIC       10000
THRESH           14
SCF_CONVERGENCE  8
XC_GRID          000099000590
NL_GRID          1
EDA_CLS_DISP     true
FD_MAT_VEC_PROD  FALSE
$end
--------------------------------------------------------------
 ----------------------------------------------------------------
             Standard Nuclear Orientation (Angstroms)
    I     Atom           X                Y                Z
 ----------------------------------------------------------------
    1      O       2.5033507339    -0.1226305068    -0.0000000000
    2      H       3.0781525732     0.6441790435     0.0000000000
    3      H       1.6169316698     0.3060155231     0.0000000000
    4      Br     -0.7063397175     0.0008814139     0.0000000000
 ----------------------------------------------------------------
 Molecular Point Group                 Cs    NOp =  2
 Largest Abelian Subgroup              Cs    NOp =  2
 Nuclear Repulsion Energy =          67.92785933 hartrees
 There are       23 alpha and       23 beta electrons
 Requested basis set is def2-TZVPPD
 There are 47 shells and 131 basis functions

 Q-Chem warning in module libmdc/get_mega.C, line 171:

 Allowed MEM_STATIC has been capped at MEM_STATIC=8191.
 Reduce the value of MEM_STATIC to silence this warning.


 Total QAlloc Memory Limit  50000 MB
 Mega-Array Size      8007 MB
 MEM_STATIC part      8191 MB

                       Distance Matrix (Angstroms)
             O (  1)   H (  2)   H (  3)
   H (  2)  0.958329
   H (  3)  0.984620  1.499840
   Br(  4)  3.212066  3.838778  2.343224
 
 A cutoff of  1.0D-14 yielded   1071 shell pairs
 There are      8475 function pairs (     10710 Cartesian)
 Smallest overlap matrix eigenvalue = 3.72E-04

 Scale SEOQF with 1.000000e-01/1.000000e-01/1.000000e-01

 Standard Electronic Orientation quadrupole field applied
 Nucleus-field energy     =     0.0000000029 hartrees

 -----------------------------------------------------------------------
  General SCF calculation program by
  Eric Jon Sundstrom, Paul Horn, Yuezhi Mao, Dmitri Zuev, Alec White,
  David Stuck, Shaama M.S., Shane Yost, Joonho Lee, David Small,
  Daniel Levine, Susi Lehtola, Hugh Burton, Evgeny Epifanovsky,
  Bang C. Huynh
 -----------------------------------------------------------------------
================================================================
                 ALMO-EDA with the EDA2 driver                  
================================================================
 The second-generation ALMO-EDA (for DFT):                      
 P. R. Horn, Y. Mao and M. Head-Gordon, PCCP, 18, 23067 (2016)  
 Y. Mao et al. Annu. Rev. Phys. Chem. 72, 641 (2021)            
 Decomposition of the frozen energy:                            
 P. R. Horn, Y. Mao and M. Head-Gordon, JCP, 144, 114107 (2016) 
 FERF model for polarization:                                   
 P. R. Horn and M. Head-Gordon, JCP, 143, 114111 (2015)         
================================================================
 Using eda2 option set 1
 Option set summary: Frozen orbital wavefunction, initial wavefunction decomposition, and nDQ polarization.
--------------------------------
Printing EDA Options
--------------------------------
eda_child_super_basis      0
fragmo_guess_mode          0
child_mp                   1
child_mp_orders            232
cls_elec                   1
cls_disp                   1
scfmi_mode                 1
scfmi_occs                 0
scfmi_virts                0
frz_relax                  0
frz_relax_method           0
dc_pen_start               0
dc_pen_conv                0
dc_pen_increment           0
dc_pen_steps               0
dc_pen_thresh_factor       0
dc_pen_pre_newton_thresh   0
frz_ortho_decomp           1
frz_ortho_decomp_conv      6
plot_mo_ortho_frz          0
frgm_method                2
scfmi_freeze_ss            0
separate_rehyb             0
plot_diff_den              0
eda_nocv                   0
eda_vct_relax              1
disp_free_x                0
disp_free_c                0
eda_bsse                   0
eda_pct_a                  0
eda_covp                   0
--------------------------------
Attempting to make child job directory: /scratch/qchem430090//Frg1/
Attempting to make child job directory: /scratch/qchem430090//Frg2/
Creating input file /scratch/qchem430090/Frg1.input
using default PutDataFrgm: nothing
calling putenv with: QCSCRATCH=/scratch/qchem430090/ 
Spawning Job For Fragment 0
Done Job For Fragment 0
calling putenv with: QCSCRATCH=/scratch 
calling putenv with: QCTHREADS=6 
Creating input file /scratch/qchem430090/Frg2.input
using default PutDataFrgm: nothing
calling putenv with: QCSCRATCH=/scratch/qchem430090/ 
Spawning Job For Fragment 1
Done Job For Fragment 1
calling putenv with: QCSCRATCH=/scratch 
calling putenv with: QCTHREADS=6 
Doing General SCFMI
 Exchange:     0.1500 Hartree-Fock + 1.0000 wB97M-V + LR-HF
 Correlation:  1.0000 wB97M-V
 Using Euler-Maclaurin-Lebedev (99,590) quadrature formula
 Nonlocal Correlation:  VV10 with C = 0.0100 and b = 6.00 and scale = 1.00000
 Grid used for NLC:  SG-1 standard quadrature
performing fock build before subrot guess so that all methods have access
Printing subrot_rss_gen Method Specification:
Occupied Subspace Method is 0
Virtual Subspace Method is 0
Energy of the unrelaxed supersystem initial determinant -2650.534114854954
write pseudocanon occs and virts to disk
write pseudocanon orbital energies to disk
Tolerance of ortho_decomp_scf: 1.00e-06
GDM subspace size: 20
Beginning the Orthogonal Decomposition of the Initial Supersystem Wavefunction
    1   -2650.4687373780      4.96e-01     ortho_decomp Preconditoned Steepest Descent
    2   -2650.4890488712      3.08e-03     ortho_decomp BFGS Step
    3   -2650.4890662068      3.43e-04     ortho_decomp BFGS Step
    4   -2650.4890662897      1.10e-05     ortho_decomp BFGS Step
    5   -2650.4890662897      2.88e-07     ortho_decomp 00000 Convergence criterion met
 Hartree-Fock
 Hartree-Fock
 Hartree-Fock
 Exchange:     0.1500 Hartree-Fock + 1.0000 wB97M-V + LR-HF
 Correlation:  1.0000 wB97M-V
 Using Euler-Maclaurin-Lebedev (99,590) quadrature formula
 Nonlocal Correlation:  VV10 with C = 0.0100 and b = 6.00 and scale = 1.00000
 Grid used for NLC:  SG-1 standard quadrature
 Long-range K will be added via erf
 Coulomb attenuation parameter = 0.3 bohr**(-1)
 Nonlocal correlation = 1.921802149117e-01
Doing General SCFMI
 Exchange:     0.1500 Hartree-Fock + 1.0000 wB97M-V + LR-HF
 Correlation:  1.0000 wB97M-V
 Using Euler-Maclaurin-Lebedev (99,590) quadrature formula
 Nonlocal Correlation:  VV10 with C = 0.0100 and b = 6.00 and scale = 1.00000
 Grid used for NLC:  SG-1 standard quadrature
performing fock build at end of subrot_r(subrot) constructor so that all methods have access
<S^2> of initial wavefunction before polarization iterations 0.0000000000
Beginning iterations for the determination of the polarized wavefunction
Energy prior to optimization (guess energy) = -2650.534114854956
Begin Timing: Total SCF Calculation
begin iterations for algorithm: DIIS         
the SCF tolerance is set to 1.00e-08
    1   -2650.5341148550      8.34e-04     00000 
    2   -2650.5380382871      3.37e-04     00000 
    3   -2650.5383726522      1.66e-04     00000 
    4   -2650.5384619335      6.23e-05     00000 
    5   -2650.5384803933      1.83e-05     00000 
    6   -2650.5384835987      8.57e-06     00000 
    7   -2650.5384840502      2.89e-06     00000 
    8   -2650.5384841111      8.78e-07     00000 
    9   -2650.5384841159      2.28e-07     00000 
   10   -2650.5384841164      9.33e-08     00000 
   11   -2650.5384841164      4.03e-08     00000 
   12   -2650.5384841164      1.63e-08     00000 
   13   -2650.5384841164      5.68e-09     00000 Convergence criterion met
write pseudocanon occs and virts to disk
write pseudocanon orbital energies to disk
Timing for Total SCF: 12.00s (wall), 72.76s (cpu)
<S^2> of polarized wavefunction after polarization iterations 0.0000000000
relaxing scfmi constraint to allow all rotations in the entire AO span
Doing General SCFMI
 Exchange:     0.1500 Hartree-Fock + 1.0000 wB97M-V + LR-HF
 Correlation:  1.0000 wB97M-V
 Using Euler-Maclaurin-Lebedev (99,590) quadrature formula
 Nonlocal Correlation:  VV10 with C = 0.0100 and b = 6.00 and scale = 1.00000
 Grid used for NLC:  SG-1 standard quadrature
performing fock build at end of subrot_r(subrot) constructor so that all methods have access
<S^2> of polarized wavefunction before ct-allowed iterations 0.0000000000
Beginning iterations for the determination of the CT-Allowed wavefunction
Energy prior to optimization (guess energy) = -2650.538484116400
Begin Timing: Total SCF Calculation
begin iterations for algorithm: DIIS         
the SCF tolerance is set to 1.00e-08
    1   -2650.5384841164      9.28e-04     00000 
    2   -2650.5442950034      1.18e-04     00000 
    3   -2650.5446094976      4.55e-05     00000 
    4   -2650.5446305917      3.14e-05     00000 
    5   -2650.5446378915      5.27e-06     00000 
    6   -2650.5446382726      2.35e-06     00000 
    7   -2650.5446383605      4.89e-07     00000 
    8   -2650.5446383676      1.20e-07     00000 
    9   -2650.5446383681      3.00e-08     00000 
   10   -2650.5446383681      7.17e-09     00000 Convergence criterion met
write pseudocanon occs and virts to disk
write pseudocanon orbital energies to disk
Timing for Total SCF: 9.00s (wall), 54.90s (cpu)
<S^2> of ct_allowed wavefunction after ct-allowed iterations 0.0000000000

================================
        Results of EDA2         
================================
Basic EDA Quantities
--------------------
Fragment Energies (Ha):
1  -76.4355156294
2-2574.0946475101
--------------------
  E_prp (kJ/mol) = 0.0000
  E_frz (kJ/mol) = -10.3754
  E_pol (kJ/mol) = -11.4716
  E_vct (kJ/mol) = -16.1582
  E_int (kJ/mol) = -38.0052
--------------------


Decomposition of frozen interaction energy
--------------------
  --------------------
  Orthogonal Frozen Decomposition:
  --------------------
     E_elec   (ELEC)   (kJ/mol) = -82.7131
     E_pauli  (PAULI)  (kJ/mol) = 84.1665
     E_disp   (DISP)   (kJ/mol) = -11.8287
  --------------------
  Classical Frozen Decomposition:
  --------------------
     E_cls_elec  (CLS ELEC)  (kJ/mol) = -53.3710
     E_mod_pauli (MOD PAULI) (kJ/mol) = 55.6869 (FRZ - CLS ELEC - CLS DISP)
     E_cls_disp  (CLS DISP)  (kJ/mol) = -12.6913
  --------------------
--------------------

Simplified EDA Summary (kJ/mol)
--------------------
 PREPARATION      0.0000
 FROZEN           -10.3754 (ELEC + PAULI + DISP)
[ELEC + PAULI = 2.3159, DISP = -12.6913]
 POLARIZATION    -11.4716
 CHARGE TRANSFER -16.1582
 TOTAL           -38.0052     (PRP + FRZ + POL + CT)
--------------------
 
 --------------------------------------------------------------
             Orbital Energies (a.u.) and Symmetries
 --------------------------------------------------------------
 
 Alpha MOs, Restricted
 -- Occupied --                  
-483.22  -62.53  -56.21  -56.21  -56.21  -19.17   -8.61   -6.39
  1 A'    2 A'    3 A'    1 A"    4 A'    5 A'    6 A'    7 A'                 
 -6.389  -6.389  -2.472  -2.471  -2.471  -2.471  -2.471  -0.968
  2 A"    8 A'    9 A'    3 A"   10 A'   11 A'    4 A"   12 A'                 
 -0.599  -0.457  -0.341  -0.259  -0.140  -0.135  -0.135
 13 A'   14 A'   15 A'    5 A"   16 A'    6 A"   17 A'                         
 -- Virtual --                   
  0.157   0.190   0.198   0.199   0.229   0.240   0.248   0.321
 18 A'   19 A'   20 A'    7 A"   21 A'    8 A"   22 A'   23 A'                 
  0.338   0.360   0.364   0.379   0.399   0.403   0.407   0.414
 24 A'    9 A"   25 A'   10 A"   26 A'   27 A'   11 A"   28 A'                 
  0.449   0.493   0.493   0.529   0.601   0.624   0.642   0.643
 29 A'   30 A'   12 A"   31 A'   32 A'   33 A'   34 A'   13 A"                 
  0.670   0.683   0.691   0.730   0.759   0.765   0.767   0.785
 14 A"   35 A'   36 A'   15 A"   37 A'   16 A"   38 A'   17 A"                 
  0.796   0.866   0.900   0.921   0.981   0.999   1.104   1.214
 39 A'   40 A'   41 A'   42 A'   18 A"   43 A'   44 A'   19 A"                 
  1.250   1.278   1.280   1.339   1.460   1.540   1.564   1.829
 45 A'   20 A"   46 A'   47 A'   48 A'   49 A'   50 A'   21 A"                 
  1.829   1.851   1.859   1.878   1.888   1.888   1.890   1.893
 51 A'   22 A"   52 A'   53 A'   23 A"   54 A'   24 A"   55 A'                 
  1.906   1.922   2.018   2.020   2.090   2.107   2.141   2.181
 25 A"   56 A'   26 A"   57 A'   58 A'   27 A"   59 A'   28 A"                 
  2.322   2.413   2.509   2.750   2.951   3.065   3.324   3.326
 60 A'   61 A'   62 A'   63 A'   64 A'   29 A"   30 A"   65 A'                 
  3.488   3.607   3.639   3.671   3.716   3.996   4.034   4.109
 66 A'   67 A'   68 A'   31 A"   69 A'   70 A'   32 A"   33 A"                 
  4.185   4.257   4.341   4.381   4.491   4.495   4.503   4.526
 71 A'   34 A"   35 A"   72 A'   73 A'   36 A"   74 A'   37 A"                 
  4.537   4.572   4.898   4.991   5.145   5.386   5.872   6.488
 75 A'   76 A'   77 A'   78 A'   79 A'   80 A'   38 A"   81 A'                 
  6.648   6.751   6.759   6.840   6.949   7.052   7.215   7.699
 39 A"   82 A'   40 A"   41 A"   83 A'   42 A"   84 A'   85 A'                 
  7.825   7.934   7.963  44.478
 86 A'   87 A'   88 A'   89 A'                                                 
 
 Beta MOs, Restricted
 -- Occupied --                  
-483.22  -62.53  -56.21  -56.21  -56.21  -19.17   -8.61   -6.39
  1 A'    2 A'    3 A'    1 A"    4 A'    5 A'    6 A'    7 A'                 
 -6.389  -6.389  -2.472  -2.471  -2.471  -2.471  -2.471  -0.968
  2 A"    8 A'    9 A'    3 A"   10 A'   11 A'    4 A"   12 A'                 
 -0.599  -0.457  -0.341  -0.259  -0.140  -0.135  -0.135
 13 A'   14 A'   15 A'    5 A"   16 A'    6 A"   17 A'                         
 -- Virtual --                   
  0.157   0.190   0.198   0.199   0.229   0.240   0.248   0.321
 18 A'   19 A'   20 A'    7 A"   21 A'    8 A"   22 A'   23 A'                 
  0.338   0.360   0.364   0.379   0.399   0.403   0.407   0.414
 24 A'    9 A"   25 A'   10 A"   26 A'   27 A'   11 A"   28 A'                 
  0.449   0.493   0.493   0.529   0.601   0.624   0.642   0.643
 29 A'   30 A'   12 A"   31 A'   32 A'   33 A'   34 A'   13 A"                 
  0.670   0.683   0.691   0.730   0.759   0.765   0.767   0.785
 14 A"   35 A'   36 A'   15 A"   37 A'   16 A"   38 A'   17 A"                 
  0.796   0.866   0.900   0.921   0.981   0.999   1.104   1.214
 39 A'   40 A'   41 A'   42 A'   18 A"   43 A'   44 A'   19 A"                 
  1.250   1.278   1.280   1.339   1.460   1.540   1.564   1.829
 45 A'   20 A"   46 A'   47 A'   48 A'   49 A'   50 A'   21 A"                 
  1.829   1.851   1.859   1.878   1.888   1.888   1.890   1.893
 51 A'   22 A"   52 A'   53 A'   23 A"   54 A'   24 A"   55 A'                 
  1.906   1.922   2.018   2.020   2.090   2.107   2.141   2.181
 25 A"   56 A'   26 A"   57 A'   58 A'   27 A"   59 A'   28 A"                 
  2.322   2.413   2.509   2.750   2.951   3.065   3.324   3.326
 60 A'   61 A'   62 A'   63 A'   64 A'   29 A"   30 A"   65 A'                 
  3.488   3.607   3.639   3.671   3.716   3.996   4.034   4.109
 66 A'   67 A'   68 A'   31 A"   69 A'   70 A'   32 A"   33 A"                 
  4.185   4.257   4.341   4.381   4.491   4.495   4.503   4.526
 71 A'   34 A"   35 A"   72 A'   73 A'   36 A"   74 A'   37 A"                 
  4.537   4.572   4.898   4.991   5.145   5.386   5.872   6.488
 75 A'   76 A'   77 A'   78 A'   79 A'   80 A'   38 A"   81 A'                 
  6.648   6.751   6.759   6.840   6.949   7.052   7.215   7.699
 39 A"   82 A'   40 A"   41 A"   83 A'   42 A"   84 A'   85 A'                 
  7.825   7.934   7.963  44.478
 86 A'   87 A'   88 A'   89 A'                                                 
 --------------------------------------------------------------
 
          Ground-State Mulliken Net Atomic Charges

     Atom                 Charge (a.u.)
  ----------------------------------------
      1 O                    -0.400803
      2 H                     0.120618
      3 H                     0.191579
      4 Br                   -0.911394
  ----------------------------------------
  Sum of atomic charges =    -1.000000

 -----------------------------------------------------------------
                    Cartesian Multipole Moments
 -----------------------------------------------------------------
    Charge (ESU x 10^10)
                -4.8032
    Dipole Moment (Debye)
         X       1.6197      Y       1.5201      Z       0.0000
       Tot       2.2213
    Quadrupole Moments (Debye-Ang)
        XX     -36.8466     XY       4.9940     YY     -30.4061
        XZ       0.0000     YZ       0.0000     ZZ     -31.8787
    Octopole Moments (Debye-Ang^2)
       XXX      -8.2555    XXY      13.4771    XYY       0.5381
       YYY       0.2384    XXZ       0.0000    XYZ       0.0000
       YYZ       0.0000    XZZ      -3.4838    YZZ      -0.0678
       ZZZ      -0.0000
    Hexadecapole Moments (Debye-Ang^3)
      XXXX    -389.1908   XXXY      42.5104   XXYY     -69.4434
      XYYY       3.5860   YYYY     -53.8169   XXXZ       0.0000
      XXYZ       0.0000   XYYZ       0.0000   YYYZ      -0.0000
      XXZZ     -80.7884   XYZZ       0.7166   YYZZ     -17.9748
      XZZZ       0.0000   YZZZ      -0.0000   ZZZZ     -53.5516
 -----------------------------------------------------------------
 Total job time:  60.97s(wall), 230.72s(cpu) 
 Wed Jan  3 19:02:25 2024

        *************************************************************
        *                                                           *
        *  Thank you very much for using Q-Chem.  Have a nice day.  *
        *                                                           *
        *************************************************************


