
Running Job 1 of 1 051_Br-Water_Deg00_-45_almo.in
qchem 051_Br-Water_Deg00_-45_almo.in_430007.0 /scratch/qchem430007/ 6
/home/kchung25/qchem/5.4.0/exe/qcprog.exe_s 051_Br-Water_Deg00_-45_almo.in_430007.0 /scratch/qchem430007/
                  Welcome to Q-Chem
     A Quantum Leap Into The Future Of Chemistry


 Q-Chem 5.4, Q-Chem, Inc., Pleasanton, CA (2021)

 E. Epifanovsky,  A. T. B. Gilbert,  Xintian Feng,  Joonho Lee,  Yuezhi Mao,  
 N. Mardirossian,  P. Pokhilko,  A. White,  M. Wormit,  M. P. Coons,  
 A. L. Dempwolff,  Zhengting Gan,  D. Hait,  P. R. Horn,  L. D. Jacobson,  
 I. Kaliman,  J. Kussmann,  A. W. Lange,  Ka Un Lao,  D. S. Levine,  Jie Liu,  
 S. C. McKenzie,  A. F. Morrison,  K. Nanda,  F. Plasser,  D. R. Rehn,  
 M. L. Vidal,  Zhi-Qiang You,  Ying Zhu,  B. Alam,  B. Albrecht,  
 A. Aldossary,  E. Alguire,  J. H. Andersen,  D. Barton,  K. Begam,  A. Behn,  
 Y. A. Bernard,  E. J. Berquist,  H. Burton,  A. Carreras,  K. Carter-Fenk,  
 Romit Chakraborty,  A. D. Chien,  K. D. Closser,  V. Cofer-Shabica,  
 S. Dasgupta,  Jia Deng,  M. de Wergifosse,  M. Diedenhofen,  Hainam Do,  
 S. Ehlert,  Po-Tung Fang,  S. Fatehi,  Qingguo Feng,  T. Friedhoff,  
 J. Gayvert,  Qinghui Ge,  G. Gidofalvi,  M. Goldey,  J. Gomes,  
 C. Gonzalez-Espinoza,  S. Gulania,  A. Gunina,  M. W. D. Hanson-Heine,  
 P. H. P. Harbach,  A. W. Hauser,  M. F. Herbst,  M. Hernandez Vera,  
 M. Hodecker,  Z. C. Holden,  S. Houck,  Xunkun Huang,  Kerwin Hui,  
 B. C. Huynh,  M. Ivanov,  Hyunjun Ji,  Hanjie Jiang,  B. Kaduk,  S. Kaehler,  
 K. Khistyaev,  Jaehoon Kim,  P. Klunzinger,  Z. Koczor-Benda,  
 Joong Hoon Koh,  D. Kosenkov,  L. Koulias,  T. Kowalczyk,  C. M. Krauter,  
 K. Kue,  A. Kunitsa,  T. Kus,  A. Landau,  K. V. Lawler,  D. Lefrancois,  
 S. Lehtola,  Rain Li,  Yi-Pei Li,  Jiashu Liang,  M. Liebenthal,  
 Hung-Hsuan Lin,  You-Sheng Lin,  Fenglai Liu,  Kuan-Yu Liu,  
 M. Loipersberger,  A. Luenser,  A. Manjanath,  P. Manohar,  E. Mansoor,  
 S. F. Manzer,  Shan-Ping Mao,  A. V. Marenich,  T. Markovich,  S. Mason,  
 S. A. Maurer,  P. F. McLaughlin,  M. F. S. J. Menger,  J.-M. Mewes,  
 S. A. Mewes,  P. Morgante,  J. W. Mullinax,  K. J. Oosterbaan,  G. Paran,  
 Alexander C. Paul,  Suranjan K. Paul,  F. Pavosevic,  Zheng Pei,  S. Prager,  
 E. I. Proynov,  E. Ramos,  B. Rana,  A. E. Rask,  A. Rettig,  R. M. Richard,  
 F. Rob,  E. Rossomme,  T. Scheele,  M. Scheurer,  M. Schneider,  
 N. Sergueev,  S. M. Sharada,  W. Skomorowski,  D. W. Small,  C. J. Stein,  
 Yu-Chuan Su,  E. J. Sundstrom,  Zhen Tao,  J. Thirman,  T. Tsuchimochi,  
 N. M. Tubman,  S. P. Veccham,  O. Vydrov,  J. Wenzel,  J. Witte,  A. Yamada,  
 Kun Yao,  S. Yeganeh,  S. R. Yost,  A. Zech,  Igor Ying Zhang,  Xing Zhang,  
 Yu Zhang,  D. Zuev,  A. Aspuru-Guzik,  A. T. Bell,  N. A. Besley,  
 K. B. Bravaya,  B. R. Brooks,  D. Casanova,  Jeng-Da Chai,  S. Coriani,  
 C. J. Cramer,  A. E. DePrince, III,  R. A. DiStasio Jr.,  A. Dreuw,  
 B. D. Dunietz,  T. R. Furlani,  W. A. Goddard III,  S. Grimme,  
 S. Hammes-Schiffer,  T. Head-Gordon,  W. J. Hehre,  Chao-Ping Hsu,  
 T.-C. Jagau,  Yousung Jung,  A. Klamt,  Jing Kong,  D. S. Lambrecht,  
 WanZhen Liang,  N. J. Mayhall,  C. W. McCurdy,  J. B. Neaton,  T. Neudecker,  
 C. Ochsenfeld,  J. A. Parkhill,  R. Peverati,  V. A. Rassolov,  Yihan Shao,  
 L. V. Slipchenko,  R. P. Steele,  J. E. Subotnik,  A. J. W. Thom,  
 A. Tkatchenko,  D. G. Truhlar,  T. Van Voorhis,  T. A. Wesolowski,  
 K. B. Whaley,  H. L. Woodcock III,  P. M. Zimmerman,  S. Faraji,  
 P. M. W. Gill,  M. Head-Gordon,  J. M. Herbert,  A. I. Krylov

 Additional authors since Version 5.4.0: 
 Chandrima Chakravarty,  L. Cunha,  R. Kang,  Yongbin Kim,  S. Kotaru,  
 Shaozhi Li,  Xiangyuan Li,  F. Matz,  A. Molle,  V. Parravicini,  
 Haisheng Ren,  Hengyuan Shen,  Yingli Su,  Hung-Yi Tsai,  C. Utku,  
 Fang Wang,  Jeff Yang,  F. Zeller

 Contributors to earlier versions of Q-Chem not listed above: 
 R. D. Adamson,  B. Austin,  R. Baer,  J. Baker,  G. J. O. Beran,  
 K. Brandhorst,  S. T. Brown,  E. F. C. Byrd,  Arup K. Chakraborty,  
 G. K. L. Chan,  Chun-Min Chang,  Yunqing Chen,  C.-L. Cheng,  
 Siu Hung Chien,  D. M. Chipman,  D. L. Crittenden,  H. Dachsel,  
 R. J. Doerksen,  A. D. Dutoi,  R. G. Edgar,  J. Fosso-Tande,  
 L. Fusti-Molnar,  D. Ghosh,  A. Ghysels,  A. Golubeva-Zadorozhnaya,  
 J. Gonthier,  M. S. Gordon,  S. R. Gwaltney,  G. Hawkins,  J. E. Herr,  
 A. Heyden,  S. Hirata,  E. G. Hohenstein,  G. Kedziora,  F. J. Keil,  
 C. Kelley,  Jihan Kim,  R. A. King,  R. Z. Khaliullin,  P. P. Korambath,  
 W. Kurlancheek,  A. Laurent,  A. M. Lee,  M. S. Lee,  S. V. Levchenko,  
 Ching Yeh Lin,  D. Liotard,  E. Livshits,  R. C. Lochan,  I. Lotan,  
 L. A. Martinez-Martinez,  P. E. Maslen,  N. Nair,  D. P. O'Neill,  
 D. Neuhauser,  E. Neuscamman,  C. M. Oana,  R. Olivares-Amaya,  R. Olson,  
 T. M. Perrine,  B. Peters,  P. A. Pieniazek,  A. Prociuk,  Y. M. Rhee,  
 J. Ritchie,  M. A. Rohrdanz,  E. Rosta,  N. J. Russ,  H. F. Schaefer III,  
 M. W. Schmidt,  N. E. Schultz,  S. Sharma,  N. Shenvi,  C. D. Sherrill,  
 A. C. Simmonett,  A. Sodt,  T. Stein,  D. Stuck,  K. S. Thanthiriwatte,  
 V. Vanovschi,  L. Vogt,  Tao Wang,  A. Warshel,  M. A. Watson,  
 C. F. Williams,  Q. Wu,  X. Xu,  Jun Yang,  W. Zhang,  Yan Zhao

   Please cite Q-Chem as follows:
  "Software for the frontiers of quantum chemistry:
   An overview of developments in the Q-Chem 5 package"
   J. Chem. Phys. 155, 084801 (2021)
   https://doi.org/10.1063/5.0055522 (open access)

 Q-Chem 5.4.2 for Intel X86 EM64T Linux

 Parts of Q-Chem use Armadillo 9.900.5 (Nocturnal Misbehaviour).
 http://arma.sourceforge.net/

 Q-Chem begins on Wed Jan  3 19:00:25 2024  

 Host: 
0

     Scratch files written to /scratch/qchem430007//
 Dec1321 |scratch|qcdevops|jenkins|workspace|build_RNUM 5684   
 Processing $rem in /home/kchung25/qchem/5.4.0/config/preferences:
 Processing $rem in /home/kchung25/.qchemrc:

 Q-Chem warning in module libgen/rem_setup.C, line 3079:

 Neither GIA nor STOLL is specified by user. Use STOLL as the default


 Checking the input file for inconsistencies... 	...done.

--------------------------------------------------------------
User input:
--------------------------------------------------------------
$molecule
-1 1
--
0 1
O      0.000000     0.000000     0.000000
H     -0.730363     0.620454     0.000000
H      0.769465     0.614329     0.000000
--
-1 1
Br     3.212066     0.000000     0.000000
$end

$rem
JOBTYPE          eda
EDA2             1
METHOD           wB97M-V
BASIS            def2-TZVPPD
SYMMETRY         false
MEM_TOTAL        50000
MEM_STATIC       10000
THRESH           14
SCF_CONVERGENCE  8
XC_GRID          000099000590
NL_GRID          1
EDA_CLS_DISP     true
FD_MAT_VEC_PROD  FALSE
$end
--------------------------------------------------------------
 ----------------------------------------------------------------
             Standard Nuclear Orientation (Angstroms)
    I     Atom           X                Y                Z
 ----------------------------------------------------------------
    1      O       2.4962906745    -0.1224703279    -0.0000000000
    2      H       3.2497231314     0.4697566646     0.0000000000
    3      H       1.7507473430     0.5206794582     0.0000000000
    4      Br     -0.7134513106    -0.0003049571    -0.0000000000
 ----------------------------------------------------------------
 Molecular Point Group                 Cs    NOp =  2
 Largest Abelian Subgroup              Cs    NOp =  2
 Nuclear Repulsion Energy =          67.19329999 hartrees
 There are       23 alpha and       23 beta electrons
 Requested basis set is def2-TZVPPD
 There are 47 shells and 131 basis functions

 Q-Chem warning in module libmdc/get_mega.C, line 171:

 Allowed MEM_STATIC has been capped at MEM_STATIC=8191.
 Reduce the value of MEM_STATIC to silence this warning.


 Total QAlloc Memory Limit  50000 MB
 Mega-Array Size      8007 MB
 MEM_STATIC part      8191 MB

                       Distance Matrix (Angstroms)
             O (  1)   H (  2)   H (  3)
   H (  2)  0.958328
   H (  3)  0.984620  1.499841
   Br(  4)  3.212066  3.990953  2.518670
 
 A cutoff of  1.0D-14 yielded   1070 shell pairs
 There are      8460 function pairs (     10692 Cartesian)
 Smallest overlap matrix eigenvalue = 5.22E-04

 Scale SEOQF with 1.000000e-01/1.000000e-01/1.000000e-01

 Standard Electronic Orientation quadrupole field applied
 Nucleus-field energy     =     0.0000000029 hartrees

 -----------------------------------------------------------------------
  General SCF calculation program by
  Eric Jon Sundstrom, Paul Horn, Yuezhi Mao, Dmitri Zuev, Alec White,
  David Stuck, Shaama M.S., Shane Yost, Joonho Lee, David Small,
  Daniel Levine, Susi Lehtola, Hugh Burton, Evgeny Epifanovsky,
  Bang C. Huynh
 -----------------------------------------------------------------------
================================================================
                 ALMO-EDA with the EDA2 driver                  
================================================================
 The second-generation ALMO-EDA (for DFT):                      
 P. R. Horn, Y. Mao and M. Head-Gordon, PCCP, 18, 23067 (2016)  
 Y. Mao et al. Annu. Rev. Phys. Chem. 72, 641 (2021)            
 Decomposition of the frozen energy:                            
 P. R. Horn, Y. Mao and M. Head-Gordon, JCP, 144, 114107 (2016) 
 FERF model for polarization:                                   
 P. R. Horn and M. Head-Gordon, JCP, 143, 114111 (2015)         
================================================================
 Using eda2 option set 1
 Option set summary: Frozen orbital wavefunction, initial wavefunction decomposition, and nDQ polarization.
--------------------------------
Printing EDA Options
--------------------------------
eda_child_super_basis      0
fragmo_guess_mode          0
child_mp                   1
child_mp_orders            232
cls_elec                   1
cls_disp                   1
scfmi_mode                 1
scfmi_occs                 0
scfmi_virts                0
frz_relax                  0
frz_relax_method           0
dc_pen_start               0
dc_pen_conv                0
dc_pen_increment           0
dc_pen_steps               0
dc_pen_thresh_factor       0
dc_pen_pre_newton_thresh   0
frz_ortho_decomp           1
frz_ortho_decomp_conv      6
plot_mo_ortho_frz          0
frgm_method                2
scfmi_freeze_ss            0
separate_rehyb             0
plot_diff_den              0
eda_nocv                   0
eda_vct_relax              1
disp_free_x                0
disp_free_c                0
eda_bsse                   0
eda_pct_a                  0
eda_covp                   0
--------------------------------
Attempting to make child job directory: /scratch/qchem430007//Frg1/
Attempting to make child job directory: /scratch/qchem430007//Frg2/
Creating input file /scratch/qchem430007/Frg1.input
using default PutDataFrgm: nothing
calling putenv with: QCSCRATCH=/scratch/qchem430007/ 
Spawning Job For Fragment 0
Done Job For Fragment 0
calling putenv with: QCSCRATCH=/scratch 
calling putenv with: QCTHREADS=6 
Creating input file /scratch/qchem430007/Frg2.input
using default PutDataFrgm: nothing
calling putenv with: QCSCRATCH=/scratch/qchem430007/ 
Spawning Job For Fragment 1
Done Job For Fragment 1
calling putenv with: QCSCRATCH=/scratch 
calling putenv with: QCTHREADS=6 
Doing General SCFMI
 Exchange:     0.1500 Hartree-Fock + 1.0000 wB97M-V + LR-HF
 Correlation:  1.0000 wB97M-V
 Using Euler-Maclaurin-Lebedev (99,590) quadrature formula
 Nonlocal Correlation:  VV10 with C = 0.0100 and b = 6.00 and scale = 1.00000
 Grid used for NLC:  SG-1 standard quadrature
performing fock build before subrot guess so that all methods have access
Printing subrot_rss_gen Method Specification:
Occupied Subspace Method is 0
Virtual Subspace Method is 0
Energy of the unrelaxed supersystem initial determinant -2650.531223075558
write pseudocanon occs and virts to disk
write pseudocanon orbital energies to disk
Tolerance of ortho_decomp_scf: 1.00e-06
GDM subspace size: 20
Beginning the Orthogonal Decomposition of the Initial Supersystem Wavefunction
    1   -2650.4799794157      4.40e-01     ortho_decomp Preconditoned Steepest Descent
    2   -2650.4970055827      2.68e-03     ortho_decomp BFGS Step
    3   -2650.4970178266      2.62e-04     ortho_decomp BFGS Step
    4   -2650.4970178830      8.55e-06     ortho_decomp BFGS Step
    5   -2650.4970178830      2.32e-07     ortho_decomp 00000 Convergence criterion met
 Hartree-Fock
 Hartree-Fock
 Hartree-Fock
 Exchange:     0.1500 Hartree-Fock + 1.0000 wB97M-V + LR-HF
 Correlation:  1.0000 wB97M-V
 Using Euler-Maclaurin-Lebedev (99,590) quadrature formula
 Nonlocal Correlation:  VV10 with C = 0.0100 and b = 6.00 and scale = 1.00000
 Grid used for NLC:  SG-1 standard quadrature
 Long-range K will be added via erf
 Coulomb attenuation parameter = 0.3 bohr**(-1)
 Nonlocal correlation = 1.922352521504e-01
Doing General SCFMI
 Exchange:     0.1500 Hartree-Fock + 1.0000 wB97M-V + LR-HF
 Correlation:  1.0000 wB97M-V
 Using Euler-Maclaurin-Lebedev (99,590) quadrature formula
 Nonlocal Correlation:  VV10 with C = 0.0100 and b = 6.00 and scale = 1.00000
 Grid used for NLC:  SG-1 standard quadrature
performing fock build at end of subrot_r(subrot) constructor so that all methods have access
<S^2> of initial wavefunction before polarization iterations 0.0000000000
Beginning iterations for the determination of the polarized wavefunction
Energy prior to optimization (guess energy) = -2650.531223075558
Begin Timing: Total SCF Calculation
begin iterations for algorithm: DIIS         
the SCF tolerance is set to 1.00e-08
    1   -2650.5312230756      7.50e-04     00000 
    2   -2650.5342532300      3.46e-04     00000 
    3   -2650.5345451296      1.62e-04     00000 
    4   -2650.5346229881      5.26e-05     00000 
    5   -2650.5346370446      1.41e-05     00000 
    6   -2650.5346386192      7.16e-06     00000 
    7   -2650.5346388256      1.80e-06     00000 
    8   -2650.5346388478      5.22e-07     00000 
    9   -2650.5346388496      1.14e-07     00000 
   10   -2650.5346388497      3.51e-08     00000 
   11   -2650.5346388497      1.36e-08     00000 
   12   -2650.5346388497      3.70e-09     00000 Convergence criterion met
write pseudocanon occs and virts to disk
write pseudocanon orbital energies to disk
Timing for Total SCF: 11.00s (wall), 66.37s (cpu)
<S^2> of polarized wavefunction after polarization iterations 0.0000000000
relaxing scfmi constraint to allow all rotations in the entire AO span
Doing General SCFMI
 Exchange:     0.1500 Hartree-Fock + 1.0000 wB97M-V + LR-HF
 Correlation:  1.0000 wB97M-V
 Using Euler-Maclaurin-Lebedev (99,590) quadrature formula
 Nonlocal Correlation:  VV10 with C = 0.0100 and b = 6.00 and scale = 1.00000
 Grid used for NLC:  SG-1 standard quadrature
performing fock build at end of subrot_r(subrot) constructor so that all methods have access
<S^2> of polarized wavefunction before ct-allowed iterations 0.0000000000
Beginning iterations for the determination of the CT-Allowed wavefunction
Energy prior to optimization (guess energy) = -2650.534638849695
Begin Timing: Total SCF Calculation
begin iterations for algorithm: DIIS         
the SCF tolerance is set to 1.00e-08
    1   -2650.5346388497      7.28e-04     00000 
    2   -2650.5382613836      9.04e-05     00000 
    3   -2650.5384728476      3.14e-05     00000 
    4   -2650.5384879987      2.32e-05     00000 
    5   -2650.5384920585      3.93e-06     00000 
    6   -2650.5384923343      2.11e-06     00000 
    7   -2650.5384924032      3.73e-07     00000 
    8   -2650.5384924083      1.03e-07     00000 
    9   -2650.5384924088      2.26e-08     00000 
   10   -2650.5384924088      6.19e-09     00000 Convergence criterion met
write pseudocanon occs and virts to disk
write pseudocanon orbital energies to disk
Timing for Total SCF: 9.00s (wall), 54.28s (cpu)
<S^2> of ct_allowed wavefunction after ct-allowed iterations 0.0000000000

================================
        Results of EDA2         
================================
Basic EDA Quantities
--------------------
Fragment Energies (Ha):
1  -76.4355155866
2-2574.0946475101
--------------------
  E_prp (kJ/mol) = 0.0000
  E_frz (kJ/mol) = -2.7830
  E_pol (kJ/mol) = -8.9682
  E_vct (kJ/mol) = -10.1176
  E_int (kJ/mol) = -21.8689
--------------------


Decomposition of frozen interaction energy
--------------------
  --------------------
  Orthogonal Frozen Decomposition:
  --------------------
     E_elec   (ELEC)   (kJ/mol) = -59.1522
     E_pauli  (PAULI)  (kJ/mol) = 67.3539
     E_disp   (DISP)   (kJ/mol) = -10.9847
  --------------------
  Classical Frozen Decomposition:
  --------------------
     E_cls_elec  (CLS ELEC)  (kJ/mol) = -34.3610
     E_mod_pauli (MOD PAULI) (kJ/mol) = 43.2752 (FRZ - CLS ELEC - CLS DISP)
     E_cls_disp  (CLS DISP)  (kJ/mol) = -11.6972
  --------------------
--------------------

Simplified EDA Summary (kJ/mol)
--------------------
 PREPARATION      0.0000
 FROZEN           -2.7830 (ELEC + PAULI + DISP)
[ELEC + PAULI = 8.9142, DISP = -11.6972]
 POLARIZATION    -8.9682
 CHARGE TRANSFER -10.1176
 TOTAL           -21.8689     (PRP + FRZ + POL + CT)
--------------------
 
 --------------------------------------------------------------
             Orbital Energies (a.u.) and Symmetries
 --------------------------------------------------------------
 
 Alpha MOs, Restricted
 -- Occupied --                  
-483.22  -62.52  -56.21  -56.21  -56.21  -19.17   -8.60   -6.38
  1 A'    2 A'    3 A'    1 A"    4 A'    5 A'    6 A'    7 A'                 
 -6.383  -6.382  -2.465  -2.465  -2.465  -2.465  -2.465  -0.976
  2 A"    8 A'    9 A'    3 A"   10 A'    4 A"   11 A'   12 A'                 
 -0.592  -0.465  -0.347  -0.265  -0.133  -0.129  -0.128
 13 A'   14 A'   15 A'    5 A"   16 A'    6 A"   17 A'                         
 -- Virtual --                   
  0.154   0.191   0.199   0.201   0.226   0.241   0.252   0.330
 18 A'   19 A'   20 A'    7 A"   21 A'    8 A"   22 A'   23 A'                 
  0.336   0.364   0.366   0.372   0.380   0.412   0.415   0.426
 24 A'    9 A"   25 A'   10 A"   26 A'   27 A'   11 A"   28 A'                 
  0.445   0.477   0.481   0.514   0.596   0.617   0.623   0.631
 29 A'   12 A"   30 A'   31 A'   32 A'   33 A'   34 A'   13 A"                 
  0.677   0.679   0.708   0.721   0.770   0.771   0.771   0.803
 14 A"   35 A'   36 A'   15 A"   37 A'   16 A"   38 A'   17 A"                 
  0.810   0.843   0.903   0.917   0.943   0.995   1.111   1.215
 39 A'   40 A'   41 A'   42 A'   18 A"   43 A'   44 A'   19 A"                 
  1.217   1.262   1.269   1.294   1.449   1.501   1.573   1.834
 45 A'   46 A'   20 A"   47 A'   48 A'   49 A'   50 A'   21 A"                 
  1.836   1.855   1.869   1.876   1.894   1.894   1.898   1.900
 51 A'   22 A"   52 A'   53 A'   23 A"   54 A'   24 A"   55 A'                 
  1.907   1.947   2.001   2.020   2.037   2.094   2.118   2.164
 25 A"   56 A'   57 A'   26 A"   58 A'   27 A"   59 A'   28 A"                 
  2.285   2.379   2.465   2.765   2.941   3.038   3.299   3.315
 60 A'   61 A'   62 A'   63 A'   64 A'   29 A"   65 A'   30 A"                 
  3.467   3.579   3.634   3.656   3.666   3.933   4.032   4.091
 66 A'   67 A'   68 A'   31 A"   69 A'   70 A'   32 A"   33 A"                 
  4.184   4.250   4.332   4.379   4.488   4.501   4.501   4.529
 71 A'   34 A"   35 A"   72 A'   73 A'   36 A"   74 A'   37 A"                 
  4.542   4.587   4.882   4.983   5.119   5.373   5.865   6.473
 75 A'   76 A'   77 A'   78 A'   79 A'   80 A'   38 A"   81 A'                 
  6.640   6.747   6.751   6.833   6.942   7.045   7.205   7.688
 39 A"   82 A'   40 A"   41 A"   83 A'   42 A"   84 A'   85 A'                 
  7.775   7.853   7.927  44.429
 86 A'   87 A'   88 A'   89 A'                                                 
 
 Beta MOs, Restricted
 -- Occupied --                  
-483.22  -62.52  -56.21  -56.21  -56.21  -19.17   -8.60   -6.38
  1 A'    2 A'    3 A'    1 A"    4 A'    5 A'    6 A'    7 A'                 
 -6.383  -6.382  -2.465  -2.465  -2.465  -2.465  -2.465  -0.976
  2 A"    8 A'    9 A'    3 A"   10 A'    4 A"   11 A'   12 A'                 
 -0.592  -0.465  -0.347  -0.265  -0.133  -0.129  -0.128
 13 A'   14 A'   15 A'    5 A"   16 A'    6 A"   17 A'                         
 -- Virtual --                   
  0.154   0.191   0.199   0.201   0.226   0.241   0.252   0.330
 18 A'   19 A'   20 A'    7 A"   21 A'    8 A"   22 A'   23 A'                 
  0.336   0.364   0.366   0.372   0.380   0.412   0.415   0.426
 24 A'    9 A"   25 A'   10 A"   26 A'   27 A'   11 A"   28 A'                 
  0.445   0.477   0.481   0.514   0.596   0.617   0.623   0.631
 29 A'   12 A"   30 A'   31 A'   32 A'   33 A'   34 A'   13 A"                 
  0.677   0.679   0.708   0.721   0.770   0.771   0.771   0.803
 14 A"   35 A'   36 A'   15 A"   37 A'   16 A"   38 A'   17 A"                 
  0.810   0.843   0.903   0.917   0.943   0.995   1.111   1.215
 39 A'   40 A'   41 A'   42 A'   18 A"   43 A'   44 A'   19 A"                 
  1.217   1.262   1.269   1.294   1.449   1.501   1.573   1.834
 45 A'   46 A'   20 A"   47 A'   48 A'   49 A'   50 A'   21 A"                 
  1.836   1.855   1.869   1.876   1.894   1.894   1.898   1.900
 51 A'   22 A"   52 A'   53 A'   23 A"   54 A'   24 A"   55 A'                 
  1.907   1.947   2.001   2.020   2.037   2.094   2.118   2.164
 25 A"   56 A'   57 A'   26 A"   58 A'   27 A"   59 A'   28 A"                 
  2.285   2.379   2.465   2.765   2.941   3.038   3.299   3.315
 60 A'   61 A'   62 A'   63 A'   64 A'   29 A"   65 A'   30 A"                 
  3.467   3.579   3.634   3.656   3.666   3.933   4.032   4.091
 66 A'   67 A'   68 A'   31 A"   69 A'   70 A'   32 A"   33 A"                 
  4.184   4.250   4.332   4.379   4.488   4.501   4.501   4.529
 71 A'   34 A"   35 A"   72 A'   73 A'   36 A"   74 A'   37 A"                 
  4.542   4.587   4.882   4.983   5.119   5.373   5.865   6.473
 75 A'   76 A'   77 A'   78 A'   79 A'   80 A'   38 A"   81 A'                 
  6.640   6.747   6.751   6.833   6.942   7.045   7.205   7.688
 39 A"   82 A'   40 A"   41 A"   83 A'   42 A"   84 A'   85 A'                 
  7.775   7.853   7.927  44.429
 86 A'   87 A'   88 A'   89 A'                                                 
 --------------------------------------------------------------
 
          Ground-State Mulliken Net Atomic Charges

     Atom                 Charge (a.u.)
  ----------------------------------------
      1 O                    -0.353426
      2 H                     0.111252
      3 H                     0.173422
      4 Br                   -0.931248
  ----------------------------------------
  Sum of atomic charges =    -1.000000

 -----------------------------------------------------------------
                    Cartesian Multipole Moments
 -----------------------------------------------------------------
    Charge (ESU x 10^10)
                -4.8032
    Dipole Moment (Debye)
         X       2.4676      Y       1.5134      Z      -0.0000
       Tot       2.8947
    Quadrupole Moments (Debye-Ang)
        XX     -34.2915     XY       4.7409     YY     -30.6288
        XZ       0.0000     YZ       0.0000     ZZ     -32.0420
    Octopole Moments (Debye-Ang^2)
       XXX       4.5799    XXY      11.8673    XYY       0.3876
       YYY      -0.1031    XXZ       0.0000    XYZ       0.0000
       YYZ      -0.0000    XZZ      -3.1366    YZZ      -0.1522
       ZZZ      -0.0000
    Hexadecapole Moments (Debye-Ang^3)
      XXXX    -352.0628   XXXY      36.9823   XXYY     -72.5928
      XYYY       2.7098   YYYY     -55.2930   XXXZ       0.0000
      XXYZ       0.0000   XYYZ      -0.0000   YYYZ      -0.0000
      XXZZ     -81.9683   XYZZ       0.6182   YYZZ     -18.3926
      XZZZ      -0.0000   YZZZ      -0.0000   ZZZZ     -54.7490
 -----------------------------------------------------------------
 Total job time:  59.70s(wall), 222.95s(cpu) 
 Wed Jan  3 19:01:24 2024

        *************************************************************
        *                                                           *
        *  Thank you very much for using Q-Chem.  Have a nice day.  *
        *                                                           *
        *************************************************************


