
Running Job 1 of 1 060_K-Water_Deg30_+00_almo.in
qchem 060_K-Water_Deg30_+00_almo.in_421528.0 /scratch/qchem421528/ 6
/home/kchung25/qchem/5.4.0/exe/qcprog.exe_s 060_K-Water_Deg30_+00_almo.in_421528.0 /scratch/qchem421528/
                  Welcome to Q-Chem
     A Quantum Leap Into The Future Of Chemistry


 Q-Chem 5.4, Q-Chem, Inc., Pleasanton, CA (2021)

 E. Epifanovsky,  A. T. B. Gilbert,  Xintian Feng,  Joonho Lee,  Yuezhi Mao,  
 N. Mardirossian,  P. Pokhilko,  A. White,  M. Wormit,  M. P. Coons,  
 A. L. Dempwolff,  Zhengting Gan,  D. Hait,  P. R. Horn,  L. D. Jacobson,  
 I. Kaliman,  J. Kussmann,  A. W. Lange,  Ka Un Lao,  D. S. Levine,  Jie Liu,  
 S. C. McKenzie,  A. F. Morrison,  K. Nanda,  F. Plasser,  D. R. Rehn,  
 M. L. Vidal,  Zhi-Qiang You,  Ying Zhu,  B. Alam,  B. Albrecht,  
 A. Aldossary,  E. Alguire,  J. H. Andersen,  D. Barton,  K. Begam,  A. Behn,  
 Y. A. Bernard,  E. J. Berquist,  H. Burton,  A. Carreras,  K. Carter-Fenk,  
 Romit Chakraborty,  A. D. Chien,  K. D. Closser,  V. Cofer-Shabica,  
 S. Dasgupta,  Jia Deng,  M. de Wergifosse,  M. Diedenhofen,  Hainam Do,  
 S. Ehlert,  Po-Tung Fang,  S. Fatehi,  Qingguo Feng,  T. Friedhoff,  
 J. Gayvert,  Qinghui Ge,  G. Gidofalvi,  M. Goldey,  J. Gomes,  
 C. Gonzalez-Espinoza,  S. Gulania,  A. Gunina,  M. W. D. Hanson-Heine,  
 P. H. P. Harbach,  A. W. Hauser,  M. F. Herbst,  M. Hernandez Vera,  
 M. Hodecker,  Z. C. Holden,  S. Houck,  Xunkun Huang,  Kerwin Hui,  
 B. C. Huynh,  M. Ivanov,  Hyunjun Ji,  Hanjie Jiang,  B. Kaduk,  S. Kaehler,  
 K. Khistyaev,  Jaehoon Kim,  P. Klunzinger,  Z. Koczor-Benda,  
 Joong Hoon Koh,  D. Kosenkov,  L. Koulias,  T. Kowalczyk,  C. M. Krauter,  
 K. Kue,  A. Kunitsa,  T. Kus,  A. Landau,  K. V. Lawler,  D. Lefrancois,  
 S. Lehtola,  Rain Li,  Yi-Pei Li,  Jiashu Liang,  M. Liebenthal,  
 Hung-Hsuan Lin,  You-Sheng Lin,  Fenglai Liu,  Kuan-Yu Liu,  
 M. Loipersberger,  A. Luenser,  A. Manjanath,  P. Manohar,  E. Mansoor,  
 S. F. Manzer,  Shan-Ping Mao,  A. V. Marenich,  T. Markovich,  S. Mason,  
 S. A. Maurer,  P. F. McLaughlin,  M. F. S. J. Menger,  J.-M. Mewes,  
 S. A. Mewes,  P. Morgante,  J. W. Mullinax,  K. J. Oosterbaan,  G. Paran,  
 Alexander C. Paul,  Suranjan K. Paul,  F. Pavosevic,  Zheng Pei,  S. Prager,  
 E. I. Proynov,  E. Ramos,  B. Rana,  A. E. Rask,  A. Rettig,  R. M. Richard,  
 F. Rob,  E. Rossomme,  T. Scheele,  M. Scheurer,  M. Schneider,  
 N. Sergueev,  S. M. Sharada,  W. Skomorowski,  D. W. Small,  C. J. Stein,  
 Yu-Chuan Su,  E. J. Sundstrom,  Zhen Tao,  J. Thirman,  T. Tsuchimochi,  
 N. M. Tubman,  S. P. Veccham,  O. Vydrov,  J. Wenzel,  J. Witte,  A. Yamada,  
 Kun Yao,  S. Yeganeh,  S. R. Yost,  A. Zech,  Igor Ying Zhang,  Xing Zhang,  
 Yu Zhang,  D. Zuev,  A. Aspuru-Guzik,  A. T. Bell,  N. A. Besley,  
 K. B. Bravaya,  B. R. Brooks,  D. Casanova,  Jeng-Da Chai,  S. Coriani,  
 C. J. Cramer,  A. E. DePrince, III,  R. A. DiStasio Jr.,  A. Dreuw,  
 B. D. Dunietz,  T. R. Furlani,  W. A. Goddard III,  S. Grimme,  
 S. Hammes-Schiffer,  T. Head-Gordon,  W. J. Hehre,  Chao-Ping Hsu,  
 T.-C. Jagau,  Yousung Jung,  A. Klamt,  Jing Kong,  D. S. Lambrecht,  
 WanZhen Liang,  N. J. Mayhall,  C. W. McCurdy,  J. B. Neaton,  T. Neudecker,  
 C. Ochsenfeld,  J. A. Parkhill,  R. Peverati,  V. A. Rassolov,  Yihan Shao,  
 L. V. Slipchenko,  R. P. Steele,  J. E. Subotnik,  A. J. W. Thom,  
 A. Tkatchenko,  D. G. Truhlar,  T. Van Voorhis,  T. A. Wesolowski,  
 K. B. Whaley,  H. L. Woodcock III,  P. M. Zimmerman,  S. Faraji,  
 P. M. W. Gill,  M. Head-Gordon,  J. M. Herbert,  A. I. Krylov

 Additional authors since Version 5.4.0: 
 Chandrima Chakravarty,  L. Cunha,  R. Kang,  Yongbin Kim,  S. Kotaru,  
 Shaozhi Li,  Xiangyuan Li,  F. Matz,  A. Molle,  V. Parravicini,  
 Haisheng Ren,  Hengyuan Shen,  Yingli Su,  Hung-Yi Tsai,  C. Utku,  
 Fang Wang,  Jeff Yang,  F. Zeller

 Contributors to earlier versions of Q-Chem not listed above: 
 R. D. Adamson,  B. Austin,  R. Baer,  J. Baker,  G. J. O. Beran,  
 K. Brandhorst,  S. T. Brown,  E. F. C. Byrd,  Arup K. Chakraborty,  
 G. K. L. Chan,  Chun-Min Chang,  Yunqing Chen,  C.-L. Cheng,  
 Siu Hung Chien,  D. M. Chipman,  D. L. Crittenden,  H. Dachsel,  
 R. J. Doerksen,  A. D. Dutoi,  R. G. Edgar,  J. Fosso-Tande,  
 L. Fusti-Molnar,  D. Ghosh,  A. Ghysels,  A. Golubeva-Zadorozhnaya,  
 J. Gonthier,  M. S. Gordon,  S. R. Gwaltney,  G. Hawkins,  J. E. Herr,  
 A. Heyden,  S. Hirata,  E. G. Hohenstein,  G. Kedziora,  F. J. Keil,  
 C. Kelley,  Jihan Kim,  R. A. King,  R. Z. Khaliullin,  P. P. Korambath,  
 W. Kurlancheek,  A. Laurent,  A. M. Lee,  M. S. Lee,  S. V. Levchenko,  
 Ching Yeh Lin,  D. Liotard,  E. Livshits,  R. C. Lochan,  I. Lotan,  
 L. A. Martinez-Martinez,  P. E. Maslen,  N. Nair,  D. P. O'Neill,  
 D. Neuhauser,  E. Neuscamman,  C. M. Oana,  R. Olivares-Amaya,  R. Olson,  
 T. M. Perrine,  B. Peters,  P. A. Pieniazek,  A. Prociuk,  Y. M. Rhee,  
 J. Ritchie,  M. A. Rohrdanz,  E. Rosta,  N. J. Russ,  H. F. Schaefer III,  
 M. W. Schmidt,  N. E. Schultz,  S. Sharma,  N. Shenvi,  C. D. Sherrill,  
 A. C. Simmonett,  A. Sodt,  T. Stein,  D. Stuck,  K. S. Thanthiriwatte,  
 V. Vanovschi,  L. Vogt,  Tao Wang,  A. Warshel,  M. A. Watson,  
 C. F. Williams,  Q. Wu,  X. Xu,  Jun Yang,  W. Zhang,  Yan Zhao

   Please cite Q-Chem as follows:
  "Software for the frontiers of quantum chemistry:
   An overview of developments in the Q-Chem 5 package"
   J. Chem. Phys. 155, 084801 (2021)
   https://doi.org/10.1063/5.0055522 (open access)

 Q-Chem 5.4.2 for Intel X86 EM64T Linux

 Parts of Q-Chem use Armadillo 9.900.5 (Nocturnal Misbehaviour).
 http://arma.sourceforge.net/

 Q-Chem begins on Wed Jan  3 17:31:59 2024  

 Host: 
0

     Scratch files written to /scratch/qchem421528//
 Dec1321 |scratch|qcdevops|jenkins|workspace|build_RNUM 5684   
 Processing $rem in /home/kchung25/qchem/5.4.0/config/preferences:
 Processing $rem in /home/kchung25/.qchemrc:

 Q-Chem warning in module libgen/rem_setup.C, line 3079:

 Neither GIA nor STOLL is specified by user. Use STOLL as the default


 Checking the input file for inconsistencies... 	...done.

--------------------------------------------------------------
User input:
--------------------------------------------------------------
$molecule
1 1
--
0 1
O      0.000000     0.000000     0.000000
H     -0.512627     0.756733     0.295965
H     -0.512627    -0.756733     0.295965
--
1 1
K      2.466222     0.000000     0.000000
$end

$rem
JOBTYPE          eda
EDA2             1
METHOD           wB97M-V
BASIS            def2-TZVPPD
SYMMETRY         false
MEM_TOTAL        50000
MEM_STATIC       10000
THRESH           14
SCF_CONVERGENCE  8
XC_GRID          000099000590
NL_GRID          1
EDA_CLS_DISP     true
FD_MAT_VEC_PROD  FALSE
$end
--------------------------------------------------------------
 ----------------------------------------------------------------
             Standard Nuclear Orientation (Angstroms)
    I     Atom           X                Y                Z
 ----------------------------------------------------------------
    1      O       1.5792262981     0.0653739454     0.0000000000
    2      H       2.1000672658    -0.2158846698    -0.7567330000
    3      H       2.1000672658    -0.2158846698     0.7567330000
    4      K      -0.8859971008    -0.0048011697    -0.0000000000
 ----------------------------------------------------------------
 Molecular Point Group                 Cs    NOp =  2
 Largest Abelian Subgroup              Cs    NOp =  2
 Nuclear Repulsion Energy =          48.28965125 hartrees
 There are       14 alpha and       14 beta electrons
 Requested basis set is def2-TZVPPD
 There are 42 shells and 110 basis functions

 Q-Chem warning in module libmdc/get_mega.C, line 171:

 Allowed MEM_STATIC has been capped at MEM_STATIC=8191.
 Reduce the value of MEM_STATIC to silence this warning.


 Total QAlloc Memory Limit  50000 MB
 Mega-Array Size      8007 MB
 MEM_STATIC part      8191 MB

                       Distance Matrix (Angstroms)
             O (  1)   H (  2)   H (  3)
   H (  2)  0.960743
   H (  3)  0.960743  1.513466
   K (  4)  2.466222  3.087682  3.087682
 
 A cutoff of  1.0D-14 yielded    888 shell pairs
 There are      6212 function pairs (      7549 Cartesian)
 Smallest overlap matrix eigenvalue = 2.56E-04

 Scale SEOQF with 1.000000e-01/1.000000e-01/1.000000e-01

 Standard Electronic Orientation quadrupole field applied
 Nucleus-field energy     =     0.0000000014 hartrees

 -----------------------------------------------------------------------
  General SCF calculation program by
  Eric Jon Sundstrom, Paul Horn, Yuezhi Mao, Dmitri Zuev, Alec White,
  David Stuck, Shaama M.S., Shane Yost, Joonho Lee, David Small,
  Daniel Levine, Susi Lehtola, Hugh Burton, Evgeny Epifanovsky,
  Bang C. Huynh
 -----------------------------------------------------------------------
================================================================
                 ALMO-EDA with the EDA2 driver                  
================================================================
 The second-generation ALMO-EDA (for DFT):                      
 P. R. Horn, Y. Mao and M. Head-Gordon, PCCP, 18, 23067 (2016)  
 Y. Mao et al. Annu. Rev. Phys. Chem. 72, 641 (2021)            
 Decomposition of the frozen energy:                            
 P. R. Horn, Y. Mao and M. Head-Gordon, JCP, 144, 114107 (2016) 
 FERF model for polarization:                                   
 P. R. Horn and M. Head-Gordon, JCP, 143, 114111 (2015)         
================================================================
 Using eda2 option set 1
 Option set summary: Frozen orbital wavefunction, initial wavefunction decomposition, and nDQ polarization.
--------------------------------
Printing EDA Options
--------------------------------
eda_child_super_basis      0
fragmo_guess_mode          0
child_mp                   1
child_mp_orders            232
cls_elec                   1
cls_disp                   1
scfmi_mode                 1
scfmi_occs                 0
scfmi_virts                0
frz_relax                  0
frz_relax_method           0
dc_pen_start               0
dc_pen_conv                0
dc_pen_increment           0
dc_pen_steps               0
dc_pen_thresh_factor       0
dc_pen_pre_newton_thresh   0
frz_ortho_decomp           1
frz_ortho_decomp_conv      6
plot_mo_ortho_frz          0
frgm_method                2
scfmi_freeze_ss            0
separate_rehyb             0
plot_diff_den              0
eda_nocv                   0
eda_vct_relax              1
disp_free_x                0
disp_free_c                0
eda_bsse                   0
eda_pct_a                  0
eda_covp                   0
--------------------------------
Attempting to make child job directory: /scratch/qchem421528//Frg1/
Attempting to make child job directory: /scratch/qchem421528//Frg2/
Creating input file /scratch/qchem421528/Frg1.input
using default PutDataFrgm: nothing
calling putenv with: QCSCRATCH=/scratch/qchem421528/ 
Spawning Job For Fragment 0
Done Job For Fragment 0
calling putenv with: QCSCRATCH=/scratch 
calling putenv with: QCTHREADS=6 
Creating input file /scratch/qchem421528/Frg2.input
using default PutDataFrgm: nothing
calling putenv with: QCSCRATCH=/scratch/qchem421528/ 
Spawning Job For Fragment 1
Done Job For Fragment 1
calling putenv with: QCSCRATCH=/scratch 
calling putenv with: QCTHREADS=6 
Doing General SCFMI
 Exchange:     0.1500 Hartree-Fock + 1.0000 wB97M-V + LR-HF
 Correlation:  1.0000 wB97M-V
 Using Euler-Maclaurin-Lebedev (99,590) quadrature formula
 Nonlocal Correlation:  VV10 with C = 0.0100 and b = 6.00 and scale = 1.00000
 Grid used for NLC:  SG-1 standard quadrature
performing fock build before subrot guess so that all methods have access
Printing subrot_rss_gen Method Specification:
Occupied Subspace Method is 0
Virtual Subspace Method is 0
Energy of the unrelaxed supersystem initial determinant -676.176063809382
write pseudocanon occs and virts to disk
write pseudocanon orbital energies to disk
Tolerance of ortho_decomp_scf: 1.00e-06
GDM subspace size: 20
Beginning the Orthogonal Decomposition of the Initial Supersystem Wavefunction
    1    -676.1014855860      4.44e-01     ortho_decomp Preconditoned Steepest Descent
    2    -676.1192810781      4.52e-03     ortho_decomp BFGS Step
    3    -676.1192908152      2.23e-04     ortho_decomp BFGS Step
    4    -676.1192908426      9.69e-06     ortho_decomp BFGS Step
    5    -676.1192908426      2.11e-07     ortho_decomp 00000 Convergence criterion met
 Hartree-Fock
 Hartree-Fock
 Hartree-Fock
 Exchange:     0.1500 Hartree-Fock + 1.0000 wB97M-V + LR-HF
 Correlation:  1.0000 wB97M-V
 Using Euler-Maclaurin-Lebedev (99,590) quadrature formula
 Nonlocal Correlation:  VV10 with C = 0.0100 and b = 6.00 and scale = 1.00000
 Grid used for NLC:  SG-1 standard quadrature
 Long-range K will be added via erf
 Coulomb attenuation parameter = 0.3 bohr**(-1)
 Nonlocal correlation = 1.195528046867e-01
Doing General SCFMI
 Exchange:     0.1500 Hartree-Fock + 1.0000 wB97M-V + LR-HF
 Correlation:  1.0000 wB97M-V
 Using Euler-Maclaurin-Lebedev (99,590) quadrature formula
 Nonlocal Correlation:  VV10 with C = 0.0100 and b = 6.00 and scale = 1.00000
 Grid used for NLC:  SG-1 standard quadrature
performing fock build at end of subrot_r(subrot) constructor so that all methods have access
<S^2> of initial wavefunction before polarization iterations 0.0000000000
Beginning iterations for the determination of the polarized wavefunction
Energy prior to optimization (guess energy) = -676.176063809382
Begin Timing: Total SCF Calculation
begin iterations for algorithm: DIIS         
the SCF tolerance is set to 1.00e-08
    1    -676.1760638094      1.51e-03     00000 
    2    -676.1827322349      5.76e-04     00000 
    3    -676.1831946024      3.28e-04     00000 
    4    -676.1833465703      8.52e-05     00000 
    5    -676.1833712100      2.50e-05     00000 
    6    -676.1833748391      5.89e-06     00000 
    7    -676.1833751205      1.21e-06     00000 
    8    -676.1833751275      4.08e-07     00000 
    9    -676.1833751283      9.70e-08     00000 
   10    -676.1833751284      2.59e-08     00000 
   11    -676.1833751284      6.83e-09     00000 Convergence criterion met
write pseudocanon occs and virts to disk
write pseudocanon orbital energies to disk
Timing for Total SCF: 8.00s (wall), 45.99s (cpu)
<S^2> of polarized wavefunction after polarization iterations 0.0000000000
relaxing scfmi constraint to allow all rotations in the entire AO span
Doing General SCFMI
 Exchange:     0.1500 Hartree-Fock + 1.0000 wB97M-V + LR-HF
 Correlation:  1.0000 wB97M-V
 Using Euler-Maclaurin-Lebedev (99,590) quadrature formula
 Nonlocal Correlation:  VV10 with C = 0.0100 and b = 6.00 and scale = 1.00000
 Grid used for NLC:  SG-1 standard quadrature
performing fock build at end of subrot_r(subrot) constructor so that all methods have access
<S^2> of polarized wavefunction before ct-allowed iterations 0.0000000000
Beginning iterations for the determination of the CT-Allowed wavefunction
Energy prior to optimization (guess energy) = -676.183375128363
Begin Timing: Total SCF Calculation
begin iterations for algorithm: DIIS         
the SCF tolerance is set to 1.00e-08
    1    -676.1833751284      6.80e-04     00000 
    2    -676.1855186222      7.75e-05     00000 
    3    -676.1856054255      2.51e-05     00000 
    4    -676.1856086202      1.94e-05     00000 
    5    -676.1856101845      1.03e-06     00000 
    6    -676.1856101956      2.98e-07     00000 
    7    -676.1856101967      4.38e-08     00000 
    8    -676.1856101968      1.02e-08     00000 
    9    -676.1856101968      2.57e-09     00000 Convergence criterion met
write pseudocanon occs and virts to disk
write pseudocanon orbital energies to disk
Timing for Total SCF: 6.00s (wall), 36.73s (cpu)
<S^2> of ct_allowed wavefunction after ct-allowed iterations 0.0000000000

================================
        Results of EDA2         
================================
Basic EDA Quantities
--------------------
Fragment Energies (Ha):
1  -76.4363633506
2 -599.7243958034
--------------------
  E_prp (kJ/mol) = 0.0000
  E_frz (kJ/mol) = -40.1828
  E_pol (kJ/mol) = -19.1961
  E_vct (kJ/mol) = -5.8682
  E_int (kJ/mol) = -65.2472
--------------------


Decomposition of frozen interaction energy
--------------------
  --------------------
  Orthogonal Frozen Decomposition:
  --------------------
     E_elec   (ELEC)   (kJ/mol) = -123.4476
     E_pauli  (PAULI)  (kJ/mol) = 93.0910
     E_disp   (DISP)   (kJ/mol) = -9.8263
  --------------------
  Classical Frozen Decomposition:
  --------------------
     E_cls_elec  (CLS ELEC)  (kJ/mol) = -96.1089
     E_mod_pauli (MOD PAULI) (kJ/mol) = 65.4783 (FRZ - CLS ELEC - CLS DISP)
     E_cls_disp  (CLS DISP)  (kJ/mol) = -9.5523
  --------------------
--------------------

Simplified EDA Summary (kJ/mol)
--------------------
 PREPARATION      0.0000
 FROZEN           -40.1828 (ELEC + PAULI + DISP)
[ELEC + PAULI = -30.6306, DISP = -9.5523]
 POLARIZATION    -19.1961
 CHARGE TRANSFER -5.8682
 TOTAL           -65.2472     (PRP + FRZ + POL + CT)
--------------------
 
 --------------------------------------------------------------
             Orbital Energies (a.u.) and Symmetries
 --------------------------------------------------------------
 
 Alpha MOs, Restricted
 -- Occupied --                  
-130.35  -19.53  -13.59  -10.87  -10.87  -10.87   -1.69   -1.34
  1 A'    2 A'    3 A'    1 A"    4 A'    5 A'    6 A'    7 A'                 
 -1.039  -1.038  -1.037  -0.834  -0.712  -0.628
  2 A"    8 A'    9 A'    3 A"   10 A'   11 A'                                 
 -- Virtual --                   
 -0.155  -0.110  -0.104  -0.100  -0.059  -0.049  -0.045  -0.039
 12 A'   13 A'    4 A"   14 A'   15 A'    5 A"   16 A'   17 A'                 
 -0.038  -0.034  -0.026  -0.024  -0.020  -0.003   0.016   0.029
  6 A"   18 A'    7 A"   19 A'   20 A'    8 A"   21 A'   22 A'                 
  0.079   0.080   0.120   0.142   0.154   0.156   0.164   0.166
  9 A"   23 A'   24 A'   10 A"   11 A"   25 A'   26 A'   27 A'                 
  0.166   0.190   0.192   0.197   0.234   0.255   0.325   0.331
 12 A"   28 A'   13 A"   29 A'   14 A"   30 A'   15 A"   31 A'                 
  0.356   0.400   0.430   0.550   0.560   0.568   0.626   0.673
 32 A'   16 A"   33 A'   34 A'   17 A"   35 A'   36 A'   37 A'                 
  0.677   0.693   0.761   0.882   0.941   0.968   1.036   1.054
 18 A"   38 A'   19 A"   39 A'   20 A"   40 A'   41 A'   21 A"                 
  1.055   1.062   1.099   1.140   1.167   1.211   1.220   1.305
 22 A"   42 A'   43 A'   23 A"   44 A'   24 A"   45 A'   46 A'                 
  1.765   1.791   1.896   2.023   2.067   2.412   2.581   2.710
 47 A'   25 A"   48 A'   49 A'   26 A"   50 A'   27 A"   51 A'                 
  2.968   3.078   3.101   3.232   3.295   3.298   3.311   3.516
 52 A'   53 A'   54 A'   28 A"   55 A'   29 A"   30 A"   31 A"                 
  3.713   3.753   3.891   3.928   4.008   4.050   4.117   4.550
 32 A"   56 A'   57 A'   33 A"   58 A'   59 A'   34 A"   60 A'                 
  4.610   4.793   5.039   5.515   6.103   6.350   6.400   6.469
 35 A"   36 A"   61 A'   62 A'   63 A'   64 A'   37 A"   38 A"                 
  6.469   6.577   6.688   6.859   7.327   7.456   7.632  44.117
 65 A'   66 A'   39 A"   67 A'   40 A"   41 A"   68 A'   69 A'                 
 
 Beta MOs, Restricted
 -- Occupied --                  
-130.35  -19.53  -13.59  -10.87  -10.87  -10.87   -1.69   -1.34
  1 A'    2 A'    3 A'    1 A"    4 A'    5 A'    6 A'    7 A'                 
 -1.039  -1.038  -1.037  -0.834  -0.712  -0.628
  2 A"    8 A'    9 A'    3 A"   10 A'   11 A'                                 
 -- Virtual --                   
 -0.155  -0.110  -0.104  -0.100  -0.059  -0.049  -0.045  -0.039
 12 A'   13 A'    4 A"   14 A'   15 A'    5 A"   16 A'   17 A'                 
 -0.038  -0.034  -0.026  -0.024  -0.020  -0.003   0.016   0.029
  6 A"   18 A'    7 A"   19 A'   20 A'    8 A"   21 A'   22 A'                 
  0.079   0.080   0.120   0.142   0.154   0.156   0.164   0.166
  9 A"   23 A'   24 A'   10 A"   11 A"   25 A'   26 A'   27 A'                 
  0.166   0.190   0.192   0.197   0.234   0.255   0.325   0.331
 12 A"   28 A'   13 A"   29 A'   14 A"   30 A'   15 A"   31 A'                 
  0.356   0.400   0.430   0.550   0.560   0.568   0.626   0.673
 32 A'   16 A"   33 A'   34 A'   17 A"   35 A'   36 A'   37 A'                 
  0.677   0.693   0.761   0.882   0.941   0.968   1.036   1.054
 18 A"   38 A'   19 A"   39 A'   20 A"   40 A'   41 A'   21 A"                 
  1.055   1.062   1.099   1.140   1.167   1.211   1.220   1.305
 22 A"   42 A'   43 A'   23 A"   44 A'   24 A"   45 A'   46 A'                 
  1.765   1.791   1.896   2.023   2.067   2.412   2.581   2.710
 47 A'   25 A"   48 A'   49 A'   26 A"   50 A'   27 A"   51 A'                 
  2.968   3.078   3.101   3.232   3.295   3.298   3.311   3.516
 52 A'   53 A'   54 A'   28 A"   55 A'   29 A"   30 A"   31 A"                 
  3.713   3.753   3.891   3.928   4.008   4.050   4.117   4.550
 32 A"   56 A'   57 A'   33 A"   58 A'   59 A'   34 A"   60 A'                 
  4.610   4.793   5.039   5.515   6.103   6.350   6.400   6.469
 35 A"   36 A"   61 A'   62 A'   63 A'   64 A'   37 A"   38 A"                 
  6.469   6.577   6.688   6.859   7.327   7.456   7.632  44.117
 65 A'   66 A'   39 A"   67 A'   40 A"   41 A"   68 A'   69 A'                 
 --------------------------------------------------------------
 
          Ground-State Mulliken Net Atomic Charges

     Atom                 Charge (a.u.)
  ----------------------------------------
      1 O                    -0.363040
      2 H                     0.189385
      3 H                     0.189385
      4 K                     0.984271
  ----------------------------------------
  Sum of atomic charges =     1.000000

 -----------------------------------------------------------------
                    Cartesian Multipole Moments
 -----------------------------------------------------------------
    Charge (ESU x 10^10)
                 4.8032
    Dipole Moment (Debye)
         X      -1.5627      Y      -0.9278      Z       0.0000
       Tot       1.8174
    Quadrupole Moments (Debye-Ang)
        XX      -4.0544     XY      -2.1067     YY     -16.1945
        XZ      -0.0000     YZ       0.0000     ZZ     -13.0579
    Octopole Moments (Debye-Ang^2)
       XXX       9.2602    XXY      -4.7707    XYY      -3.9461
       YYY      -0.3962    XXZ      -0.0000    XYZ      -0.0000
       YYZ       0.0000    XZZ       2.2688    YZZ      -0.6577
       ZZZ      -0.0000
    Hexadecapole Moments (Debye-Ang^3)
      XXXX    -109.5257   XXXY     -10.8186   XXYY     -30.3928
      XYYY      -0.9235   YYYY     -13.2593   XXXZ      -0.0000
      XXYZ      -0.0000   XYYZ       0.0000   YYYZ       0.0000
      XXZZ     -17.8895   XYZZ      -1.4942   YYZZ      -4.3672
      XZZZ      -0.0000   YZZZ       0.0000   ZZZZ     -11.8949
 -----------------------------------------------------------------
 Total job time:  45.42s(wall), 160.93s(cpu) 
 Wed Jan  3 17:32:45 2024

        *************************************************************
        *                                                           *
        *  Thank you very much for using Q-Chem.  Have a nice day.  *
        *                                                           *
        *************************************************************


