
Running Job 1 of 1 076_LiF-Li_1.40_almo.in
qchem 076_LiF-Li_1.40_almo.in_536928.0 /scratch/qchem536928/ 6
/home/kchung25/qchem/5.4.0/exe/qcprog.exe_s 076_LiF-Li_1.40_almo.in_536928.0 /scratch/qchem536928/
                  Welcome to Q-Chem
     A Quantum Leap Into The Future Of Chemistry


 Q-Chem 5.4, Q-Chem, Inc., Pleasanton, CA (2021)

 E. Epifanovsky,  A. T. B. Gilbert,  Xintian Feng,  Joonho Lee,  Yuezhi Mao,  
 N. Mardirossian,  P. Pokhilko,  A. White,  M. Wormit,  M. P. Coons,  
 A. L. Dempwolff,  Zhengting Gan,  D. Hait,  P. R. Horn,  L. D. Jacobson,  
 I. Kaliman,  J. Kussmann,  A. W. Lange,  Ka Un Lao,  D. S. Levine,  Jie Liu,  
 S. C. McKenzie,  A. F. Morrison,  K. Nanda,  F. Plasser,  D. R. Rehn,  
 M. L. Vidal,  Zhi-Qiang You,  Ying Zhu,  B. Alam,  B. Albrecht,  
 A. Aldossary,  E. Alguire,  J. H. Andersen,  D. Barton,  K. Begam,  A. Behn,  
 Y. A. Bernard,  E. J. Berquist,  H. Burton,  A. Carreras,  K. Carter-Fenk,  
 Romit Chakraborty,  A. D. Chien,  K. D. Closser,  V. Cofer-Shabica,  
 S. Dasgupta,  Jia Deng,  M. de Wergifosse,  M. Diedenhofen,  Hainam Do,  
 S. Ehlert,  Po-Tung Fang,  S. Fatehi,  Qingguo Feng,  T. Friedhoff,  
 J. Gayvert,  Qinghui Ge,  G. Gidofalvi,  M. Goldey,  J. Gomes,  
 C. Gonzalez-Espinoza,  S. Gulania,  A. Gunina,  M. W. D. Hanson-Heine,  
 P. H. P. Harbach,  A. W. Hauser,  M. F. Herbst,  M. Hernandez Vera,  
 M. Hodecker,  Z. C. Holden,  S. Houck,  Xunkun Huang,  Kerwin Hui,  
 B. C. Huynh,  M. Ivanov,  Hyunjun Ji,  Hanjie Jiang,  B. Kaduk,  S. Kaehler,  
 K. Khistyaev,  Jaehoon Kim,  P. Klunzinger,  Z. Koczor-Benda,  
 Joong Hoon Koh,  D. Kosenkov,  L. Koulias,  T. Kowalczyk,  C. M. Krauter,  
 K. Kue,  A. Kunitsa,  T. Kus,  A. Landau,  K. V. Lawler,  D. Lefrancois,  
 S. Lehtola,  Rain Li,  Yi-Pei Li,  Jiashu Liang,  M. Liebenthal,  
 Hung-Hsuan Lin,  You-Sheng Lin,  Fenglai Liu,  Kuan-Yu Liu,  
 M. Loipersberger,  A. Luenser,  A. Manjanath,  P. Manohar,  E. Mansoor,  
 S. F. Manzer,  Shan-Ping Mao,  A. V. Marenich,  T. Markovich,  S. Mason,  
 S. A. Maurer,  P. F. McLaughlin,  M. F. S. J. Menger,  J.-M. Mewes,  
 S. A. Mewes,  P. Morgante,  J. W. Mullinax,  K. J. Oosterbaan,  G. Paran,  
 Alexander C. Paul,  Suranjan K. Paul,  F. Pavosevic,  Zheng Pei,  S. Prager,  
 E. I. Proynov,  E. Ramos,  B. Rana,  A. E. Rask,  A. Rettig,  R. M. Richard,  
 F. Rob,  E. Rossomme,  T. Scheele,  M. Scheurer,  M. Schneider,  
 N. Sergueev,  S. M. Sharada,  W. Skomorowski,  D. W. Small,  C. J. Stein,  
 Yu-Chuan Su,  E. J. Sundstrom,  Zhen Tao,  J. Thirman,  T. Tsuchimochi,  
 N. M. Tubman,  S. P. Veccham,  O. Vydrov,  J. Wenzel,  J. Witte,  A. Yamada,  
 Kun Yao,  S. Yeganeh,  S. R. Yost,  A. Zech,  Igor Ying Zhang,  Xing Zhang,  
 Yu Zhang,  D. Zuev,  A. Aspuru-Guzik,  A. T. Bell,  N. A. Besley,  
 K. B. Bravaya,  B. R. Brooks,  D. Casanova,  Jeng-Da Chai,  S. Coriani,  
 C. J. Cramer,  A. E. DePrince, III,  R. A. DiStasio Jr.,  A. Dreuw,  
 B. D. Dunietz,  T. R. Furlani,  W. A. Goddard III,  S. Grimme,  
 S. Hammes-Schiffer,  T. Head-Gordon,  W. J. Hehre,  Chao-Ping Hsu,  
 T.-C. Jagau,  Yousung Jung,  A. Klamt,  Jing Kong,  D. S. Lambrecht,  
 WanZhen Liang,  N. J. Mayhall,  C. W. McCurdy,  J. B. Neaton,  T. Neudecker,  
 C. Ochsenfeld,  J. A. Parkhill,  R. Peverati,  V. A. Rassolov,  Yihan Shao,  
 L. V. Slipchenko,  R. P. Steele,  J. E. Subotnik,  A. J. W. Thom,  
 A. Tkatchenko,  D. G. Truhlar,  T. Van Voorhis,  T. A. Wesolowski,  
 K. B. Whaley,  H. L. Woodcock III,  P. M. Zimmerman,  S. Faraji,  
 P. M. W. Gill,  M. Head-Gordon,  J. M. Herbert,  A. I. Krylov

 Additional authors since Version 5.4.0: 
 Chandrima Chakravarty,  L. Cunha,  R. Kang,  Yongbin Kim,  S. Kotaru,  
 Shaozhi Li,  Xiangyuan Li,  F. Matz,  A. Molle,  V. Parravicini,  
 Haisheng Ren,  Hengyuan Shen,  Yingli Su,  Hung-Yi Tsai,  C. Utku,  
 Fang Wang,  Jeff Yang,  F. Zeller

 Contributors to earlier versions of Q-Chem not listed above: 
 R. D. Adamson,  B. Austin,  R. Baer,  J. Baker,  G. J. O. Beran,  
 K. Brandhorst,  S. T. Brown,  E. F. C. Byrd,  Arup K. Chakraborty,  
 G. K. L. Chan,  Chun-Min Chang,  Yunqing Chen,  C.-L. Cheng,  
 Siu Hung Chien,  D. M. Chipman,  D. L. Crittenden,  H. Dachsel,  
 R. J. Doerksen,  A. D. Dutoi,  R. G. Edgar,  J. Fosso-Tande,  
 L. Fusti-Molnar,  D. Ghosh,  A. Ghysels,  A. Golubeva-Zadorozhnaya,  
 J. Gonthier,  M. S. Gordon,  S. R. Gwaltney,  G. Hawkins,  J. E. Herr,  
 A. Heyden,  S. Hirata,  E. G. Hohenstein,  G. Kedziora,  F. J. Keil,  
 C. Kelley,  Jihan Kim,  R. A. King,  R. Z. Khaliullin,  P. P. Korambath,  
 W. Kurlancheek,  A. Laurent,  A. M. Lee,  M. S. Lee,  S. V. Levchenko,  
 Ching Yeh Lin,  D. Liotard,  E. Livshits,  R. C. Lochan,  I. Lotan,  
 L. A. Martinez-Martinez,  P. E. Maslen,  N. Nair,  D. P. O'Neill,  
 D. Neuhauser,  E. Neuscamman,  C. M. Oana,  R. Olivares-Amaya,  R. Olson,  
 T. M. Perrine,  B. Peters,  P. A. Pieniazek,  A. Prociuk,  Y. M. Rhee,  
 J. Ritchie,  M. A. Rohrdanz,  E. Rosta,  N. J. Russ,  H. F. Schaefer III,  
 M. W. Schmidt,  N. E. Schultz,  S. Sharma,  N. Shenvi,  C. D. Sherrill,  
 A. C. Simmonett,  A. Sodt,  T. Stein,  D. Stuck,  K. S. Thanthiriwatte,  
 V. Vanovschi,  L. Vogt,  Tao Wang,  A. Warshel,  M. A. Watson,  
 C. F. Williams,  Q. Wu,  X. Xu,  Jun Yang,  W. Zhang,  Yan Zhao

   Please cite Q-Chem as follows:
  "Software for the frontiers of quantum chemistry:
   An overview of developments in the Q-Chem 5 package"
   J. Chem. Phys. 155, 084801 (2021)
   https://doi.org/10.1063/5.0055522 (open access)

 Q-Chem 5.4.2 for Intel X86 EM64T Linux

 Parts of Q-Chem use Armadillo 9.900.5 (Nocturnal Misbehaviour).
 http://arma.sourceforge.net/

 Q-Chem begins on Sat Jan  6 15:25:46 2024  

 Host: 
0

     Scratch files written to /scratch/qchem536928//
 Dec1321 |scratch|qcdevops|jenkins|workspace|build_RNUM 5684   
 Processing $rem in /home/kchung25/qchem/5.4.0/config/preferences:
 Processing $rem in /home/kchung25/.qchemrc:

 Q-Chem warning in module libgen/rem_setup.C, line 3079:

 Neither GIA nor STOLL is specified by user. Use STOLL as the default


 Checking the input file for inconsistencies... 	...done.

--------------------------------------------------------------
User input:
--------------------------------------------------------------
$molecule
1 1
--
0 1
F      0.000000     0.000000     0.000000
Li     0.000000     1.584155     0.000000
--
1 1
Li     2.217817     0.000000     0.000000
$end

$rem
JOBTYPE          eda
EDA2             1
METHOD           wB97M-V
BASIS            def2-TZVPPD
SYMMETRY         false
MEM_TOTAL        50000
MEM_STATIC       10000
THRESH           14
SCF_CONVERGENCE  8
XC_GRID          000099000590
NL_GRID          1
EDA_CLS_DISP     true
FD_MAT_VEC_PROD  FALSE
$end
--------------------------------------------------------------
 ----------------------------------------------------------------
             Standard Nuclear Orientation (Angstroms)
    I     Atom           X                Y                Z
 ----------------------------------------------------------------
    1      F      -0.3235715746    -0.4386705010    -0.0000000000
    2      Li     -0.8143944240     1.0675300150     0.0000000000
    3      Li      1.7851091479     0.2484814880    -0.0000000000
 ----------------------------------------------------------------
 Molecular Point Group                 Cs    NOp =  2
 Largest Abelian Subgroup              Cs    NOp =  2
 Nuclear Repulsion Energy =          17.20888880 hartrees
 There are        7 alpha and        7 beta electrons
 Requested basis set is def2-TZVPPD
 There are 34 shells and 84 basis functions

 Q-Chem warning in module libmdc/get_mega.C, line 171:

 Allowed MEM_STATIC has been capped at MEM_STATIC=8191.
 Reduce the value of MEM_STATIC to silence this warning.


 Total QAlloc Memory Limit  50000 MB
 Mega-Array Size      8007 MB
 MEM_STATIC part      8191 MB

                       Distance Matrix (Angstroms)
             F (  1)   Li(  2)
   Li(  2)  1.584155
   Li(  3)  2.217817  2.725483
 
 A cutoff of  1.0D-14 yielded    585 shell pairs
 There are      3647 function pairs (      4403 Cartesian)
 Smallest overlap matrix eigenvalue = 2.15E-03

 Scale SEOQF with 1.000000e-01/1.000000e-01/1.000000e-01

 Standard Electronic Orientation quadrupole field applied
 Nucleus-field energy     =     0.0000000008 hartrees

 -----------------------------------------------------------------------
  General SCF calculation program by
  Eric Jon Sundstrom, Paul Horn, Yuezhi Mao, Dmitri Zuev, Alec White,
  David Stuck, Shaama M.S., Shane Yost, Joonho Lee, David Small,
  Daniel Levine, Susi Lehtola, Hugh Burton, Evgeny Epifanovsky,
  Bang C. Huynh
 -----------------------------------------------------------------------
================================================================
                 ALMO-EDA with the EDA2 driver                  
================================================================
 The second-generation ALMO-EDA (for DFT):                      
 P. R. Horn, Y. Mao and M. Head-Gordon, PCCP, 18, 23067 (2016)  
 Y. Mao et al. Annu. Rev. Phys. Chem. 72, 641 (2021)            
 Decomposition of the frozen energy:                            
 P. R. Horn, Y. Mao and M. Head-Gordon, JCP, 144, 114107 (2016) 
 FERF model for polarization:                                   
 P. R. Horn and M. Head-Gordon, JCP, 143, 114111 (2015)         
================================================================
 Using eda2 option set 1
 Option set summary: Frozen orbital wavefunction, initial wavefunction decomposition, and nDQ polarization.
--------------------------------
Printing EDA Options
--------------------------------
eda_child_super_basis      0
fragmo_guess_mode          0
child_mp                   1
child_mp_orders            232
cls_elec                   1
cls_disp                   1
scfmi_mode                 1
scfmi_occs                 0
scfmi_virts                0
frz_relax                  0
frz_relax_method           0
dc_pen_start               0
dc_pen_conv                0
dc_pen_increment           0
dc_pen_steps               0
dc_pen_thresh_factor       0
dc_pen_pre_newton_thresh   0
frz_ortho_decomp           1
frz_ortho_decomp_conv      6
plot_mo_ortho_frz          0
frgm_method                2
scfmi_freeze_ss            0
separate_rehyb             0
plot_diff_den              0
eda_nocv                   0
eda_vct_relax              1
disp_free_x                0
disp_free_c                0
eda_bsse                   0
eda_pct_a                  0
eda_covp                   0
--------------------------------
Attempting to make child job directory: /scratch/qchem536928//Frg1/
Attempting to make child job directory: /scratch/qchem536928//Frg2/
Creating input file /scratch/qchem536928/Frg1.input
using default PutDataFrgm: nothing
calling putenv with: QCSCRATCH=/scratch/qchem536928/ 
Spawning Job For Fragment 0
Done Job For Fragment 0
calling putenv with: QCSCRATCH=/scratch 
calling putenv with: QCTHREADS=6 
Creating input file /scratch/qchem536928/Frg2.input
using default PutDataFrgm: nothing
calling putenv with: QCSCRATCH=/scratch/qchem536928/ 
Spawning Job For Fragment 1
Done Job For Fragment 1
calling putenv with: QCSCRATCH=/scratch 
calling putenv with: QCTHREADS=6 
Doing General SCFMI
 Exchange:     0.1500 Hartree-Fock + 1.0000 wB97M-V + LR-HF
 Correlation:  1.0000 wB97M-V
 Using Euler-Maclaurin-Lebedev (99,590) quadrature formula
 Nonlocal Correlation:  VV10 with C = 0.0100 and b = 6.00 and scale = 1.00000
 Grid used for NLC:  SG-1 standard quadrature
performing fock build before subrot guess so that all methods have access
Printing subrot_rss_gen Method Specification:
Occupied Subspace Method is 0
Virtual Subspace Method is 0
Energy of the unrelaxed supersystem initial determinant -114.749553175790
write pseudocanon occs and virts to disk
write pseudocanon orbital energies to disk
Tolerance of ortho_decomp_scf: 1.00e-06
GDM subspace size: 20
Beginning the Orthogonal Decomposition of the Initial Supersystem Wavefunction
    1    -114.7037703704      9.08e-02     ortho_decomp Preconditoned Steepest Descent
    2    -114.7039774235      2.03e-03     ortho_decomp BFGS Step
    3    -114.7039777609      5.67e-05     ortho_decomp BFGS Step
    4    -114.7039777610      1.23e-06     ortho_decomp BFGS Step
    5    -114.7039777610      2.79e-08     ortho_decomp 00000 Convergence criterion met
 Hartree-Fock
 Hartree-Fock
 Hartree-Fock
 Exchange:     0.1500 Hartree-Fock + 1.0000 wB97M-V + LR-HF
 Correlation:  1.0000 wB97M-V
 Using Euler-Maclaurin-Lebedev (99,590) quadrature formula
 Nonlocal Correlation:  VV10 with C = 0.0100 and b = 6.00 and scale = 1.00000
 Grid used for NLC:  SG-1 standard quadrature
 Long-range K will be added via erf
 Coulomb attenuation parameter = 0.3 bohr**(-1)
 Nonlocal correlation = 6.139414425570e-02
Doing General SCFMI
 Exchange:     0.1500 Hartree-Fock + 1.0000 wB97M-V + LR-HF
 Correlation:  1.0000 wB97M-V
 Using Euler-Maclaurin-Lebedev (99,590) quadrature formula
 Nonlocal Correlation:  VV10 with C = 0.0100 and b = 6.00 and scale = 1.00000
 Grid used for NLC:  SG-1 standard quadrature
performing fock build at end of subrot_r(subrot) constructor so that all methods have access
<S^2> of initial wavefunction before polarization iterations 0.0000000000
Beginning iterations for the determination of the polarized wavefunction
Energy prior to optimization (guess energy) = -114.749553175790
Begin Timing: Total SCF Calculation
begin iterations for algorithm: DIIS         
the SCF tolerance is set to 1.00e-08
    1    -114.7495531758      2.10e-03     00000 
    2    -114.7604200998      5.97e-04     00000 
    3    -114.7611280845      1.72e-04     00000 
    4    -114.7612449342      4.94e-05     00000 
    5    -114.7612568019      3.95e-05     00000 
    6    -114.7612589286      6.97e-06     00000 
    7    -114.7612592140      6.73e-07     00000 
    8    -114.7612592164      1.04e-07     00000 
    9    -114.7612592165      1.53e-08     00000 
   10    -114.7612592165      3.21e-09     00000 Convergence criterion met
write pseudocanon occs and virts to disk
write pseudocanon orbital energies to disk
Timing for Total SCF: 3.00s (wall), 19.03s (cpu)
<S^2> of polarized wavefunction after polarization iterations 0.0000000000
relaxing scfmi constraint to allow all rotations in the entire AO span
Doing General SCFMI
 Exchange:     0.1500 Hartree-Fock + 1.0000 wB97M-V + LR-HF
 Correlation:  1.0000 wB97M-V
 Using Euler-Maclaurin-Lebedev (99,590) quadrature formula
 Nonlocal Correlation:  VV10 with C = 0.0100 and b = 6.00 and scale = 1.00000
 Grid used for NLC:  SG-1 standard quadrature
performing fock build at end of subrot_r(subrot) constructor so that all methods have access
<S^2> of polarized wavefunction before ct-allowed iterations 0.0000000000
Beginning iterations for the determination of the CT-Allowed wavefunction
Energy prior to optimization (guess energy) = -114.761259216507
Begin Timing: Total SCF Calculation
begin iterations for algorithm: DIIS         
the SCF tolerance is set to 1.00e-08
    1    -114.7612592165      8.55e-04     00000 
    2    -114.7637878884      1.23e-04     00000 
    3    -114.7638948994      7.51e-05     00000 
    4    -114.7639069815      3.04e-05     00000 
    5    -114.7639099160      1.85e-06     00000 
    6    -114.7639099639      2.91e-07     00000 
    7    -114.7639099650      7.71e-08     00000 
    8    -114.7639099651      1.89e-08     00000 
    9    -114.7639099651      3.31e-09     00000 Convergence criterion met
write pseudocanon occs and virts to disk
write pseudocanon orbital energies to disk
Timing for Total SCF: 3.00s (wall), 16.91s (cpu)
<S^2> of ct_allowed wavefunction after ct-allowed iterations 0.0000000000

================================
        Results of EDA2         
================================
Basic EDA Quantities
--------------------
Fragment Energies (Ha):
1 -107.4375785721
2   -7.2758394980
--------------------
  E_prp (kJ/mol) = 0.0000
  E_frz (kJ/mol) = -94.8738
  E_pol (kJ/mol) = -30.7346
  E_vct (kJ/mol) = -6.9596
  E_int (kJ/mol) = -132.5680
--------------------


Decomposition of frozen interaction energy
--------------------
  --------------------
  Orthogonal Frozen Decomposition:
  --------------------
     E_elec   (ELEC)   (kJ/mol) = -114.0400
     E_pauli  (PAULI)  (kJ/mol) = 21.8246
     E_disp   (DISP)   (kJ/mol) = -2.6584
  --------------------
  Classical Frozen Decomposition:
  --------------------
     E_cls_elec  (CLS ELEC)  (kJ/mol) = -109.7055
     E_mod_pauli (MOD PAULI) (kJ/mol) = 16.8557 (FRZ - CLS ELEC - CLS DISP)
     E_cls_disp  (CLS DISP)  (kJ/mol) = -2.0241
  --------------------
--------------------

Simplified EDA Summary (kJ/mol)
--------------------
 PREPARATION      0.0000
 FROZEN           -94.8738 (ELEC + PAULI + DISP)
[ELEC + PAULI = -92.8498, DISP = -2.0241]
 POLARIZATION    -30.7346
 CHARGE TRANSFER -6.9596
 TOTAL           -132.5680     (PRP + FRZ + POL + CT)
--------------------
 
 --------------------------------------------------------------
             Orbital Energies (a.u.) and Symmetries
 --------------------------------------------------------------
 
 Alpha MOs, Restricted
 -- Occupied --                  
-24.974  -2.401  -2.313  -1.367  -0.637  -0.633  -0.620
  1 A'    2 A'    3 A'    4 A'    5 A'    6 A'    1 A"                         
 -- Virtual --                   
 -0.206  -0.155  -0.131  -0.118  -0.084  -0.080  -0.068  -0.050
  7 A'    8 A'    2 A"    9 A'   10 A'    3 A"   11 A'   12 A'                 
 -0.046  -0.038  -0.024  -0.006  -0.005   0.011   0.021   0.042
 13 A'    4 A"   14 A'    5 A"   15 A'   16 A'   17 A'    6 A"                 
  0.045   0.090   0.103   0.145   0.156   0.199   0.201   0.231
 18 A'   19 A'   20 A'    7 A"   21 A'    8 A"   22 A'   23 A'                 
  0.257   0.267   0.268   0.297   0.331   0.338   0.358   0.379
 24 A'   25 A'    9 A"   26 A'   10 A"   27 A'   11 A"   12 A"                 
  0.384   0.409   0.503   0.557   0.585   0.647   0.658   0.681
 28 A'   29 A'   30 A'   31 A'   13 A"   14 A"   32 A'   33 A'                 
  0.767   0.847   0.864   1.006   1.062   1.414   1.752   2.264
 34 A'   15 A"   35 A'   36 A'   37 A'   38 A'   39 A'   16 A"                 
  2.294   2.294   2.318   2.473   3.375   3.383   3.493   4.092
 40 A'   17 A"   41 A'   42 A'   18 A"   43 A'   44 A'   45 A'                 
  5.694   5.711   5.845   5.856   5.919   6.089   6.900   6.901
 19 A"   46 A'   47 A'   20 A"   48 A'   49 A'   21 A"   50 A'                 
  6.907   6.912   6.917   6.922   7.026   8.507   8.522   8.527
 22 A"   51 A'   52 A'   23 A"   53 A'   24 A"   25 A"   54 A'                 
  8.535   8.620  14.216  14.744  57.379
 55 A'   56 A'   57 A'   58 A'   59 A'                                         
 
 Beta MOs, Restricted
 -- Occupied --                  
-24.974  -2.401  -2.313  -1.367  -0.637  -0.633  -0.620
  1 A'    2 A'    3 A'    4 A'    5 A'    6 A'    1 A"                         
 -- Virtual --                   
 -0.206  -0.155  -0.131  -0.118  -0.084  -0.080  -0.068  -0.050
  7 A'    8 A'    2 A"    9 A'   10 A'    3 A"   11 A'   12 A'                 
 -0.046  -0.038  -0.024  -0.006  -0.005   0.011   0.021   0.042
 13 A'    4 A"   14 A'    5 A"   15 A'   16 A'   17 A'    6 A"                 
  0.045   0.090   0.103   0.145   0.156   0.199   0.201   0.231
 18 A'   19 A'   20 A'    7 A"   21 A'    8 A"   22 A'   23 A'                 
  0.257   0.267   0.268   0.297   0.331   0.338   0.358   0.379
 24 A'   25 A'    9 A"   26 A'   10 A"   27 A'   11 A"   12 A"                 
  0.384   0.409   0.503   0.557   0.585   0.647   0.658   0.681
 28 A'   29 A'   30 A'   31 A'   13 A"   14 A"   32 A'   33 A'                 
  0.767   0.847   0.864   1.006   1.062   1.414   1.752   2.264
 34 A'   15 A"   35 A'   36 A'   37 A'   38 A'   39 A'   16 A"                 
  2.294   2.294   2.318   2.473   3.375   3.383   3.493   4.092
 40 A'   17 A"   41 A'   42 A'   18 A"   43 A'   44 A'   45 A'                 
  5.694   5.711   5.845   5.856   5.919   6.089   6.900   6.901
 19 A"   46 A'   47 A'   20 A"   48 A'   49 A'   21 A"   50 A'                 
  6.907   6.912   6.917   6.922   7.026   8.507   8.522   8.527
 22 A"   51 A'   52 A'   23 A"   53 A'   24 A"   25 A"   54 A'                 
  8.535   8.620  14.216  14.744  57.379
 55 A'   56 A'   57 A'   58 A'   59 A'                                         
 --------------------------------------------------------------
 
          Ground-State Mulliken Net Atomic Charges

     Atom                 Charge (a.u.)
  ----------------------------------------
      1 F                    -0.824716
      2 Li                    0.875538
      3 Li                    0.949178
  ----------------------------------------
  Sum of atomic charges =     1.000000

 -----------------------------------------------------------------
                    Cartesian Multipole Moments
 -----------------------------------------------------------------
    Charge (ESU x 10^10)
                 4.8032
    Dipole Moment (Debye)
         X       5.4584      Y       6.9004      Z       0.0000
       Tot       8.7983
    Quadrupole Moments (Debye-Ang)
        XX      10.2986     XY      -2.1373     YY      -2.0568
        XZ      -0.0000     YZ       0.0000     ZZ      -7.7460
    Octopole Moments (Debye-Ang^2)
       XXX      29.0196    XXY       8.9465    XYY      -2.5316
       YYY      11.1230    XXZ       0.0000    XYZ      -0.0000
       YYZ       0.0000    XZZ       1.4281    YZZ       1.7755
       ZZZ      -0.0000
    Hexadecapole Moments (Debye-Ang^3)
      XXXX      30.1568   XXXY       2.3249   XXYY      -1.4490
      XYYY      -6.1090   YYYY      -9.4095   XXXZ       0.0000
      XXYZ       0.0000   XYYZ      -0.0000   YYYZ       0.0000
      XXZZ      -4.5838   XYZZ      -0.5666   YYZZ      -3.7165
      XZZZ       0.0000   YZZZ       0.0000   ZZZZ      -7.0491
 -----------------------------------------------------------------
 Total job time:  22.39s(wall), 73.15s(cpu) 
 Sat Jan  6 15:26:08 2024

        *************************************************************
        *                                                           *
        *  Thank you very much for using Q-Chem.  Have a nice day.  *
        *                                                           *
        *************************************************************


