
Running Job 1 of 1 082_NaF-Na_1.00_almo.in
qchem 082_NaF-Na_1.00_almo.in_539907.0 /scratch/qchem539907/ 6
/home/kchung25/qchem/5.4.0/exe/qcprog.exe_s 082_NaF-Na_1.00_almo.in_539907.0 /scratch/qchem539907/
                  Welcome to Q-Chem
     A Quantum Leap Into The Future Of Chemistry


 Q-Chem 5.4, Q-Chem, Inc., Pleasanton, CA (2021)

 E. Epifanovsky,  A. T. B. Gilbert,  Xintian Feng,  Joonho Lee,  Yuezhi Mao,  
 N. Mardirossian,  P. Pokhilko,  A. White,  M. Wormit,  M. P. Coons,  
 A. L. Dempwolff,  Zhengting Gan,  D. Hait,  P. R. Horn,  L. D. Jacobson,  
 I. Kaliman,  J. Kussmann,  A. W. Lange,  Ka Un Lao,  D. S. Levine,  Jie Liu,  
 S. C. McKenzie,  A. F. Morrison,  K. Nanda,  F. Plasser,  D. R. Rehn,  
 M. L. Vidal,  Zhi-Qiang You,  Ying Zhu,  B. Alam,  B. Albrecht,  
 A. Aldossary,  E. Alguire,  J. H. Andersen,  D. Barton,  K. Begam,  A. Behn,  
 Y. A. Bernard,  E. J. Berquist,  H. Burton,  A. Carreras,  K. Carter-Fenk,  
 Romit Chakraborty,  A. D. Chien,  K. D. Closser,  V. Cofer-Shabica,  
 S. Dasgupta,  Jia Deng,  M. de Wergifosse,  M. Diedenhofen,  Hainam Do,  
 S. Ehlert,  Po-Tung Fang,  S. Fatehi,  Qingguo Feng,  T. Friedhoff,  
 J. Gayvert,  Qinghui Ge,  G. Gidofalvi,  M. Goldey,  J. Gomes,  
 C. Gonzalez-Espinoza,  S. Gulania,  A. Gunina,  M. W. D. Hanson-Heine,  
 P. H. P. Harbach,  A. W. Hauser,  M. F. Herbst,  M. Hernandez Vera,  
 M. Hodecker,  Z. C. Holden,  S. Houck,  Xunkun Huang,  Kerwin Hui,  
 B. C. Huynh,  M. Ivanov,  Hyunjun Ji,  Hanjie Jiang,  B. Kaduk,  S. Kaehler,  
 K. Khistyaev,  Jaehoon Kim,  P. Klunzinger,  Z. Koczor-Benda,  
 Joong Hoon Koh,  D. Kosenkov,  L. Koulias,  T. Kowalczyk,  C. M. Krauter,  
 K. Kue,  A. Kunitsa,  T. Kus,  A. Landau,  K. V. Lawler,  D. Lefrancois,  
 S. Lehtola,  Rain Li,  Yi-Pei Li,  Jiashu Liang,  M. Liebenthal,  
 Hung-Hsuan Lin,  You-Sheng Lin,  Fenglai Liu,  Kuan-Yu Liu,  
 M. Loipersberger,  A. Luenser,  A. Manjanath,  P. Manohar,  E. Mansoor,  
 S. F. Manzer,  Shan-Ping Mao,  A. V. Marenich,  T. Markovich,  S. Mason,  
 S. A. Maurer,  P. F. McLaughlin,  M. F. S. J. Menger,  J.-M. Mewes,  
 S. A. Mewes,  P. Morgante,  J. W. Mullinax,  K. J. Oosterbaan,  G. Paran,  
 Alexander C. Paul,  Suranjan K. Paul,  F. Pavosevic,  Zheng Pei,  S. Prager,  
 E. I. Proynov,  E. Ramos,  B. Rana,  A. E. Rask,  A. Rettig,  R. M. Richard,  
 F. Rob,  E. Rossomme,  T. Scheele,  M. Scheurer,  M. Schneider,  
 N. Sergueev,  S. M. Sharada,  W. Skomorowski,  D. W. Small,  C. J. Stein,  
 Yu-Chuan Su,  E. J. Sundstrom,  Zhen Tao,  J. Thirman,  T. Tsuchimochi,  
 N. M. Tubman,  S. P. Veccham,  O. Vydrov,  J. Wenzel,  J. Witte,  A. Yamada,  
 Kun Yao,  S. Yeganeh,  S. R. Yost,  A. Zech,  Igor Ying Zhang,  Xing Zhang,  
 Yu Zhang,  D. Zuev,  A. Aspuru-Guzik,  A. T. Bell,  N. A. Besley,  
 K. B. Bravaya,  B. R. Brooks,  D. Casanova,  Jeng-Da Chai,  S. Coriani,  
 C. J. Cramer,  A. E. DePrince, III,  R. A. DiStasio Jr.,  A. Dreuw,  
 B. D. Dunietz,  T. R. Furlani,  W. A. Goddard III,  S. Grimme,  
 S. Hammes-Schiffer,  T. Head-Gordon,  W. J. Hehre,  Chao-Ping Hsu,  
 T.-C. Jagau,  Yousung Jung,  A. Klamt,  Jing Kong,  D. S. Lambrecht,  
 WanZhen Liang,  N. J. Mayhall,  C. W. McCurdy,  J. B. Neaton,  T. Neudecker,  
 C. Ochsenfeld,  J. A. Parkhill,  R. Peverati,  V. A. Rassolov,  Yihan Shao,  
 L. V. Slipchenko,  R. P. Steele,  J. E. Subotnik,  A. J. W. Thom,  
 A. Tkatchenko,  D. G. Truhlar,  T. Van Voorhis,  T. A. Wesolowski,  
 K. B. Whaley,  H. L. Woodcock III,  P. M. Zimmerman,  S. Faraji,  
 P. M. W. Gill,  M. Head-Gordon,  J. M. Herbert,  A. I. Krylov

 Additional authors since Version 5.4.0: 
 Chandrima Chakravarty,  L. Cunha,  R. Kang,  Yongbin Kim,  S. Kotaru,  
 Shaozhi Li,  Xiangyuan Li,  F. Matz,  A. Molle,  V. Parravicini,  
 Haisheng Ren,  Hengyuan Shen,  Yingli Su,  Hung-Yi Tsai,  C. Utku,  
 Fang Wang,  Jeff Yang,  F. Zeller

 Contributors to earlier versions of Q-Chem not listed above: 
 R. D. Adamson,  B. Austin,  R. Baer,  J. Baker,  G. J. O. Beran,  
 K. Brandhorst,  S. T. Brown,  E. F. C. Byrd,  Arup K. Chakraborty,  
 G. K. L. Chan,  Chun-Min Chang,  Yunqing Chen,  C.-L. Cheng,  
 Siu Hung Chien,  D. M. Chipman,  D. L. Crittenden,  H. Dachsel,  
 R. J. Doerksen,  A. D. Dutoi,  R. G. Edgar,  J. Fosso-Tande,  
 L. Fusti-Molnar,  D. Ghosh,  A. Ghysels,  A. Golubeva-Zadorozhnaya,  
 J. Gonthier,  M. S. Gordon,  S. R. Gwaltney,  G. Hawkins,  J. E. Herr,  
 A. Heyden,  S. Hirata,  E. G. Hohenstein,  G. Kedziora,  F. J. Keil,  
 C. Kelley,  Jihan Kim,  R. A. King,  R. Z. Khaliullin,  P. P. Korambath,  
 W. Kurlancheek,  A. Laurent,  A. M. Lee,  M. S. Lee,  S. V. Levchenko,  
 Ching Yeh Lin,  D. Liotard,  E. Livshits,  R. C. Lochan,  I. Lotan,  
 L. A. Martinez-Martinez,  P. E. Maslen,  N. Nair,  D. P. O'Neill,  
 D. Neuhauser,  E. Neuscamman,  C. M. Oana,  R. Olivares-Amaya,  R. Olson,  
 T. M. Perrine,  B. Peters,  P. A. Pieniazek,  A. Prociuk,  Y. M. Rhee,  
 J. Ritchie,  M. A. Rohrdanz,  E. Rosta,  N. J. Russ,  H. F. Schaefer III,  
 M. W. Schmidt,  N. E. Schultz,  S. Sharma,  N. Shenvi,  C. D. Sherrill,  
 A. C. Simmonett,  A. Sodt,  T. Stein,  D. Stuck,  K. S. Thanthiriwatte,  
 V. Vanovschi,  L. Vogt,  Tao Wang,  A. Warshel,  M. A. Watson,  
 C. F. Williams,  Q. Wu,  X. Xu,  Jun Yang,  W. Zhang,  Yan Zhao

   Please cite Q-Chem as follows:
  "Software for the frontiers of quantum chemistry:
   An overview of developments in the Q-Chem 5 package"
   J. Chem. Phys. 155, 084801 (2021)
   https://doi.org/10.1063/5.0055522 (open access)

 Q-Chem 5.4.2 for Intel X86 EM64T Linux

 Parts of Q-Chem use Armadillo 9.900.5 (Nocturnal Misbehaviour).
 http://arma.sourceforge.net/

 Q-Chem begins on Sat Jan  6 15:49:56 2024  

 Host: 
0

     Scratch files written to /scratch/qchem539907//
 Dec1321 |scratch|qcdevops|jenkins|workspace|build_RNUM 5684   
 Processing $rem in /home/kchung25/qchem/5.4.0/config/preferences:
 Processing $rem in /home/kchung25/.qchemrc:

 Q-Chem warning in module libgen/rem_setup.C, line 3079:

 Neither GIA nor STOLL is specified by user. Use STOLL as the default


 Checking the input file for inconsistencies... 	...done.

--------------------------------------------------------------
User input:
--------------------------------------------------------------
$molecule
1 1
--
0 1
F      0.000000     0.000000     0.000000
Na     0.000000     1.939580     0.000000
--
1 1
Na     1.939580     0.000000     0.000000
$end

$rem
JOBTYPE          eda
EDA2             1
METHOD           wB97M-V
BASIS            def2-TZVPPD
SYMMETRY         false
MEM_TOTAL        50000
MEM_STATIC       10000
THRESH           14
SCF_CONVERGENCE  8
XC_GRID          000099000590
NL_GRID          1
EDA_CLS_DISP     true
FD_MAT_VEC_PROD  FALSE
$end
--------------------------------------------------------------
 ----------------------------------------------------------------
             Standard Nuclear Orientation (Angstroms)
    I     Atom           X                Y                Z
 ----------------------------------------------------------------
    1      F      -0.0000000000    -0.0000000000     0.9733156050
    2      Na     -1.3714901707     0.0000000000    -0.3981745657
    3      Na      1.3714901707    -0.0000000000    -0.3981745657
 ----------------------------------------------------------------
 Molecular Point Group                 C2v   NOp =  4
 Largest Abelian Subgroup              C2v   NOp =  4
 Nuclear Repulsion Energy =          77.36388694 hartrees
 There are       15 alpha and       15 beta electrons
 Requested basis set is def2-TZVPPD
 There are 40 shells and 110 basis functions

 Q-Chem warning in module libmdc/get_mega.C, line 171:

 Allowed MEM_STATIC has been capped at MEM_STATIC=8191.
 Reduce the value of MEM_STATIC to silence this warning.


 Total QAlloc Memory Limit  50000 MB
 Mega-Array Size      8007 MB
 MEM_STATIC part      8191 MB

                       Distance Matrix (Angstroms)
             F (  1)   Na(  2)
   Na(  2)  1.939580
   Na(  3)  1.939580  2.742980
 
 A cutoff of  1.0D-14 yielded    811 shell pairs
 There are      6241 function pairs (      7706 Cartesian)
 Smallest overlap matrix eigenvalue = 1.07E-03

 Scale SEOQF with 1.000000e-01/1.000000e-01/1.000000e-01

 Standard Electronic Orientation quadrupole field applied
 Nucleus-field energy     =     0.0000000002 hartrees

 -----------------------------------------------------------------------
  General SCF calculation program by
  Eric Jon Sundstrom, Paul Horn, Yuezhi Mao, Dmitri Zuev, Alec White,
  David Stuck, Shaama M.S., Shane Yost, Joonho Lee, David Small,
  Daniel Levine, Susi Lehtola, Hugh Burton, Evgeny Epifanovsky,
  Bang C. Huynh
 -----------------------------------------------------------------------
================================================================
                 ALMO-EDA with the EDA2 driver                  
================================================================
 The second-generation ALMO-EDA (for DFT):                      
 P. R. Horn, Y. Mao and M. Head-Gordon, PCCP, 18, 23067 (2016)  
 Y. Mao et al. Annu. Rev. Phys. Chem. 72, 641 (2021)            
 Decomposition of the frozen energy:                            
 P. R. Horn, Y. Mao and M. Head-Gordon, JCP, 144, 114107 (2016) 
 FERF model for polarization:                                   
 P. R. Horn and M. Head-Gordon, JCP, 143, 114111 (2015)         
================================================================
 Using eda2 option set 1
 Option set summary: Frozen orbital wavefunction, initial wavefunction decomposition, and nDQ polarization.
--------------------------------
Printing EDA Options
--------------------------------
eda_child_super_basis      0
fragmo_guess_mode          0
child_mp                   1
child_mp_orders            232
cls_elec                   1
cls_disp                   1
scfmi_mode                 1
scfmi_occs                 0
scfmi_virts                0
frz_relax                  0
frz_relax_method           0
dc_pen_start               0
dc_pen_conv                0
dc_pen_increment           0
dc_pen_steps               0
dc_pen_thresh_factor       0
dc_pen_pre_newton_thresh   0
frz_ortho_decomp           1
frz_ortho_decomp_conv      6
plot_mo_ortho_frz          0
frgm_method                2
scfmi_freeze_ss            0
separate_rehyb             0
plot_diff_den              0
eda_nocv                   0
eda_vct_relax              1
disp_free_x                0
disp_free_c                0
eda_bsse                   0
eda_pct_a                  0
eda_covp                   0
--------------------------------
Attempting to make child job directory: /scratch/qchem539907//Frg1/
Attempting to make child job directory: /scratch/qchem539907//Frg2/
Creating input file /scratch/qchem539907/Frg1.input
using default PutDataFrgm: nothing
calling putenv with: QCSCRATCH=/scratch/qchem539907/ 
Spawning Job For Fragment 0
Done Job For Fragment 0
calling putenv with: QCSCRATCH=/scratch 
calling putenv with: QCTHREADS=6 
Creating input file /scratch/qchem539907/Frg2.input
using default PutDataFrgm: nothing
calling putenv with: QCSCRATCH=/scratch/qchem539907/ 
Spawning Job For Fragment 1
Done Job For Fragment 1
calling putenv with: QCSCRATCH=/scratch 
calling putenv with: QCTHREADS=6 
Doing General SCFMI
 Exchange:     0.1500 Hartree-Fock + 1.0000 wB97M-V + LR-HF
 Correlation:  1.0000 wB97M-V
 Using Euler-Maclaurin-Lebedev (99,590) quadrature formula
 Nonlocal Correlation:  VV10 with C = 0.0100 and b = 6.00 and scale = 1.00000
 Grid used for NLC:  SG-1 standard quadrature
performing fock build before subrot guess so that all methods have access
Printing subrot_rss_gen Method Specification:
Occupied Subspace Method is 0
Virtual Subspace Method is 0
Energy of the unrelaxed supersystem initial determinant -424.290008623710
write pseudocanon occs and virts to disk
write pseudocanon orbital energies to disk
Tolerance of ortho_decomp_scf: 1.00e-06
GDM subspace size: 20
Beginning the Orthogonal Decomposition of the Initial Supersystem Wavefunction
    1    -424.1537609203      4.48e-01     ortho_decomp Preconditoned Steepest Descent
    2    -424.1723211015      5.26e-03     ortho_decomp BFGS Step
    3    -424.1723359005      2.48e-04     ortho_decomp BFGS Step
    4    -424.1723359102      4.68e-06     ortho_decomp BFGS Step
    5    -424.1723359102      2.70e-08     ortho_decomp 00000 Convergence criterion met
 Hartree-Fock
 Hartree-Fock
 Hartree-Fock
 Exchange:     0.1500 Hartree-Fock + 1.0000 wB97M-V + LR-HF
 Correlation:  1.0000 wB97M-V
 Using Euler-Maclaurin-Lebedev (99,590) quadrature formula
 Nonlocal Correlation:  VV10 with C = 0.0100 and b = 6.00 and scale = 1.00000
 Grid used for NLC:  SG-1 standard quadrature
 Long-range K will be added via erf
 Coulomb attenuation parameter = 0.3 bohr**(-1)
 Nonlocal correlation = 1.307039984223e-01
Doing General SCFMI
 Exchange:     0.1500 Hartree-Fock + 1.0000 wB97M-V + LR-HF
 Correlation:  1.0000 wB97M-V
 Using Euler-Maclaurin-Lebedev (99,590) quadrature formula
 Nonlocal Correlation:  VV10 with C = 0.0100 and b = 6.00 and scale = 1.00000
 Grid used for NLC:  SG-1 standard quadrature
performing fock build at end of subrot_r(subrot) constructor so that all methods have access
<S^2> of initial wavefunction before polarization iterations 0.0000000000
Beginning iterations for the determination of the polarized wavefunction
Energy prior to optimization (guess energy) = -424.290008623710
Begin Timing: Total SCF Calculation
begin iterations for algorithm: DIIS         
the SCF tolerance is set to 1.00e-08
    1    -424.2900086237      1.78e-03     00000 
    2    -424.3026058203      5.36e-04     00000 
    3    -424.3032801072      2.32e-04     00000 
    4    -424.3034015544      1.32e-04     00000 
    5    -424.3034455658      2.54e-05     00000 
    6    -424.3034502771      5.88e-06     00000 
    7    -424.3034507441      1.92e-06     00000 
    8    -424.3034507781      4.67e-07     00000 
    9    -424.3034507803      1.09e-07     00000 
   10    -424.3034507804      3.13e-08     00000 
   11    -424.3034507804      1.19e-08     00000 
   12    -424.3034507804      3.38e-09     00000 Convergence criterion met
write pseudocanon occs and virts to disk
write pseudocanon orbital energies to disk
Timing for Total SCF: 7.00s (wall), 38.63s (cpu)
<S^2> of polarized wavefunction after polarization iterations 0.0000000000
relaxing scfmi constraint to allow all rotations in the entire AO span
Doing General SCFMI
 Exchange:     0.1500 Hartree-Fock + 1.0000 wB97M-V + LR-HF
 Correlation:  1.0000 wB97M-V
 Using Euler-Maclaurin-Lebedev (99,590) quadrature formula
 Nonlocal Correlation:  VV10 with C = 0.0100 and b = 6.00 and scale = 1.00000
 Grid used for NLC:  SG-1 standard quadrature
performing fock build at end of subrot_r(subrot) constructor so that all methods have access
<S^2> of polarized wavefunction before ct-allowed iterations 0.0000000000
Beginning iterations for the determination of the CT-Allowed wavefunction
Energy prior to optimization (guess energy) = -424.303450780365
Begin Timing: Total SCF Calculation
begin iterations for algorithm: DIIS         
the SCF tolerance is set to 1.00e-08
    1    -424.3034507804      7.57e-04     00000 
    2    -424.3053608529      6.81e-05     00000 
    3    -424.3053939817      3.86e-05     00000 
    4    -424.3053983568      1.56e-05     00000 
    5    -424.3053992857      1.13e-06     00000 
    6    -424.3053992971      3.65e-07     00000 
    7    -424.3053992988      6.88e-08     00000 
    8    -424.3053992989      1.88e-08     00000 
    9    -424.3053992990      4.16e-09     00000 Convergence criterion met
write pseudocanon occs and virts to disk
write pseudocanon orbital energies to disk
Timing for Total SCF: 5.00s (wall), 28.40s (cpu)
<S^2> of ct_allowed wavefunction after ct-allowed iterations 0.0000000000

================================
        Results of EDA2         
================================
Basic EDA Quantities
--------------------
Fragment Energies (Ha):
1 -262.1837934295
2 -162.0687155488
--------------------
  E_prp (kJ/mol) = 0.0000
  E_frz (kJ/mol) = -98.4565
  E_pol (kJ/mol) = -35.2928
  E_vct (kJ/mol) = -5.1159
  E_int (kJ/mol) = -138.8652
--------------------


Decomposition of frozen interaction energy
--------------------
  --------------------
  Orthogonal Frozen Decomposition:
  --------------------
     E_elec   (ELEC)   (kJ/mol) = -269.3503
     E_pauli  (PAULI)  (kJ/mol) = 182.5893
     E_disp   (DISP)   (kJ/mol) = -11.6955
  --------------------
  Classical Frozen Decomposition:
  --------------------
     E_cls_elec  (CLS ELEC)  (kJ/mol) = -228.6562
     E_mod_pauli (MOD PAULI) (kJ/mol) = 139.3533 (FRZ - CLS ELEC - CLS DISP)
     E_cls_disp  (CLS DISP)  (kJ/mol) = -9.1535
  --------------------
--------------------

Simplified EDA Summary (kJ/mol)
--------------------
 PREPARATION      0.0000
 FROZEN           -98.4565 (ELEC + PAULI + DISP)
[ELEC + PAULI = -89.3030, DISP = -9.1535]
 POLARIZATION    -35.2928
 CHARGE TRANSFER -5.1159
 TOTAL           -138.8652     (PRP + FRZ + POL + CT)
--------------------
 
 --------------------------------------------------------------
             Orbital Energies (a.u.) and Symmetries
 --------------------------------------------------------------
 
 Alpha MOs, Restricted
 -- Occupied --                  
-38.914 -38.914 -24.935  -2.559  -2.559  -1.471  -1.463  -1.462
  1 B1    1 A1    2 A1    3 A1    2 B1    4 A1    5 A1    1 B2                 
 -1.461  -1.461  -1.458  -1.324  -0.600  -0.598  -0.590
  3 B1    1 A2    4 B1    6 A1    5 B1    7 A1    2 B2                         
 -- Virtual --                   
 -0.196  -0.144  -0.117  -0.104  -0.077  -0.074  -0.067  -0.059
  8 A1    6 B1    3 B2    9 A1   10 A1    2 A2    7 B1   11 A1                 
 -0.052  -0.046  -0.036  -0.027  -0.026  -0.021  -0.012   0.017
  8 B1    4 B2   12 A1   13 A1    3 A2    9 B1   10 B1   11 B1                 
  0.038   0.040   0.050   0.062   0.096   0.097   0.101   0.104
  5 B2   14 A1   15 A1    6 B2    7 B2   16 A1    4 A2   12 B1                 
  0.105   0.107   0.128   0.134   0.176   0.180   0.196   0.218
 13 B1   17 A1    5 A2   14 B1   18 A1    8 B2   15 B1   19 A1                 
  0.229   0.289   0.322   0.380   0.488   0.563   0.565   0.579
  6 A2   20 A1   16 B1   17 B1   21 A1    9 B2   18 B1   22 A1                 
  0.580   0.715   0.789   0.812   0.912   0.944   0.946   0.962
  7 A2   10 B2   23 A1   19 B1   24 A1   25 A1   11 B2    8 A2                 
  0.968   0.997   0.997   1.030   1.033   1.057   1.064   1.154
 20 B1    9 A2   21 B1   26 A1   12 B2   27 A1   22 B1   10 A2                 
  1.202   1.215   1.255   1.277   1.448   2.334   2.337   2.362
 13 B2   23 B1   24 B1   28 A1   29 A1   14 B2   11 A2   30 A1                 
  2.397   2.506   3.408   3.436   3.451   3.994   4.200   4.210
 31 A1   25 B1   15 B2   32 A1   26 B1   33 A1   34 A1   27 B1                 
  5.605   5.608   5.616   5.618   5.628   5.648   5.650   5.684
 35 A1   16 B2   12 A2   28 B1   13 A2   17 B2   36 A1   29 B1                 
  5.719   5.722   6.931   6.942   6.946   6.951   6.952   6.990
 30 B1   37 A1   18 B2   31 B1   38 A1   19 B2   14 A2   32 B1                 
  6.999   8.568   8.572   8.590   8.598   8.686  57.442
 39 A1   20 B2   15 A2   40 A1   41 A1   33 B1   42 A1                         
 
 Beta MOs, Restricted
 -- Occupied --                  
-38.914 -38.914 -24.935  -2.559  -2.559  -1.471  -1.463  -1.462
  1 B1    1 A1    2 A1    3 A1    2 B1    4 A1    5 A1    1 B2                 
 -1.461  -1.461  -1.458  -1.324  -0.600  -0.598  -0.590
  3 B1    1 A2    4 B1    6 A1    5 B1    7 A1    2 B2                         
 -- Virtual --                   
 -0.196  -0.144  -0.117  -0.104  -0.077  -0.074  -0.067  -0.059
  8 A1    6 B1    3 B2    9 A1   10 A1    2 A2    7 B1   11 A1                 
 -0.052  -0.046  -0.036  -0.027  -0.026  -0.021  -0.012   0.017
  8 B1    4 B2   12 A1   13 A1    3 A2    9 B1   10 B1   11 B1                 
  0.038   0.040   0.050   0.062   0.096   0.097   0.101   0.104
  5 B2   14 A1   15 A1    6 B2    7 B2   16 A1    4 A2   12 B1                 
  0.105   0.107   0.128   0.134   0.176   0.180   0.196   0.218
 13 B1   17 A1    5 A2   14 B1   18 A1    8 B2   15 B1   19 A1                 
  0.229   0.289   0.322   0.380   0.488   0.563   0.565   0.579
  6 A2   20 A1   16 B1   17 B1   21 A1    9 B2   18 B1   22 A1                 
  0.580   0.715   0.789   0.812   0.912   0.944   0.946   0.962
  7 A2   10 B2   23 A1   19 B1   24 A1   25 A1   11 B2    8 A2                 
  0.968   0.997   0.997   1.030   1.033   1.057   1.064   1.154
 20 B1    9 A2   21 B1   26 A1   12 B2   27 A1   22 B1   10 A2                 
  1.202   1.215   1.255   1.277   1.448   2.334   2.337   2.362
 13 B2   23 B1   24 B1   28 A1   29 A1   14 B2   11 A2   30 A1                 
  2.397   2.506   3.408   3.436   3.451   3.994   4.200   4.210
 31 A1   25 B1   15 B2   32 A1   26 B1   33 A1   34 A1   27 B1                 
  5.605   5.608   5.616   5.618   5.628   5.648   5.650   5.684
 35 A1   16 B2   12 A2   28 B1   13 A2   17 B2   36 A1   29 B1                 
  5.719   5.722   6.931   6.942   6.946   6.951   6.952   6.990
 30 B1   37 A1   18 B2   31 B1   38 A1   19 B2   14 A2   32 B1                 
  6.999   8.568   8.572   8.590   8.598   8.686  57.442
 39 A1   20 B2   15 A2   40 A1   41 A1   33 B1   42 A1                         
 --------------------------------------------------------------
 
          Ground-State Mulliken Net Atomic Charges

     Atom                 Charge (a.u.)
  ----------------------------------------
      1 F                    -0.969333
      2 Na                    0.984667
      3 Na                    0.984667
  ----------------------------------------
  Sum of atomic charges =     1.000000

 -----------------------------------------------------------------
                    Cartesian Multipole Moments
 -----------------------------------------------------------------
    Charge (ESU x 10^10)
                 4.8032
    Dipole Moment (Debye)
         X      -0.0000      Y      -0.0000      Z      -7.0123
       Tot       7.0123
    Quadrupole Moments (Debye-Ang)
        XX       4.8948     XY       0.0000     YY     -12.9385
        XZ       0.0000     YZ      -0.0000     ZZ     -13.9310
    Octopole Moments (Debye-Ang^2)
       XXX      -0.0000    XXY      -0.0000    XYY      -0.0000
       YYY      -0.0000    XXZ     -10.5538    XYZ       0.0000
       YYZ      -3.7492    XZZ      -0.0000    YZZ      -0.0000
       ZZZ     -13.2965
    Hexadecapole Moments (Debye-Ang^3)
      XXXX     -43.0841   XXXY      -0.0000   XXYY     -14.1979
      XYYY      -0.0000   YYYY      -9.1654   XXXZ       0.0000
      XXYZ      -0.0000   XYYZ      -0.0000   YYYZ      -0.0000
      XXZZ     -18.3565   XYZZ       0.0000   YYZZ      -9.5241
      XZZZ       0.0000   YZZZ      -0.0000   ZZZZ     -48.9024
 -----------------------------------------------------------------
 Total job time:  37.26s(wall), 128.75s(cpu) 
 Sat Jan  6 15:50:33 2024

        *************************************************************
        *                                                           *
        *  Thank you very much for using Q-Chem.  Have a nice day.  *
        *                                                           *
        *************************************************************


