
Running Job 1 of 1 083_NaF-F_1.20_almo.in
qchem 083_NaF-F_1.20_almo.in_540536.0 /scratch/qchem540536/ 6
/home/kchung25/qchem/5.4.0/exe/qcprog.exe_s 083_NaF-F_1.20_almo.in_540536.0 /scratch/qchem540536/
                  Welcome to Q-Chem
     A Quantum Leap Into The Future Of Chemistry


 Q-Chem 5.4, Q-Chem, Inc., Pleasanton, CA (2021)

 E. Epifanovsky,  A. T. B. Gilbert,  Xintian Feng,  Joonho Lee,  Yuezhi Mao,  
 N. Mardirossian,  P. Pokhilko,  A. White,  M. Wormit,  M. P. Coons,  
 A. L. Dempwolff,  Zhengting Gan,  D. Hait,  P. R. Horn,  L. D. Jacobson,  
 I. Kaliman,  J. Kussmann,  A. W. Lange,  Ka Un Lao,  D. S. Levine,  Jie Liu,  
 S. C. McKenzie,  A. F. Morrison,  K. Nanda,  F. Plasser,  D. R. Rehn,  
 M. L. Vidal,  Zhi-Qiang You,  Ying Zhu,  B. Alam,  B. Albrecht,  
 A. Aldossary,  E. Alguire,  J. H. Andersen,  D. Barton,  K. Begam,  A. Behn,  
 Y. A. Bernard,  E. J. Berquist,  H. Burton,  A. Carreras,  K. Carter-Fenk,  
 Romit Chakraborty,  A. D. Chien,  K. D. Closser,  V. Cofer-Shabica,  
 S. Dasgupta,  Jia Deng,  M. de Wergifosse,  M. Diedenhofen,  Hainam Do,  
 S. Ehlert,  Po-Tung Fang,  S. Fatehi,  Qingguo Feng,  T. Friedhoff,  
 J. Gayvert,  Qinghui Ge,  G. Gidofalvi,  M. Goldey,  J. Gomes,  
 C. Gonzalez-Espinoza,  S. Gulania,  A. Gunina,  M. W. D. Hanson-Heine,  
 P. H. P. Harbach,  A. W. Hauser,  M. F. Herbst,  M. Hernandez Vera,  
 M. Hodecker,  Z. C. Holden,  S. Houck,  Xunkun Huang,  Kerwin Hui,  
 B. C. Huynh,  M. Ivanov,  Hyunjun Ji,  Hanjie Jiang,  B. Kaduk,  S. Kaehler,  
 K. Khistyaev,  Jaehoon Kim,  P. Klunzinger,  Z. Koczor-Benda,  
 Joong Hoon Koh,  D. Kosenkov,  L. Koulias,  T. Kowalczyk,  C. M. Krauter,  
 K. Kue,  A. Kunitsa,  T. Kus,  A. Landau,  K. V. Lawler,  D. Lefrancois,  
 S. Lehtola,  Rain Li,  Yi-Pei Li,  Jiashu Liang,  M. Liebenthal,  
 Hung-Hsuan Lin,  You-Sheng Lin,  Fenglai Liu,  Kuan-Yu Liu,  
 M. Loipersberger,  A. Luenser,  A. Manjanath,  P. Manohar,  E. Mansoor,  
 S. F. Manzer,  Shan-Ping Mao,  A. V. Marenich,  T. Markovich,  S. Mason,  
 S. A. Maurer,  P. F. McLaughlin,  M. F. S. J. Menger,  J.-M. Mewes,  
 S. A. Mewes,  P. Morgante,  J. W. Mullinax,  K. J. Oosterbaan,  G. Paran,  
 Alexander C. Paul,  Suranjan K. Paul,  F. Pavosevic,  Zheng Pei,  S. Prager,  
 E. I. Proynov,  E. Ramos,  B. Rana,  A. E. Rask,  A. Rettig,  R. M. Richard,  
 F. Rob,  E. Rossomme,  T. Scheele,  M. Scheurer,  M. Schneider,  
 N. Sergueev,  S. M. Sharada,  W. Skomorowski,  D. W. Small,  C. J. Stein,  
 Yu-Chuan Su,  E. J. Sundstrom,  Zhen Tao,  J. Thirman,  T. Tsuchimochi,  
 N. M. Tubman,  S. P. Veccham,  O. Vydrov,  J. Wenzel,  J. Witte,  A. Yamada,  
 Kun Yao,  S. Yeganeh,  S. R. Yost,  A. Zech,  Igor Ying Zhang,  Xing Zhang,  
 Yu Zhang,  D. Zuev,  A. Aspuru-Guzik,  A. T. Bell,  N. A. Besley,  
 K. B. Bravaya,  B. R. Brooks,  D. Casanova,  Jeng-Da Chai,  S. Coriani,  
 C. J. Cramer,  A. E. DePrince, III,  R. A. DiStasio Jr.,  A. Dreuw,  
 B. D. Dunietz,  T. R. Furlani,  W. A. Goddard III,  S. Grimme,  
 S. Hammes-Schiffer,  T. Head-Gordon,  W. J. Hehre,  Chao-Ping Hsu,  
 T.-C. Jagau,  Yousung Jung,  A. Klamt,  Jing Kong,  D. S. Lambrecht,  
 WanZhen Liang,  N. J. Mayhall,  C. W. McCurdy,  J. B. Neaton,  T. Neudecker,  
 C. Ochsenfeld,  J. A. Parkhill,  R. Peverati,  V. A. Rassolov,  Yihan Shao,  
 L. V. Slipchenko,  R. P. Steele,  J. E. Subotnik,  A. J. W. Thom,  
 A. Tkatchenko,  D. G. Truhlar,  T. Van Voorhis,  T. A. Wesolowski,  
 K. B. Whaley,  H. L. Woodcock III,  P. M. Zimmerman,  S. Faraji,  
 P. M. W. Gill,  M. Head-Gordon,  J. M. Herbert,  A. I. Krylov

 Additional authors since Version 5.4.0: 
 Chandrima Chakravarty,  L. Cunha,  R. Kang,  Yongbin Kim,  S. Kotaru,  
 Shaozhi Li,  Xiangyuan Li,  F. Matz,  A. Molle,  V. Parravicini,  
 Haisheng Ren,  Hengyuan Shen,  Yingli Su,  Hung-Yi Tsai,  C. Utku,  
 Fang Wang,  Jeff Yang,  F. Zeller

 Contributors to earlier versions of Q-Chem not listed above: 
 R. D. Adamson,  B. Austin,  R. Baer,  J. Baker,  G. J. O. Beran,  
 K. Brandhorst,  S. T. Brown,  E. F. C. Byrd,  Arup K. Chakraborty,  
 G. K. L. Chan,  Chun-Min Chang,  Yunqing Chen,  C.-L. Cheng,  
 Siu Hung Chien,  D. M. Chipman,  D. L. Crittenden,  H. Dachsel,  
 R. J. Doerksen,  A. D. Dutoi,  R. G. Edgar,  J. Fosso-Tande,  
 L. Fusti-Molnar,  D. Ghosh,  A. Ghysels,  A. Golubeva-Zadorozhnaya,  
 J. Gonthier,  M. S. Gordon,  S. R. Gwaltney,  G. Hawkins,  J. E. Herr,  
 A. Heyden,  S. Hirata,  E. G. Hohenstein,  G. Kedziora,  F. J. Keil,  
 C. Kelley,  Jihan Kim,  R. A. King,  R. Z. Khaliullin,  P. P. Korambath,  
 W. Kurlancheek,  A. Laurent,  A. M. Lee,  M. S. Lee,  S. V. Levchenko,  
 Ching Yeh Lin,  D. Liotard,  E. Livshits,  R. C. Lochan,  I. Lotan,  
 L. A. Martinez-Martinez,  P. E. Maslen,  N. Nair,  D. P. O'Neill,  
 D. Neuhauser,  E. Neuscamman,  C. M. Oana,  R. Olivares-Amaya,  R. Olson,  
 T. M. Perrine,  B. Peters,  P. A. Pieniazek,  A. Prociuk,  Y. M. Rhee,  
 J. Ritchie,  M. A. Rohrdanz,  E. Rosta,  N. J. Russ,  H. F. Schaefer III,  
 M. W. Schmidt,  N. E. Schultz,  S. Sharma,  N. Shenvi,  C. D. Sherrill,  
 A. C. Simmonett,  A. Sodt,  T. Stein,  D. Stuck,  K. S. Thanthiriwatte,  
 V. Vanovschi,  L. Vogt,  Tao Wang,  A. Warshel,  M. A. Watson,  
 C. F. Williams,  Q. Wu,  X. Xu,  Jun Yang,  W. Zhang,  Yan Zhao

   Please cite Q-Chem as follows:
  "Software for the frontiers of quantum chemistry:
   An overview of developments in the Q-Chem 5 package"
   J. Chem. Phys. 155, 084801 (2021)
   https://doi.org/10.1063/5.0055522 (open access)

 Q-Chem 5.4.2 for Intel X86 EM64T Linux

 Parts of Q-Chem use Armadillo 9.900.5 (Nocturnal Misbehaviour).
 http://arma.sourceforge.net/

 Q-Chem begins on Sat Jan  6 15:55:33 2024  

 Host: 
0

     Scratch files written to /scratch/qchem540536//
 Dec1321 |scratch|qcdevops|jenkins|workspace|build_RNUM 5684   
 Processing $rem in /home/kchung25/qchem/5.4.0/config/preferences:
 Processing $rem in /home/kchung25/.qchemrc:

 Q-Chem warning in module libgen/rem_setup.C, line 3079:

 Neither GIA nor STOLL is specified by user. Use STOLL as the default


 Checking the input file for inconsistencies... 	...done.

--------------------------------------------------------------
User input:
--------------------------------------------------------------
$molecule
-1 1
--
0 1
Na     0.000000     0.000000     0.000000
F      0.000000     1.939580     0.000000
--
-1 1
F      2.327496     0.000000     0.000000
$end

$rem
JOBTYPE          eda
EDA2             1
METHOD           wB97M-V
BASIS            def2-TZVPPD
SYMMETRY         false
MEM_TOTAL        50000
MEM_STATIC       10000
THRESH           14
SCF_CONVERGENCE  8
XC_GRID          000099000590
NL_GRID          1
EDA_CLS_DISP     true
FD_MAT_VEC_PROD  FALSE
$end
--------------------------------------------------------------
 ----------------------------------------------------------------
             Standard Nuclear Orientation (Angstroms)
    I     Atom           X                Y                Z
 ----------------------------------------------------------------
    1      Na     -0.2635463564    -0.9025678753    -0.0000000000
    2      F      -1.3458103694     0.7069895740     0.0000000000
    3      F       1.6679225828     0.3961489403    -0.0000000000
 ----------------------------------------------------------------
 Molecular Point Group                 Cs    NOp =  2
 Largest Abelian Subgroup              Cs    NOp =  2
 Nuclear Repulsion Energy =          63.66641972 hartrees
 There are       15 alpha and       15 beta electrons
 Requested basis set is def2-TZVPPD
 There are 41 shells and 115 basis functions

 Q-Chem warning in module libmdc/get_mega.C, line 171:

 Allowed MEM_STATIC has been capped at MEM_STATIC=8191.
 Reduce the value of MEM_STATIC to silence this warning.


 Total QAlloc Memory Limit  50000 MB
 Mega-Array Size      8007 MB
 MEM_STATIC part      8191 MB

                       Distance Matrix (Angstroms)
             Na(  1)   F (  2)
   F (  2)  1.939580
   F (  3)  2.327496  3.029721
 
 A cutoff of  1.0D-14 yielded    827 shell pairs
 There are      6627 function pairs (      8479 Cartesian)
 Smallest overlap matrix eigenvalue = 2.21E-03

 Scale SEOQF with 1.000000e-01/1.000000e-01/1.000000e-01

 Standard Electronic Orientation quadrupole field applied
 Nucleus-field energy     =     0.0000000026 hartrees

 -----------------------------------------------------------------------
  General SCF calculation program by
  Eric Jon Sundstrom, Paul Horn, Yuezhi Mao, Dmitri Zuev, Alec White,
  David Stuck, Shaama M.S., Shane Yost, Joonho Lee, David Small,
  Daniel Levine, Susi Lehtola, Hugh Burton, Evgeny Epifanovsky,
  Bang C. Huynh
 -----------------------------------------------------------------------
================================================================
                 ALMO-EDA with the EDA2 driver                  
================================================================
 The second-generation ALMO-EDA (for DFT):                      
 P. R. Horn, Y. Mao and M. Head-Gordon, PCCP, 18, 23067 (2016)  
 Y. Mao et al. Annu. Rev. Phys. Chem. 72, 641 (2021)            
 Decomposition of the frozen energy:                            
 P. R. Horn, Y. Mao and M. Head-Gordon, JCP, 144, 114107 (2016) 
 FERF model for polarization:                                   
 P. R. Horn and M. Head-Gordon, JCP, 143, 114111 (2015)         
================================================================
 Using eda2 option set 1
 Option set summary: Frozen orbital wavefunction, initial wavefunction decomposition, and nDQ polarization.
--------------------------------
Printing EDA Options
--------------------------------
eda_child_super_basis      0
fragmo_guess_mode          0
child_mp                   1
child_mp_orders            232
cls_elec                   1
cls_disp                   1
scfmi_mode                 1
scfmi_occs                 0
scfmi_virts                0
frz_relax                  0
frz_relax_method           0
dc_pen_start               0
dc_pen_conv                0
dc_pen_increment           0
dc_pen_steps               0
dc_pen_thresh_factor       0
dc_pen_pre_newton_thresh   0
frz_ortho_decomp           1
frz_ortho_decomp_conv      6
plot_mo_ortho_frz          0
frgm_method                2
scfmi_freeze_ss            0
separate_rehyb             0
plot_diff_den              0
eda_nocv                   0
eda_vct_relax              1
disp_free_x                0
disp_free_c                0
eda_bsse                   0
eda_pct_a                  0
eda_covp                   0
--------------------------------
Attempting to make child job directory: /scratch/qchem540536//Frg1/
Attempting to make child job directory: /scratch/qchem540536//Frg2/
Creating input file /scratch/qchem540536/Frg1.input
using default PutDataFrgm: nothing
calling putenv with: QCSCRATCH=/scratch/qchem540536/ 
Spawning Job For Fragment 0
Done Job For Fragment 0
calling putenv with: QCSCRATCH=/scratch 
calling putenv with: QCTHREADS=6 
Creating input file /scratch/qchem540536/Frg2.input
using default PutDataFrgm: nothing
calling putenv with: QCSCRATCH=/scratch/qchem540536/ 
Spawning Job For Fragment 1
Done Job For Fragment 1
calling putenv with: QCSCRATCH=/scratch 
calling putenv with: QCTHREADS=6 
Doing General SCFMI
 Exchange:     0.1500 Hartree-Fock + 1.0000 wB97M-V + LR-HF
 Correlation:  1.0000 wB97M-V
 Using Euler-Maclaurin-Lebedev (99,590) quadrature formula
 Nonlocal Correlation:  VV10 with C = 0.0100 and b = 6.00 and scale = 1.00000
 Grid used for NLC:  SG-1 standard quadrature
performing fock build before subrot guess so that all methods have access
Printing subrot_rss_gen Method Specification:
Occupied Subspace Method is 0
Virtual Subspace Method is 0
Energy of the unrelaxed supersystem initial determinant -362.089629763480
write pseudocanon occs and virts to disk
write pseudocanon orbital energies to disk
Tolerance of ortho_decomp_scf: 1.00e-06
GDM subspace size: 20
Beginning the Orthogonal Decomposition of the Initial Supersystem Wavefunction
    1    -361.9948476929      2.90e-01     ortho_decomp Preconditoned Steepest Descent
    2    -362.0041112526      3.46e-03     ortho_decomp BFGS Step
    3    -362.0041197620      1.73e-04     ortho_decomp BFGS Step
    4    -362.0041197681      3.61e-06     ortho_decomp BFGS Step
    5    -362.0041197681      5.71e-08     ortho_decomp 00000 Convergence criterion met
 Hartree-Fock
 Hartree-Fock
 Hartree-Fock
 Exchange:     0.1500 Hartree-Fock + 1.0000 wB97M-V + LR-HF
 Correlation:  1.0000 wB97M-V
 Using Euler-Maclaurin-Lebedev (99,590) quadrature formula
 Nonlocal Correlation:  VV10 with C = 0.0100 and b = 6.00 and scale = 1.00000
 Grid used for NLC:  SG-1 standard quadrature
 Long-range K will be added via erf
 Coulomb attenuation parameter = 0.3 bohr**(-1)
 Nonlocal correlation = 1.286786596553e-01
Doing General SCFMI
 Exchange:     0.1500 Hartree-Fock + 1.0000 wB97M-V + LR-HF
 Correlation:  1.0000 wB97M-V
 Using Euler-Maclaurin-Lebedev (99,590) quadrature formula
 Nonlocal Correlation:  VV10 with C = 0.0100 and b = 6.00 and scale = 1.00000
 Grid used for NLC:  SG-1 standard quadrature
performing fock build at end of subrot_r(subrot) constructor so that all methods have access
<S^2> of initial wavefunction before polarization iterations 0.0000000000
Beginning iterations for the determination of the polarized wavefunction
Energy prior to optimization (guess energy) = -362.089629763480
Begin Timing: Total SCF Calculation
begin iterations for algorithm: DIIS         
the SCF tolerance is set to 1.00e-08
    1    -362.0896297635      1.22e-03     00000 
    2    -362.0982520722      4.16e-04     00000 
    3    -362.0989531135      2.54e-04     00000 
    4    -362.0991660342      1.13e-04     00000 
    5    -362.0992243422      2.06e-05     00000 
    6    -362.0992319946      9.13e-06     00000 
    7    -362.0992327526      4.99e-06     00000 
    8    -362.0992329290      1.79e-06     00000 
    9    -362.0992329573      3.97e-07     00000 
   10    -362.0992329611      9.37e-08     00000 
   11    -362.0992329613      2.07e-08     00000 
   12    -362.0992329613      4.20e-09     00000 Convergence criterion met
write pseudocanon occs and virts to disk
write pseudocanon orbital energies to disk
Timing for Total SCF: 8.00s (wall), 44.92s (cpu)
<S^2> of polarized wavefunction after polarization iterations 0.0000000000
relaxing scfmi constraint to allow all rotations in the entire AO span
Doing General SCFMI
 Exchange:     0.1500 Hartree-Fock + 1.0000 wB97M-V + LR-HF
 Correlation:  1.0000 wB97M-V
 Using Euler-Maclaurin-Lebedev (99,590) quadrature formula
 Nonlocal Correlation:  VV10 with C = 0.0100 and b = 6.00 and scale = 1.00000
 Grid used for NLC:  SG-1 standard quadrature
performing fock build at end of subrot_r(subrot) constructor so that all methods have access
<S^2> of polarized wavefunction before ct-allowed iterations 0.0000000000
Beginning iterations for the determination of the CT-Allowed wavefunction
Energy prior to optimization (guess energy) = -362.099232961307
Begin Timing: Total SCF Calculation
begin iterations for algorithm: DIIS         
the SCF tolerance is set to 1.00e-08
    1    -362.0992329613      4.28e-04     00000 
    2    -362.1007545032      7.26e-05     00000 
    3    -362.1008269896      6.05e-05     00000 
    4    -362.1008433063      1.65e-05     00000 
    5    -362.1008467776      2.29e-06     00000 
    6    -362.1008470636      1.30e-06     00000 
    7    -362.1008470906      5.95e-07     00000 
    8    -362.1008470966      2.26e-07     00000 
    9    -362.1008470978      4.58e-08     00000 
   10    -362.1008470979      1.06e-08     00000 
   11    -362.1008470979      2.58e-09     00000 Convergence criterion met
write pseudocanon occs and virts to disk
write pseudocanon orbital energies to disk
Timing for Total SCF: 7.00s (wall), 39.18s (cpu)
<S^2> of ct_allowed wavefunction after ct-allowed iterations 0.0000000000

================================
        Results of EDA2         
================================
Basic EDA Quantities
--------------------
Fragment Energies (Ha):
1 -262.1837923248
2  -99.8700285040
--------------------
  E_prp (kJ/mol) = 0.0000
  E_frz (kJ/mol) = -94.0175
  E_pol (kJ/mol) = -25.2135
  E_vct (kJ/mol) = -4.2380
  E_int (kJ/mol) = -123.4689
--------------------


Decomposition of frozen interaction energy
--------------------
  --------------------
  Orthogonal Frozen Decomposition:
  --------------------
     E_elec   (ELEC)   (kJ/mol) = -190.7619
     E_pauli  (PAULI)  (kJ/mol) = 107.0476
     E_disp   (DISP)   (kJ/mol) = -10.3032
  --------------------
  Classical Frozen Decomposition:
  --------------------
     E_cls_elec  (CLS ELEC)  (kJ/mol) = -138.7868
     E_mod_pauli (MOD PAULI) (kJ/mol) = 49.9126 (FRZ - CLS ELEC - CLS DISP)
     E_cls_disp  (CLS DISP)  (kJ/mol) = -5.1433
  --------------------
--------------------

Simplified EDA Summary (kJ/mol)
--------------------
 PREPARATION      0.0000
 FROZEN           -94.0175 (ELEC + PAULI + DISP)
[ELEC + PAULI = -88.8741, DISP = -5.1433]
 POLARIZATION    -25.2135
 CHARGE TRANSFER -4.2380
 TOTAL           -123.4689     (PRP + FRZ + POL + CT)
--------------------
 
 --------------------------------------------------------------
             Orbital Energies (a.u.) and Symmetries
 --------------------------------------------------------------
 
 Alpha MOs, Restricted
 -- Occupied --                  
-38.499 -24.527 -24.510  -2.145  -1.050  -1.049  -1.046  -0.909
  1 A'    2 A'    3 A'    4 A'    5 A'    1 A"    6 A'    7 A'                 
 -0.887  -0.185  -0.177  -0.176  -0.156  -0.150  -0.144
  8 A'    9 A'   10 A'    2 A"   11 A'    3 A"   12 A'                         
 -- Virtual --                   
  0.092   0.104   0.105   0.124   0.182   0.187   0.196   0.241
 13 A'    4 A"   14 A'   15 A'    5 A"   16 A'   17 A'   18 A'                 
  0.295   0.323   0.341   0.349   0.350   0.378   0.383   0.400
 19 A'   20 A'    6 A"   21 A'    7 A"    8 A"   22 A'   23 A'                 
  0.408   0.469   0.472   0.506   0.540   0.548   0.586   0.651
 24 A'    9 A"   25 A'   10 A"   26 A'   27 A'   28 A'   29 A'                 
  0.773   0.812   0.833   0.855   0.894   0.929   0.937   0.948
 11 A"   30 A'   31 A'   32 A'   12 A"   13 A"   33 A'   14 A"                 
  0.955   1.001   1.081   1.084   1.102   1.140   1.204   1.285
 34 A'   35 A'   15 A"   36 A'   16 A"   37 A'   38 A'   39 A'                 
  1.329   1.366   1.402   1.408   1.430   1.437   1.474   1.556
 40 A'   17 A"   18 A"   41 A'   42 A'   43 A'   44 A'   19 A"                 
  1.668   1.903   2.667   2.696   2.709   2.718   2.740   2.755
 45 A'   46 A'   20 A"   47 A'   48 A'   21 A"   22 A"   23 A"                 
  2.761   2.778   2.793   2.869   3.775   3.781   3.791   3.814
 49 A'   50 A'   51 A'   52 A'   53 A'   24 A"   25 A"   54 A'                 
  3.881   4.095   4.440   4.482   4.548   6.030   6.045   6.053
 55 A'   56 A'   57 A'   58 A'   59 A'   26 A"   27 A"   60 A'                 
  6.059   6.158   7.350   7.351   7.356   7.357   7.365   7.366
 61 A'   62 A'   28 A"   63 A'   29 A"   64 A'   30 A"   65 A'                 
  7.375   7.376   7.378   7.380   7.380   7.381   7.382   7.423
 31 A"   66 A'   32 A"   67 A'   68 A'   33 A"   69 A'   70 A'                 
  8.925   8.943   8.956   8.961   8.979   8.989   8.996   9.012
 34 A"   71 A'   72 A'   35 A"   36 A"   37 A"   73 A'   74 A'                 
  9.017   9.054  57.752  57.770
 75 A'   76 A'   77 A'   78 A'                                                 
 
 Beta MOs, Restricted
 -- Occupied --                  
-38.499 -24.527 -24.510  -2.145  -1.050  -1.049  -1.046  -0.909
  1 A'    2 A'    3 A'    4 A'    5 A'    1 A"    6 A'    7 A'                 
 -0.887  -0.185  -0.177  -0.176  -0.156  -0.150  -0.144
  8 A'    9 A'   10 A'    2 A"   11 A'    3 A"   12 A'                         
 -- Virtual --                   
  0.092   0.104   0.105   0.124   0.182   0.187   0.196   0.241
 13 A'    4 A"   14 A'   15 A'    5 A"   16 A'   17 A'   18 A'                 
  0.295   0.323   0.341   0.349   0.350   0.378   0.383   0.400
 19 A'   20 A'    6 A"   21 A'    7 A"    8 A"   22 A'   23 A'                 
  0.408   0.469   0.472   0.506   0.540   0.548   0.586   0.651
 24 A'    9 A"   25 A'   10 A"   26 A'   27 A'   28 A'   29 A'                 
  0.773   0.812   0.833   0.855   0.894   0.929   0.937   0.948
 11 A"   30 A'   31 A'   32 A'   12 A"   13 A"   33 A'   14 A"                 
  0.955   1.001   1.081   1.084   1.102   1.140   1.204   1.285
 34 A'   35 A'   15 A"   36 A'   16 A"   37 A'   38 A'   39 A'                 
  1.329   1.366   1.402   1.408   1.430   1.437   1.474   1.556
 40 A'   17 A"   18 A"   41 A'   42 A'   43 A'   44 A'   19 A"                 
  1.668   1.903   2.667   2.696   2.709   2.718   2.740   2.755
 45 A'   46 A'   20 A"   47 A'   48 A'   21 A"   22 A"   23 A"                 
  2.761   2.778   2.793   2.869   3.775   3.781   3.791   3.814
 49 A'   50 A'   51 A'   52 A'   53 A'   24 A"   25 A"   54 A'                 
  3.881   4.095   4.440   4.482   4.548   6.030   6.045   6.053
 55 A'   56 A'   57 A'   58 A'   59 A'   26 A"   27 A"   60 A'                 
  6.059   6.158   7.350   7.351   7.356   7.357   7.365   7.366
 61 A'   62 A'   28 A"   63 A'   29 A"   64 A'   30 A"   65 A'                 
  7.375   7.376   7.378   7.380   7.380   7.381   7.382   7.423
 31 A"   66 A'   32 A"   67 A'   68 A'   33 A"   69 A'   70 A'                 
  8.925   8.943   8.956   8.961   8.979   8.989   8.996   9.012
 34 A"   71 A'   72 A'   35 A"   36 A"   37 A"   73 A'   74 A'                 
  9.017   9.054  57.752  57.770
 75 A'   76 A'   77 A'   78 A'                                                 
 --------------------------------------------------------------
 
          Ground-State Mulliken Net Atomic Charges

     Atom                 Charge (a.u.)
  ----------------------------------------
      1 Na                    0.896730
      2 F                    -0.958124
      3 F                    -0.938606
  ----------------------------------------
  Sum of atomic charges =    -1.000000

 -----------------------------------------------------------------
                    Cartesian Multipole Moments
 -----------------------------------------------------------------
    Charge (ESU x 10^10)
                -4.8032
    Dipole Moment (Debye)
         X      -2.4647      Y      -7.8570      Z       0.0000
       Tot       8.2345
    Quadrupole Moments (Debye-Ang)
        XX     -39.7160     XY       2.6416     YY     -16.6566
        XZ       0.0000     YZ       0.0000     ZZ     -18.3376
    Octopole Moments (Debye-Ang^2)
       XXX     -13.8871    XXY     -13.2846    XYY      -1.2115
       YYY     -17.5328    XXZ       0.0000    XYZ       0.0000
       YYZ       0.0000    XZZ      -1.7077    YZZ      -4.5092
       ZZZ       0.0000
    Hexadecapole Moments (Debye-Ang^3)
      XXXX    -284.0986   XXXY       5.4232   XXYY     -53.2268
      XYYY       6.5766   YYYY     -60.2860   XXXZ       0.0000
      XXYZ      -0.0000   XYYZ       0.0000   YYYZ      -0.0000
      XXZZ     -42.6772   XYZZ       1.5264   YYZZ     -14.0469
      XZZZ       0.0000   YZZZ      -0.0000   ZZZZ     -21.9402
 -----------------------------------------------------------------
 Total job time:  43.11s(wall), 151.17s(cpu) 
 Sat Jan  6 15:56:16 2024

        *************************************************************
        *                                                           *
        *  Thank you very much for using Q-Chem.  Have a nice day.  *
        *                                                           *
        *************************************************************


