
Running Job 1 of 1 084_NaCl-Na_1.20_almo.in
qchem 084_NaCl-Na_1.20_almo.in_541028.0 /scratch/qchem541028/ 6
/home/kchung25/qchem/5.4.0/exe/qcprog.exe_s 084_NaCl-Na_1.20_almo.in_541028.0 /scratch/qchem541028/
                  Welcome to Q-Chem
     A Quantum Leap Into The Future Of Chemistry


 Q-Chem 5.4, Q-Chem, Inc., Pleasanton, CA (2021)

 E. Epifanovsky,  A. T. B. Gilbert,  Xintian Feng,  Joonho Lee,  Yuezhi Mao,  
 N. Mardirossian,  P. Pokhilko,  A. White,  M. Wormit,  M. P. Coons,  
 A. L. Dempwolff,  Zhengting Gan,  D. Hait,  P. R. Horn,  L. D. Jacobson,  
 I. Kaliman,  J. Kussmann,  A. W. Lange,  Ka Un Lao,  D. S. Levine,  Jie Liu,  
 S. C. McKenzie,  A. F. Morrison,  K. Nanda,  F. Plasser,  D. R. Rehn,  
 M. L. Vidal,  Zhi-Qiang You,  Ying Zhu,  B. Alam,  B. Albrecht,  
 A. Aldossary,  E. Alguire,  J. H. Andersen,  D. Barton,  K. Begam,  A. Behn,  
 Y. A. Bernard,  E. J. Berquist,  H. Burton,  A. Carreras,  K. Carter-Fenk,  
 Romit Chakraborty,  A. D. Chien,  K. D. Closser,  V. Cofer-Shabica,  
 S. Dasgupta,  Jia Deng,  M. de Wergifosse,  M. Diedenhofen,  Hainam Do,  
 S. Ehlert,  Po-Tung Fang,  S. Fatehi,  Qingguo Feng,  T. Friedhoff,  
 J. Gayvert,  Qinghui Ge,  G. Gidofalvi,  M. Goldey,  J. Gomes,  
 C. Gonzalez-Espinoza,  S. Gulania,  A. Gunina,  M. W. D. Hanson-Heine,  
 P. H. P. Harbach,  A. W. Hauser,  M. F. Herbst,  M. Hernandez Vera,  
 M. Hodecker,  Z. C. Holden,  S. Houck,  Xunkun Huang,  Kerwin Hui,  
 B. C. Huynh,  M. Ivanov,  Hyunjun Ji,  Hanjie Jiang,  B. Kaduk,  S. Kaehler,  
 K. Khistyaev,  Jaehoon Kim,  P. Klunzinger,  Z. Koczor-Benda,  
 Joong Hoon Koh,  D. Kosenkov,  L. Koulias,  T. Kowalczyk,  C. M. Krauter,  
 K. Kue,  A. Kunitsa,  T. Kus,  A. Landau,  K. V. Lawler,  D. Lefrancois,  
 S. Lehtola,  Rain Li,  Yi-Pei Li,  Jiashu Liang,  M. Liebenthal,  
 Hung-Hsuan Lin,  You-Sheng Lin,  Fenglai Liu,  Kuan-Yu Liu,  
 M. Loipersberger,  A. Luenser,  A. Manjanath,  P. Manohar,  E. Mansoor,  
 S. F. Manzer,  Shan-Ping Mao,  A. V. Marenich,  T. Markovich,  S. Mason,  
 S. A. Maurer,  P. F. McLaughlin,  M. F. S. J. Menger,  J.-M. Mewes,  
 S. A. Mewes,  P. Morgante,  J. W. Mullinax,  K. J. Oosterbaan,  G. Paran,  
 Alexander C. Paul,  Suranjan K. Paul,  F. Pavosevic,  Zheng Pei,  S. Prager,  
 E. I. Proynov,  E. Ramos,  B. Rana,  A. E. Rask,  A. Rettig,  R. M. Richard,  
 F. Rob,  E. Rossomme,  T. Scheele,  M. Scheurer,  M. Schneider,  
 N. Sergueev,  S. M. Sharada,  W. Skomorowski,  D. W. Small,  C. J. Stein,  
 Yu-Chuan Su,  E. J. Sundstrom,  Zhen Tao,  J. Thirman,  T. Tsuchimochi,  
 N. M. Tubman,  S. P. Veccham,  O. Vydrov,  J. Wenzel,  J. Witte,  A. Yamada,  
 Kun Yao,  S. Yeganeh,  S. R. Yost,  A. Zech,  Igor Ying Zhang,  Xing Zhang,  
 Yu Zhang,  D. Zuev,  A. Aspuru-Guzik,  A. T. Bell,  N. A. Besley,  
 K. B. Bravaya,  B. R. Brooks,  D. Casanova,  Jeng-Da Chai,  S. Coriani,  
 C. J. Cramer,  A. E. DePrince, III,  R. A. DiStasio Jr.,  A. Dreuw,  
 B. D. Dunietz,  T. R. Furlani,  W. A. Goddard III,  S. Grimme,  
 S. Hammes-Schiffer,  T. Head-Gordon,  W. J. Hehre,  Chao-Ping Hsu,  
 T.-C. Jagau,  Yousung Jung,  A. Klamt,  Jing Kong,  D. S. Lambrecht,  
 WanZhen Liang,  N. J. Mayhall,  C. W. McCurdy,  J. B. Neaton,  T. Neudecker,  
 C. Ochsenfeld,  J. A. Parkhill,  R. Peverati,  V. A. Rassolov,  Yihan Shao,  
 L. V. Slipchenko,  R. P. Steele,  J. E. Subotnik,  A. J. W. Thom,  
 A. Tkatchenko,  D. G. Truhlar,  T. Van Voorhis,  T. A. Wesolowski,  
 K. B. Whaley,  H. L. Woodcock III,  P. M. Zimmerman,  S. Faraji,  
 P. M. W. Gill,  M. Head-Gordon,  J. M. Herbert,  A. I. Krylov

 Additional authors since Version 5.4.0: 
 Chandrima Chakravarty,  L. Cunha,  R. Kang,  Yongbin Kim,  S. Kotaru,  
 Shaozhi Li,  Xiangyuan Li,  F. Matz,  A. Molle,  V. Parravicini,  
 Haisheng Ren,  Hengyuan Shen,  Yingli Su,  Hung-Yi Tsai,  C. Utku,  
 Fang Wang,  Jeff Yang,  F. Zeller

 Contributors to earlier versions of Q-Chem not listed above: 
 R. D. Adamson,  B. Austin,  R. Baer,  J. Baker,  G. J. O. Beran,  
 K. Brandhorst,  S. T. Brown,  E. F. C. Byrd,  Arup K. Chakraborty,  
 G. K. L. Chan,  Chun-Min Chang,  Yunqing Chen,  C.-L. Cheng,  
 Siu Hung Chien,  D. M. Chipman,  D. L. Crittenden,  H. Dachsel,  
 R. J. Doerksen,  A. D. Dutoi,  R. G. Edgar,  J. Fosso-Tande,  
 L. Fusti-Molnar,  D. Ghosh,  A. Ghysels,  A. Golubeva-Zadorozhnaya,  
 J. Gonthier,  M. S. Gordon,  S. R. Gwaltney,  G. Hawkins,  J. E. Herr,  
 A. Heyden,  S. Hirata,  E. G. Hohenstein,  G. Kedziora,  F. J. Keil,  
 C. Kelley,  Jihan Kim,  R. A. King,  R. Z. Khaliullin,  P. P. Korambath,  
 W. Kurlancheek,  A. Laurent,  A. M. Lee,  M. S. Lee,  S. V. Levchenko,  
 Ching Yeh Lin,  D. Liotard,  E. Livshits,  R. C. Lochan,  I. Lotan,  
 L. A. Martinez-Martinez,  P. E. Maslen,  N. Nair,  D. P. O'Neill,  
 D. Neuhauser,  E. Neuscamman,  C. M. Oana,  R. Olivares-Amaya,  R. Olson,  
 T. M. Perrine,  B. Peters,  P. A. Pieniazek,  A. Prociuk,  Y. M. Rhee,  
 J. Ritchie,  M. A. Rohrdanz,  E. Rosta,  N. J. Russ,  H. F. Schaefer III,  
 M. W. Schmidt,  N. E. Schultz,  S. Sharma,  N. Shenvi,  C. D. Sherrill,  
 A. C. Simmonett,  A. Sodt,  T. Stein,  D. Stuck,  K. S. Thanthiriwatte,  
 V. Vanovschi,  L. Vogt,  Tao Wang,  A. Warshel,  M. A. Watson,  
 C. F. Williams,  Q. Wu,  X. Xu,  Jun Yang,  W. Zhang,  Yan Zhao

   Please cite Q-Chem as follows:
  "Software for the frontiers of quantum chemistry:
   An overview of developments in the Q-Chem 5 package"
   J. Chem. Phys. 155, 084801 (2021)
   https://doi.org/10.1063/5.0055522 (open access)

 Q-Chem 5.4.2 for Intel X86 EM64T Linux

 Parts of Q-Chem use Armadillo 9.900.5 (Nocturnal Misbehaviour).
 http://arma.sourceforge.net/

 Q-Chem begins on Sat Jan  6 16:00:12 2024  

 Host: 
0

     Scratch files written to /scratch/qchem541028//
 Dec1321 |scratch|qcdevops|jenkins|workspace|build_RNUM 5684   
 Processing $rem in /home/kchung25/qchem/5.4.0/config/preferences:
 Processing $rem in /home/kchung25/.qchemrc:

 Q-Chem warning in module libgen/rem_setup.C, line 3079:

 Neither GIA nor STOLL is specified by user. Use STOLL as the default


 Checking the input file for inconsistencies... 	...done.

--------------------------------------------------------------
User input:
--------------------------------------------------------------
$molecule
1 1
--
0 1
Cl     0.000000     0.000000     0.000000
Na     0.000000     2.370103     0.000000
--
1 1
Na     2.844124     0.000000     0.000000
$end

$rem
JOBTYPE          eda
EDA2             1
METHOD           wB97M-V
BASIS            def2-TZVPPD
SYMMETRY         false
MEM_TOTAL        50000
MEM_STATIC       10000
THRESH           14
SCF_CONVERGENCE  8
XC_GRID          000099000590
NL_GRID          1
EDA_CLS_DISP     true
FD_MAT_VEC_PROD  FALSE
$end
--------------------------------------------------------------
 ----------------------------------------------------------------
             Standard Nuclear Orientation (Angstroms)
    I     Atom           X                Y                Z
 ----------------------------------------------------------------
    1      Cl     -0.3175262613    -0.9947681367     0.0000000000
    2      Na     -1.5906866741     1.0043443649    -0.0000000000
    3      Na      2.0814090780     0.5330245736     0.0000000000
 ----------------------------------------------------------------
 Molecular Point Group                 Cs    NOp =  2
 Largest Abelian Subgroup              Cs    NOp =  2
 Nuclear Repulsion Energy =          93.84016749 hartrees
 There are       19 alpha and       19 beta electrons
 Requested basis set is def2-TZVPPD
 There are 43 shells and 121 basis functions

 Q-Chem warning in module libmdc/get_mega.C, line 171:

 Allowed MEM_STATIC has been capped at MEM_STATIC=8191.
 Reduce the value of MEM_STATIC to silence this warning.


 Total QAlloc Memory Limit  50000 MB
 Mega-Array Size      8007 MB
 MEM_STATIC part      8191 MB

                       Distance Matrix (Angstroms)
             Cl(  1)   Na(  2)
   Na(  2)  2.370103
   Na(  3)  2.844124  3.702220
 
 A cutoff of  1.0D-14 yielded    903 shell pairs
 There are      7321 function pairs (      9011 Cartesian)
 Smallest overlap matrix eigenvalue = 1.71E-03

 Scale SEOQF with 1.000000e-01/1.000000e-01/1.000000e-01

 Standard Electronic Orientation quadrupole field applied
 Nucleus-field energy     =     0.0000000050 hartrees

 -----------------------------------------------------------------------
  General SCF calculation program by
  Eric Jon Sundstrom, Paul Horn, Yuezhi Mao, Dmitri Zuev, Alec White,
  David Stuck, Shaama M.S., Shane Yost, Joonho Lee, David Small,
  Daniel Levine, Susi Lehtola, Hugh Burton, Evgeny Epifanovsky,
  Bang C. Huynh
 -----------------------------------------------------------------------
================================================================
                 ALMO-EDA with the EDA2 driver                  
================================================================
 The second-generation ALMO-EDA (for DFT):                      
 P. R. Horn, Y. Mao and M. Head-Gordon, PCCP, 18, 23067 (2016)  
 Y. Mao et al. Annu. Rev. Phys. Chem. 72, 641 (2021)            
 Decomposition of the frozen energy:                            
 P. R. Horn, Y. Mao and M. Head-Gordon, JCP, 144, 114107 (2016) 
 FERF model for polarization:                                   
 P. R. Horn and M. Head-Gordon, JCP, 143, 114111 (2015)         
================================================================
 Using eda2 option set 1
 Option set summary: Frozen orbital wavefunction, initial wavefunction decomposition, and nDQ polarization.
--------------------------------
Printing EDA Options
--------------------------------
eda_child_super_basis      0
fragmo_guess_mode          0
child_mp                   1
child_mp_orders            232
cls_elec                   1
cls_disp                   1
scfmi_mode                 1
scfmi_occs                 0
scfmi_virts                0
frz_relax                  0
frz_relax_method           0
dc_pen_start               0
dc_pen_conv                0
dc_pen_increment           0
dc_pen_steps               0
dc_pen_thresh_factor       0
dc_pen_pre_newton_thresh   0
frz_ortho_decomp           1
frz_ortho_decomp_conv      6
plot_mo_ortho_frz          0
frgm_method                2
scfmi_freeze_ss            0
separate_rehyb             0
plot_diff_den              0
eda_nocv                   0
eda_vct_relax              1
disp_free_x                0
disp_free_c                0
eda_bsse                   0
eda_pct_a                  0
eda_covp                   0
--------------------------------
Attempting to make child job directory: /scratch/qchem541028//Frg1/
Attempting to make child job directory: /scratch/qchem541028//Frg2/
Creating input file /scratch/qchem541028/Frg1.input
using default PutDataFrgm: nothing
calling putenv with: QCSCRATCH=/scratch/qchem541028/ 
Spawning Job For Fragment 0
Done Job For Fragment 0
calling putenv with: QCSCRATCH=/scratch 
calling putenv with: QCTHREADS=6 
Creating input file /scratch/qchem541028/Frg2.input
using default PutDataFrgm: nothing
calling putenv with: QCSCRATCH=/scratch/qchem541028/ 
Spawning Job For Fragment 1
Done Job For Fragment 1
calling putenv with: QCSCRATCH=/scratch 
calling putenv with: QCTHREADS=6 
Doing General SCFMI
 Exchange:     0.1500 Hartree-Fock + 1.0000 wB97M-V + LR-HF
 Correlation:  1.0000 wB97M-V
 Using Euler-Maclaurin-Lebedev (99,590) quadrature formula
 Nonlocal Correlation:  VV10 with C = 0.0100 and b = 6.00 and scale = 1.00000
 Grid used for NLC:  SG-1 standard quadrature
performing fock build before subrot guess so that all methods have access
Printing subrot_rss_gen Method Specification:
Occupied Subspace Method is 0
Virtual Subspace Method is 0
Energy of the unrelaxed supersystem initial determinant -784.642589629783
write pseudocanon occs and virts to disk
write pseudocanon orbital energies to disk
Tolerance of ortho_decomp_scf: 1.00e-06
GDM subspace size: 20
Beginning the Orthogonal Decomposition of the Initial Supersystem Wavefunction
    1    -784.5919899852      1.77e-01     ortho_decomp Preconditoned Steepest Descent
    2    -784.5968024154      2.01e-03     ortho_decomp BFGS Step
    3    -784.5968058190      8.14e-05     ortho_decomp BFGS Step
    4    -784.5968058208      1.63e-06     ortho_decomp BFGS Step
    5    -784.5968058208      1.85e-08     ortho_decomp 00000 Convergence criterion met
 Hartree-Fock
 Hartree-Fock
 Hartree-Fock
 Exchange:     0.1500 Hartree-Fock + 1.0000 wB97M-V + LR-HF
 Correlation:  1.0000 wB97M-V
 Using Euler-Maclaurin-Lebedev (99,590) quadrature formula
 Nonlocal Correlation:  VV10 with C = 0.0100 and b = 6.00 and scale = 1.00000
 Grid used for NLC:  SG-1 standard quadrature
 Long-range K will be added via erf
 Coulomb attenuation parameter = 0.3 bohr**(-1)
 Nonlocal correlation = 1.640161345119e-01
Doing General SCFMI
 Exchange:     0.1500 Hartree-Fock + 1.0000 wB97M-V + LR-HF
 Correlation:  1.0000 wB97M-V
 Using Euler-Maclaurin-Lebedev (99,590) quadrature formula
 Nonlocal Correlation:  VV10 with C = 0.0100 and b = 6.00 and scale = 1.00000
 Grid used for NLC:  SG-1 standard quadrature
performing fock build at end of subrot_r(subrot) constructor so that all methods have access
<S^2> of initial wavefunction before polarization iterations 0.0000000000
Beginning iterations for the determination of the polarized wavefunction
Energy prior to optimization (guess energy) = -784.642589629783
Begin Timing: Total SCF Calculation
begin iterations for algorithm: DIIS         
the SCF tolerance is set to 1.00e-08
    1    -784.6425896298      1.12e-03     00000 
    2    -784.6546713500      6.11e-04     00000 
    3    -784.6562946821      1.55e-04     00000 
    4    -784.6565705947      4.72e-05     00000 
    5    -784.6566150620      1.24e-05     00000 
    6    -784.6566182493      6.35e-06     00000 
    7    -784.6566186775      1.20e-06     00000 
    8    -784.6566187058      2.65e-07     00000 
    9    -784.6566187066      9.44e-08     00000 
   10    -784.6566187067      3.22e-08     00000 
   11    -784.6566187067      6.88e-09     00000 Convergence criterion met
write pseudocanon occs and virts to disk
write pseudocanon orbital energies to disk
Timing for Total SCF: 6.00s (wall), 34.72s (cpu)
<S^2> of polarized wavefunction after polarization iterations 0.0000000000
relaxing scfmi constraint to allow all rotations in the entire AO span
Doing General SCFMI
 Exchange:     0.1500 Hartree-Fock + 1.0000 wB97M-V + LR-HF
 Correlation:  1.0000 wB97M-V
 Using Euler-Maclaurin-Lebedev (99,590) quadrature formula
 Nonlocal Correlation:  VV10 with C = 0.0100 and b = 6.00 and scale = 1.00000
 Grid used for NLC:  SG-1 standard quadrature
performing fock build at end of subrot_r(subrot) constructor so that all methods have access
<S^2> of polarized wavefunction before ct-allowed iterations 0.0000000000
Beginning iterations for the determination of the CT-Allowed wavefunction
Energy prior to optimization (guess energy) = -784.656618706698
Begin Timing: Total SCF Calculation
begin iterations for algorithm: DIIS         
the SCF tolerance is set to 1.00e-08
    1    -784.6566187067      4.27e-04     00000 
    2    -784.6578255985      4.69e-05     00000 
    3    -784.6578720886      1.15e-05     00000 
    4    -784.6578743897      6.59e-06     00000 
    5    -784.6578747137      7.18e-07     00000 
    6    -784.6578747315      2.53e-07     00000 
    7    -784.6578747326      6.58e-08     00000 
    8    -784.6578747328      1.93e-08     00000 
    9    -784.6578747328      4.64e-09     00000 Convergence criterion met
write pseudocanon occs and virts to disk
write pseudocanon orbital energies to disk
Timing for Total SCF: 4.00s (wall), 27.88s (cpu)
<S^2> of ct_allowed wavefunction after ct-allowed iterations 0.0000000000

================================
        Results of EDA2         
================================
Basic EDA Quantities
--------------------
Fragment Energies (Ha):
1 -622.5397662350
2 -162.0687155487
--------------------
  E_prp (kJ/mol) = -0.0000
  E_frz (kJ/mol) = -89.5512
  E_pol (kJ/mol) = -36.8338
  E_vct (kJ/mol) = -3.2977
  E_int (kJ/mol) = -129.6827
--------------------


Decomposition of frozen interaction energy
--------------------
  --------------------
  Orthogonal Frozen Decomposition:
  --------------------
     E_elec   (ELEC)   (kJ/mol) = -109.5557
     E_pauli  (PAULI)  (kJ/mol) = 24.6956
     E_disp   (DISP)   (kJ/mol) = -4.6911
  --------------------
  Classical Frozen Decomposition:
  --------------------
     E_cls_elec  (CLS ELEC)  (kJ/mol) = -108.2827
     E_mod_pauli (MOD PAULI) (kJ/mol) = 23.4893 (FRZ - CLS ELEC - CLS DISP)
     E_cls_disp  (CLS DISP)  (kJ/mol) = -4.7577
  --------------------
--------------------

Simplified EDA Summary (kJ/mol)
--------------------
 PREPARATION      -0.0000
 FROZEN           -89.5512 (ELEC + PAULI + DISP)
[ELEC + PAULI = -84.7935, DISP = -4.7577]
 POLARIZATION    -36.8338
 CHARGE TRANSFER -3.2977
 TOTAL           -129.6827     (PRP + FRZ + POL + CT)
--------------------
 
 --------------------------------------------------------------
             Orbital Energies (a.u.) and Symmetries
 --------------------------------------------------------------
 
 Alpha MOs, Restricted
 -- Occupied --                  
-101.93  -38.94  -38.90   -9.71   -7.41   -7.41   -7.41   -2.58
  1 A'    2 A'    3 A'    4 A'    5 A'    6 A'    1 A"    7 A'                 
 -2.545  -1.484  -1.483  -1.481  -1.448  -1.447  -1.446  -0.992
  8 A'    9 A'    2 A"   10 A'   11 A'    3 A"   12 A'   13 A'                 
 -0.522  -0.519  -0.505
 14 A'   15 A'    4 A"                                                         
 -- Virtual --                   
 -0.182  -0.148  -0.110  -0.107  -0.080  -0.080  -0.071  -0.056
 16 A'   17 A'    5 A"   18 A'    6 A"   19 A'   20 A'   21 A'                 
 -0.054  -0.044  -0.038  -0.029  -0.028  -0.027  -0.019  -0.002
 22 A'    7 A"   23 A'   24 A'    8 A"   25 A'   26 A'   27 A'                 
  0.002   0.008   0.029   0.054   0.055   0.071   0.083   0.091
  9 A"   28 A'   29 A'   30 A'   10 A"   31 A'   11 A"   32 A'                 
  0.091   0.097   0.101   0.119   0.135   0.135   0.144   0.161
 12 A"   13 A"   33 A'   34 A'   14 A"   35 A'   36 A'   37 A'                 
  0.169   0.194   0.213   0.248   0.249   0.267   0.278   0.319
 15 A"   38 A'   39 A'   16 A"   40 A'   41 A'   17 A"   42 A'                 
  0.336   0.502   0.582   0.602   0.617   0.618   0.628   0.668
 43 A'   18 A"   44 A'   19 A"   45 A'   20 A"   46 A'   47 A'                 
  0.683   0.898   0.929   0.936   0.951   0.966   0.969   0.969
 48 A'   49 A'   21 A"   50 A'   22 A"   51 A'   23 A"   52 A'                 
  0.983   0.996   1.030   1.085   1.127   1.139   1.162   1.168
 24 A"   53 A'   54 A'   55 A'   25 A"   56 A'   26 A"   57 A'                 
  1.215   1.245   1.917   1.933   1.939   1.943   2.019   2.094
 58 A'   59 A'   27 A"   28 A"   60 A'   61 A'   62 A'   29 A"                 
  2.100   2.106   2.108   2.124   2.132   2.244   2.337   2.498
 63 A'   64 A'   30 A"   31 A"   65 A'   66 A'   32 A"   67 A'                 
  2.505   3.537   3.720   5.587   5.588   5.598   5.608   5.615
 68 A'   69 A'   70 A'   33 A"   71 A'   34 A"   72 A'   73 A'                 
  5.625   5.629   5.643   5.658   5.716   8.188   8.194   8.198
 35 A"   74 A'   36 A"   75 A'   76 A'   37 A"   38 A"   77 A'                 
  8.203   8.265  10.884  11.012  11.027  25.041
 78 A'   79 A'   39 A"   80 A'   81 A'   82 A'                                 
 
 Beta MOs, Restricted
 -- Occupied --                  
-101.93  -38.94  -38.90   -9.71   -7.41   -7.41   -7.41   -2.58
  1 A'    2 A'    3 A'    4 A'    5 A'    6 A'    1 A"    7 A'                 
 -2.545  -1.484  -1.483  -1.481  -1.448  -1.447  -1.446  -0.992
  8 A'    9 A'    2 A"   10 A'   11 A'    3 A"   12 A'   13 A'                 
 -0.522  -0.519  -0.505
 14 A'   15 A'    4 A"                                                         
 -- Virtual --                   
 -0.182  -0.148  -0.110  -0.107  -0.080  -0.080  -0.071  -0.056
 16 A'   17 A'    5 A"   18 A'    6 A"   19 A'   20 A'   21 A'                 
 -0.054  -0.044  -0.038  -0.029  -0.028  -0.027  -0.019  -0.002
 22 A'    7 A"   23 A'   24 A'    8 A"   25 A'   26 A'   27 A'                 
  0.002   0.008   0.029   0.054   0.055   0.071   0.083   0.091
  9 A"   28 A'   29 A'   30 A'   10 A"   31 A'   11 A"   32 A'                 
  0.091   0.097   0.101   0.119   0.135   0.135   0.144   0.161
 12 A"   13 A"   33 A'   34 A'   14 A"   35 A'   36 A'   37 A'                 
  0.169   0.194   0.213   0.248   0.249   0.267   0.278   0.319
 15 A"   38 A'   39 A'   16 A"   40 A'   41 A'   17 A"   42 A'                 
  0.336   0.502   0.582   0.602   0.617   0.618   0.628   0.668
 43 A'   18 A"   44 A'   19 A"   45 A'   20 A"   46 A'   47 A'                 
  0.683   0.898   0.929   0.936   0.951   0.966   0.969   0.969
 48 A'   49 A'   21 A"   50 A'   22 A"   51 A'   23 A"   52 A'                 
  0.983   0.996   1.030   1.085   1.127   1.139   1.162   1.168
 24 A"   53 A'   54 A'   55 A'   25 A"   56 A'   26 A"   57 A'                 
  1.215   1.245   1.917   1.933   1.939   1.943   2.019   2.094
 58 A'   59 A'   27 A"   28 A"   60 A'   61 A'   62 A'   29 A"                 
  2.100   2.106   2.108   2.124   2.132   2.244   2.337   2.498
 63 A'   64 A'   30 A"   31 A"   65 A'   66 A'   32 A"   67 A'                 
  2.505   3.537   3.720   5.587   5.588   5.598   5.608   5.615
 68 A'   69 A'   70 A'   33 A"   71 A'   34 A"   72 A'   73 A'                 
  5.625   5.629   5.643   5.658   5.716   8.188   8.194   8.198
 35 A"   74 A'   36 A"   75 A'   76 A'   37 A"   38 A"   77 A'                 
  8.203   8.265  10.884  11.012  11.027  25.041
 78 A'   79 A'   39 A"   80 A'   81 A'   82 A'                                 
 --------------------------------------------------------------
 
          Ground-State Mulliken Net Atomic Charges

     Atom                 Charge (a.u.)
  ----------------------------------------
      1 Cl                   -0.767911
      2 Na                    0.907498
      3 Na                    0.860413
  ----------------------------------------
  Sum of atomic charges =     1.000000

 -----------------------------------------------------------------
                    Cartesian Multipole Moments
 -----------------------------------------------------------------
    Charge (ESU x 10^10)
                 4.8032
    Dipole Moment (Debye)
         X       3.2412      Y       9.0729      Z      -0.0000
       Tot       9.6345
    Quadrupole Moments (Debye-Ang)
        XX       9.5659     XY      -2.5969     YY     -16.4063
        XZ       0.0000     YZ       0.0000     ZZ     -22.2810
    Octopole Moments (Debye-Ang^2)
       XXX      33.6027    XXY      32.4558    XYY      -1.7578
       YYY      32.3529    XXZ       0.0000    XYZ       0.0000
       YYZ      -0.0000    XZZ       3.2367    YZZ       9.4367
       ZZZ      -0.0000
    Hexadecapole Moments (Debye-Ang^3)
      XXXX     -41.4832   XXXY      -4.6751   XXYY     -30.2376
      XYYY     -13.4652   YYYY    -119.4644   XXXZ       0.0000
      XXYZ       0.0000   XYYZ       0.0000   YYYZ       0.0000
      XXZZ     -31.1518   XYZZ      -2.7805   YYZZ     -25.5749
      XZZZ       0.0000   YZZZ       0.0000   ZZZZ     -26.3221
 -----------------------------------------------------------------
 Total job time:  37.27s(wall), 122.43s(cpu) 
 Sat Jan  6 16:00:49 2024

        *************************************************************
        *                                                           *
        *  Thank you very much for using Q-Chem.  Have a nice day.  *
        *                                                           *
        *************************************************************


