
Running Job 1 of 1 086_NaBr-Na_1.10_almo.in
qchem 086_NaBr-Na_1.10_almo.in_541954.0 /scratch/qchem541954/ 6
/home/kchung25/qchem/5.4.0/exe/qcprog.exe_s 086_NaBr-Na_1.10_almo.in_541954.0 /scratch/qchem541954/
                  Welcome to Q-Chem
     A Quantum Leap Into The Future Of Chemistry


 Q-Chem 5.4, Q-Chem, Inc., Pleasanton, CA (2021)

 E. Epifanovsky,  A. T. B. Gilbert,  Xintian Feng,  Joonho Lee,  Yuezhi Mao,  
 N. Mardirossian,  P. Pokhilko,  A. White,  M. Wormit,  M. P. Coons,  
 A. L. Dempwolff,  Zhengting Gan,  D. Hait,  P. R. Horn,  L. D. Jacobson,  
 I. Kaliman,  J. Kussmann,  A. W. Lange,  Ka Un Lao,  D. S. Levine,  Jie Liu,  
 S. C. McKenzie,  A. F. Morrison,  K. Nanda,  F. Plasser,  D. R. Rehn,  
 M. L. Vidal,  Zhi-Qiang You,  Ying Zhu,  B. Alam,  B. Albrecht,  
 A. Aldossary,  E. Alguire,  J. H. Andersen,  D. Barton,  K. Begam,  A. Behn,  
 Y. A. Bernard,  E. J. Berquist,  H. Burton,  A. Carreras,  K. Carter-Fenk,  
 Romit Chakraborty,  A. D. Chien,  K. D. Closser,  V. Cofer-Shabica,  
 S. Dasgupta,  Jia Deng,  M. de Wergifosse,  M. Diedenhofen,  Hainam Do,  
 S. Ehlert,  Po-Tung Fang,  S. Fatehi,  Qingguo Feng,  T. Friedhoff,  
 J. Gayvert,  Qinghui Ge,  G. Gidofalvi,  M. Goldey,  J. Gomes,  
 C. Gonzalez-Espinoza,  S. Gulania,  A. Gunina,  M. W. D. Hanson-Heine,  
 P. H. P. Harbach,  A. W. Hauser,  M. F. Herbst,  M. Hernandez Vera,  
 M. Hodecker,  Z. C. Holden,  S. Houck,  Xunkun Huang,  Kerwin Hui,  
 B. C. Huynh,  M. Ivanov,  Hyunjun Ji,  Hanjie Jiang,  B. Kaduk,  S. Kaehler,  
 K. Khistyaev,  Jaehoon Kim,  P. Klunzinger,  Z. Koczor-Benda,  
 Joong Hoon Koh,  D. Kosenkov,  L. Koulias,  T. Kowalczyk,  C. M. Krauter,  
 K. Kue,  A. Kunitsa,  T. Kus,  A. Landau,  K. V. Lawler,  D. Lefrancois,  
 S. Lehtola,  Rain Li,  Yi-Pei Li,  Jiashu Liang,  M. Liebenthal,  
 Hung-Hsuan Lin,  You-Sheng Lin,  Fenglai Liu,  Kuan-Yu Liu,  
 M. Loipersberger,  A. Luenser,  A. Manjanath,  P. Manohar,  E. Mansoor,  
 S. F. Manzer,  Shan-Ping Mao,  A. V. Marenich,  T. Markovich,  S. Mason,  
 S. A. Maurer,  P. F. McLaughlin,  M. F. S. J. Menger,  J.-M. Mewes,  
 S. A. Mewes,  P. Morgante,  J. W. Mullinax,  K. J. Oosterbaan,  G. Paran,  
 Alexander C. Paul,  Suranjan K. Paul,  F. Pavosevic,  Zheng Pei,  S. Prager,  
 E. I. Proynov,  E. Ramos,  B. Rana,  A. E. Rask,  A. Rettig,  R. M. Richard,  
 F. Rob,  E. Rossomme,  T. Scheele,  M. Scheurer,  M. Schneider,  
 N. Sergueev,  S. M. Sharada,  W. Skomorowski,  D. W. Small,  C. J. Stein,  
 Yu-Chuan Su,  E. J. Sundstrom,  Zhen Tao,  J. Thirman,  T. Tsuchimochi,  
 N. M. Tubman,  S. P. Veccham,  O. Vydrov,  J. Wenzel,  J. Witte,  A. Yamada,  
 Kun Yao,  S. Yeganeh,  S. R. Yost,  A. Zech,  Igor Ying Zhang,  Xing Zhang,  
 Yu Zhang,  D. Zuev,  A. Aspuru-Guzik,  A. T. Bell,  N. A. Besley,  
 K. B. Bravaya,  B. R. Brooks,  D. Casanova,  Jeng-Da Chai,  S. Coriani,  
 C. J. Cramer,  A. E. DePrince, III,  R. A. DiStasio Jr.,  A. Dreuw,  
 B. D. Dunietz,  T. R. Furlani,  W. A. Goddard III,  S. Grimme,  
 S. Hammes-Schiffer,  T. Head-Gordon,  W. J. Hehre,  Chao-Ping Hsu,  
 T.-C. Jagau,  Yousung Jung,  A. Klamt,  Jing Kong,  D. S. Lambrecht,  
 WanZhen Liang,  N. J. Mayhall,  C. W. McCurdy,  J. B. Neaton,  T. Neudecker,  
 C. Ochsenfeld,  J. A. Parkhill,  R. Peverati,  V. A. Rassolov,  Yihan Shao,  
 L. V. Slipchenko,  R. P. Steele,  J. E. Subotnik,  A. J. W. Thom,  
 A. Tkatchenko,  D. G. Truhlar,  T. Van Voorhis,  T. A. Wesolowski,  
 K. B. Whaley,  H. L. Woodcock III,  P. M. Zimmerman,  S. Faraji,  
 P. M. W. Gill,  M. Head-Gordon,  J. M. Herbert,  A. I. Krylov

 Additional authors since Version 5.4.0: 
 Chandrima Chakravarty,  L. Cunha,  R. Kang,  Yongbin Kim,  S. Kotaru,  
 Shaozhi Li,  Xiangyuan Li,  F. Matz,  A. Molle,  V. Parravicini,  
 Haisheng Ren,  Hengyuan Shen,  Yingli Su,  Hung-Yi Tsai,  C. Utku,  
 Fang Wang,  Jeff Yang,  F. Zeller

 Contributors to earlier versions of Q-Chem not listed above: 
 R. D. Adamson,  B. Austin,  R. Baer,  J. Baker,  G. J. O. Beran,  
 K. Brandhorst,  S. T. Brown,  E. F. C. Byrd,  Arup K. Chakraborty,  
 G. K. L. Chan,  Chun-Min Chang,  Yunqing Chen,  C.-L. Cheng,  
 Siu Hung Chien,  D. M. Chipman,  D. L. Crittenden,  H. Dachsel,  
 R. J. Doerksen,  A. D. Dutoi,  R. G. Edgar,  J. Fosso-Tande,  
 L. Fusti-Molnar,  D. Ghosh,  A. Ghysels,  A. Golubeva-Zadorozhnaya,  
 J. Gonthier,  M. S. Gordon,  S. R. Gwaltney,  G. Hawkins,  J. E. Herr,  
 A. Heyden,  S. Hirata,  E. G. Hohenstein,  G. Kedziora,  F. J. Keil,  
 C. Kelley,  Jihan Kim,  R. A. King,  R. Z. Khaliullin,  P. P. Korambath,  
 W. Kurlancheek,  A. Laurent,  A. M. Lee,  M. S. Lee,  S. V. Levchenko,  
 Ching Yeh Lin,  D. Liotard,  E. Livshits,  R. C. Lochan,  I. Lotan,  
 L. A. Martinez-Martinez,  P. E. Maslen,  N. Nair,  D. P. O'Neill,  
 D. Neuhauser,  E. Neuscamman,  C. M. Oana,  R. Olivares-Amaya,  R. Olson,  
 T. M. Perrine,  B. Peters,  P. A. Pieniazek,  A. Prociuk,  Y. M. Rhee,  
 J. Ritchie,  M. A. Rohrdanz,  E. Rosta,  N. J. Russ,  H. F. Schaefer III,  
 M. W. Schmidt,  N. E. Schultz,  S. Sharma,  N. Shenvi,  C. D. Sherrill,  
 A. C. Simmonett,  A. Sodt,  T. Stein,  D. Stuck,  K. S. Thanthiriwatte,  
 V. Vanovschi,  L. Vogt,  Tao Wang,  A. Warshel,  M. A. Watson,  
 C. F. Williams,  Q. Wu,  X. Xu,  Jun Yang,  W. Zhang,  Yan Zhao

   Please cite Q-Chem as follows:
  "Software for the frontiers of quantum chemistry:
   An overview of developments in the Q-Chem 5 package"
   J. Chem. Phys. 155, 084801 (2021)
   https://doi.org/10.1063/5.0055522 (open access)

 Q-Chem 5.4.2 for Intel X86 EM64T Linux

 Parts of Q-Chem use Armadillo 9.900.5 (Nocturnal Misbehaviour).
 http://arma.sourceforge.net/

 Q-Chem begins on Sat Jan  6 16:09:22 2024  

 Host: 
0

     Scratch files written to /scratch/qchem541954//
 Dec1321 |scratch|qcdevops|jenkins|workspace|build_RNUM 5684   
 Processing $rem in /home/kchung25/qchem/5.4.0/config/preferences:
 Processing $rem in /home/kchung25/.qchemrc:

 Q-Chem warning in module libgen/rem_setup.C, line 3079:

 Neither GIA nor STOLL is specified by user. Use STOLL as the default


 Checking the input file for inconsistencies... 	...done.

--------------------------------------------------------------
User input:
--------------------------------------------------------------
$molecule
1 1
--
0 1
Br     0.000000     0.000000     0.000000
Na     0.000000     2.514159     0.000000
--
1 1
Na     2.765575     0.000000     0.000000
$end

$rem
JOBTYPE          eda
EDA2             1
METHOD           wB97M-V
BASIS            def2-TZVPPD
SYMMETRY         false
MEM_TOTAL        50000
MEM_STATIC       10000
THRESH           14
SCF_CONVERGENCE  8
XC_GRID          000099000590
NL_GRID          1
EDA_CLS_DISP     true
FD_MAT_VEC_PROD  FALSE
$end
--------------------------------------------------------------
 ----------------------------------------------------------------
             Standard Nuclear Orientation (Angstroms)
    I     Atom           X                Y                Z
 ----------------------------------------------------------------
    1      Br     -0.1696852157    -0.7010410355    -0.0000000000
    2      Na     -1.5799367938     1.3803493565    -0.0000000000
    3      Na      2.1198442983     0.8502357565     0.0000000000
 ----------------------------------------------------------------
 Molecular Point Group                 Cs    NOp =  2
 Largest Abelian Subgroup              Cs    NOp =  2
 Nuclear Repulsion Energy =         171.83351532 hartrees
 There are       28 alpha and       28 beta electrons
 Requested basis set is def2-TZVPPD
 There are 45 shells and 127 basis functions

 Q-Chem warning in module libmdc/get_mega.C, line 171:

 Allowed MEM_STATIC has been capped at MEM_STATIC=8191.
 Reduce the value of MEM_STATIC to silence this warning.


 Total QAlloc Memory Limit  50000 MB
 Mega-Array Size      8007 MB
 MEM_STATIC part      8191 MB

                       Distance Matrix (Angstroms)
             Br(  1)   Na(  2)
   Na(  2)  2.514159
   Na(  3)  2.765575  3.737566
 
 A cutoff of  1.0D-14 yielded    990 shell pairs
 There are      8090 function pairs (     10006 Cartesian)
 Smallest overlap matrix eigenvalue = 1.32E-03

 Scale SEOQF with 1.000000e-01/1.000000e-01/1.000000e-01

 Standard Electronic Orientation quadrupole field applied
 Nucleus-field energy     =     0.0000000061 hartrees

 -----------------------------------------------------------------------
  General SCF calculation program by
  Eric Jon Sundstrom, Paul Horn, Yuezhi Mao, Dmitri Zuev, Alec White,
  David Stuck, Shaama M.S., Shane Yost, Joonho Lee, David Small,
  Daniel Levine, Susi Lehtola, Hugh Burton, Evgeny Epifanovsky,
  Bang C. Huynh
 -----------------------------------------------------------------------
================================================================
                 ALMO-EDA with the EDA2 driver                  
================================================================
 The second-generation ALMO-EDA (for DFT):                      
 P. R. Horn, Y. Mao and M. Head-Gordon, PCCP, 18, 23067 (2016)  
 Y. Mao et al. Annu. Rev. Phys. Chem. 72, 641 (2021)            
 Decomposition of the frozen energy:                            
 P. R. Horn, Y. Mao and M. Head-Gordon, JCP, 144, 114107 (2016) 
 FERF model for polarization:                                   
 P. R. Horn and M. Head-Gordon, JCP, 143, 114111 (2015)         
================================================================
 Using eda2 option set 1
 Option set summary: Frozen orbital wavefunction, initial wavefunction decomposition, and nDQ polarization.
--------------------------------
Printing EDA Options
--------------------------------
eda_child_super_basis      0
fragmo_guess_mode          0
child_mp                   1
child_mp_orders            232
cls_elec                   1
cls_disp                   1
scfmi_mode                 1
scfmi_occs                 0
scfmi_virts                0
frz_relax                  0
frz_relax_method           0
dc_pen_start               0
dc_pen_conv                0
dc_pen_increment           0
dc_pen_steps               0
dc_pen_thresh_factor       0
dc_pen_pre_newton_thresh   0
frz_ortho_decomp           1
frz_ortho_decomp_conv      6
plot_mo_ortho_frz          0
frgm_method                2
scfmi_freeze_ss            0
separate_rehyb             0
plot_diff_den              0
eda_nocv                   0
eda_vct_relax              1
disp_free_x                0
disp_free_c                0
eda_bsse                   0
eda_pct_a                  0
eda_covp                   0
--------------------------------
Attempting to make child job directory: /scratch/qchem541954//Frg1/
Attempting to make child job directory: /scratch/qchem541954//Frg2/
Creating input file /scratch/qchem541954/Frg1.input
using default PutDataFrgm: nothing
calling putenv with: QCSCRATCH=/scratch/qchem541954/ 
Spawning Job For Fragment 0
Done Job For Fragment 0
calling putenv with: QCSCRATCH=/scratch 
calling putenv with: QCTHREADS=6 
Creating input file /scratch/qchem541954/Frg2.input
using default PutDataFrgm: nothing
calling putenv with: QCSCRATCH=/scratch/qchem541954/ 
Spawning Job For Fragment 1
Done Job For Fragment 1
calling putenv with: QCSCRATCH=/scratch 
calling putenv with: QCTHREADS=6 
Doing General SCFMI
 Exchange:     0.1500 Hartree-Fock + 1.0000 wB97M-V + LR-HF
 Correlation:  1.0000 wB97M-V
 Using Euler-Maclaurin-Lebedev (99,590) quadrature formula
 Nonlocal Correlation:  VV10 with C = 0.0100 and b = 6.00 and scale = 1.00000
 Grid used for NLC:  SG-1 standard quadrature
performing fock build before subrot guess so that all methods have access
Printing subrot_rss_gen Method Specification:
Occupied Subspace Method is 0
Virtual Subspace Method is 0
Energy of the unrelaxed supersystem initial determinant -2898.468180503590
write pseudocanon occs and virts to disk
write pseudocanon orbital energies to disk
Tolerance of ortho_decomp_scf: 1.00e-06
GDM subspace size: 20
Beginning the Orthogonal Decomposition of the Initial Supersystem Wavefunction
    1   -2898.4041548365      2.68e-01     ortho_decomp Preconditoned Steepest Descent
    2   -2898.4147069904      2.23e-03     ortho_decomp BFGS Step
    3   -2898.4147141228      1.24e-04     ortho_decomp BFGS Step
    4   -2898.4147141280      2.27e-06     ortho_decomp BFGS Step
    5   -2898.4147141280      2.62e-08     ortho_decomp 00000 Convergence criterion met
 Hartree-Fock
 Hartree-Fock
 Hartree-Fock
 Exchange:     0.1500 Hartree-Fock + 1.0000 wB97M-V + LR-HF
 Correlation:  1.0000 wB97M-V
 Using Euler-Maclaurin-Lebedev (99,590) quadrature formula
 Nonlocal Correlation:  VV10 with C = 0.0100 and b = 6.00 and scale = 1.00000
 Grid used for NLC:  SG-1 standard quadrature
 Long-range K will be added via erf
 Coulomb attenuation parameter = 0.3 bohr**(-1)
 Nonlocal correlation = 2.391473064973e-01
Doing General SCFMI
 Exchange:     0.1500 Hartree-Fock + 1.0000 wB97M-V + LR-HF
 Correlation:  1.0000 wB97M-V
 Using Euler-Maclaurin-Lebedev (99,590) quadrature formula
 Nonlocal Correlation:  VV10 with C = 0.0100 and b = 6.00 and scale = 1.00000
 Grid used for NLC:  SG-1 standard quadrature
performing fock build at end of subrot_r(subrot) constructor so that all methods have access
<S^2> of initial wavefunction before polarization iterations 0.0000000000
Beginning iterations for the determination of the polarized wavefunction
Energy prior to optimization (guess energy) = -2898.468180503588
Begin Timing: Total SCF Calculation
begin iterations for algorithm: DIIS         
the SCF tolerance is set to 1.00e-08
    1   -2898.4681805036      1.19e-03     00000 
    2   -2898.4836931881      6.06e-04     00000 
    3   -2898.4857776683      1.18e-04     00000 
    4   -2898.4860785464      3.75e-05     00000 
    5   -2898.4861150714      1.13e-05     00000 
    6   -2898.4861174013      6.74e-06     00000 
    7   -2898.4861176973      2.30e-06     00000 
    8   -2898.4861177355      7.56e-07     00000 
    9   -2898.4861177390      2.50e-07     00000 
   10   -2898.4861177396      7.80e-08     00000 
   11   -2898.4861177397      1.69e-08     00000 
   12   -2898.4861177397      4.54e-09     00000 Convergence criterion met
write pseudocanon occs and virts to disk
write pseudocanon orbital energies to disk
Timing for Total SCF: 10.00s (wall), 59.61s (cpu)
<S^2> of polarized wavefunction after polarization iterations 0.0000000000
relaxing scfmi constraint to allow all rotations in the entire AO span
Doing General SCFMI
 Exchange:     0.1500 Hartree-Fock + 1.0000 wB97M-V + LR-HF
 Correlation:  1.0000 wB97M-V
 Using Euler-Maclaurin-Lebedev (99,590) quadrature formula
 Nonlocal Correlation:  VV10 with C = 0.0100 and b = 6.00 and scale = 1.00000
 Grid used for NLC:  SG-1 standard quadrature
performing fock build at end of subrot_r(subrot) constructor so that all methods have access
<S^2> of polarized wavefunction before ct-allowed iterations 0.0000000000
Beginning iterations for the determination of the CT-Allowed wavefunction
Energy prior to optimization (guess energy) = -2898.486117739717
Begin Timing: Total SCF Calculation
begin iterations for algorithm: DIIS         
the SCF tolerance is set to 1.00e-08
    1   -2898.4861177397      5.70e-04     00000 
    2   -2898.4876680510      5.02e-05     00000 
    3   -2898.4877209448      1.40e-05     00000 
    4   -2898.4877237305      9.01e-06     00000 
    5   -2898.4877241556      9.66e-07     00000 
    6   -2898.4877241799      3.19e-07     00000 
    7   -2898.4877241823      6.40e-08     00000 
    8   -2898.4877241824      1.83e-08     00000 
    9   -2898.4877241824      5.14e-09     00000 Convergence criterion met
write pseudocanon occs and virts to disk
write pseudocanon orbital energies to disk
Timing for Total SCF: 7.00s (wall), 43.44s (cpu)
<S^2> of ct_allowed wavefunction after ct-allowed iterations 0.0000000000

================================
        Results of EDA2         
================================
Basic EDA Quantities
--------------------
Fragment Energies (Ha):
1-2736.3661889149
2 -162.0687155487
--------------------
  E_prp (kJ/mol) = 0.0000
  E_frz (kJ/mol) = -87.3673
  E_pol (kJ/mol) = -47.0948
  E_vct (kJ/mol) = -4.2178
  E_int (kJ/mol) = -138.6798
--------------------


Decomposition of frozen interaction energy
--------------------
  --------------------
  Orthogonal Frozen Decomposition:
  --------------------
     E_elec   (ELEC)   (kJ/mol) = -123.4855
     E_pauli  (PAULI)  (kJ/mol) = 42.7145
     E_disp   (DISP)   (kJ/mol) = -6.5963
  --------------------
  Classical Frozen Decomposition:
  --------------------
     E_cls_elec  (CLS ELEC)  (kJ/mol) = -125.6344
     E_mod_pauli (MOD PAULI) (kJ/mol) = 45.5495 (FRZ - CLS ELEC - CLS DISP)
     E_cls_disp  (CLS DISP)  (kJ/mol) = -7.2824
  --------------------
--------------------

Simplified EDA Summary (kJ/mol)
--------------------
 PREPARATION      0.0000
 FROZEN           -87.3673 (ELEC + PAULI + DISP)
[ELEC + PAULI = -80.0848, DISP = -7.2824]
 POLARIZATION    -47.0948
 CHARGE TRANSFER -4.2178
 TOTAL           -138.6798     (PRP + FRZ + POL + CT)
--------------------
 
 --------------------------------------------------------------
             Orbital Energies (a.u.) and Symmetries
 --------------------------------------------------------------
 
 Alpha MOs, Restricted
 -- Occupied --                  
-483.58  -62.89  -56.58  -56.58  -56.58  -38.93  -38.91   -8.97
  1 A'    2 A'    3 A'    4 A'    1 A"    5 A'    6 A'    7 A'                 
 -6.753  -6.752  -6.751  -2.835  -2.835  -2.834  -2.833  -2.833
  8 A'    9 A'    2 A"   10 A'   11 A'    3 A"    4 A"   12 A'                 
 -2.570  -2.552  -1.472  -1.472  -1.470  -1.454  -1.454  -1.453
 13 A'   14 A'   15 A'    5 A"   16 A'   17 A'    6 A"   18 A'                 
 -0.965  -0.511  -0.510  -0.493
 19 A'   20 A'   21 A'    7 A"                                                 
 -- Virtual --                   
 -0.176  -0.147  -0.107  -0.106  -0.081  -0.077  -0.072  -0.055
 22 A'   23 A'   24 A'    8 A"    9 A"   25 A'   26 A'   27 A'                 
 -0.054  -0.044  -0.039  -0.028  -0.028  -0.025  -0.018  -0.015
 28 A'   10 A"   29 A'   11 A"   30 A'   31 A'   32 A'   33 A'                 
 -0.014   0.006   0.010   0.049   0.050   0.055   0.070   0.083
 12 A"   34 A'   35 A'   36 A'   13 A"   37 A'   14 A"   15 A"                 
  0.094   0.094   0.099   0.112   0.115   0.121   0.136   0.140
 38 A'   16 A"   39 A'   40 A'   17 A"   41 A'   42 A'   43 A'                 
  0.162   0.164   0.172   0.209   0.228   0.236   0.243   0.291
 18 A"   44 A'   45 A'   19 A"   46 A'   20 A"   47 A'   48 A'                 
  0.311   0.372   0.420   0.439   0.441   0.443   0.451   0.512
 49 A'   21 A"   50 A'   22 A"   23 A"   51 A'   52 A'   53 A'                 
  0.587   0.854   0.935   0.947   0.960   0.963   0.966   0.969
 54 A'   55 A'   24 A"   56 A'   25 A"   57 A'   58 A'   26 A"                 
  0.983   0.999   1.015   1.051   1.136   1.138   1.152   1.160
 27 A"   59 A'   60 A'   61 A'   28 A"   62 A'   63 A'   29 A"                 
  1.169   1.247   1.506   1.511   1.513   1.525   1.527   1.538
 64 A'   65 A'   30 A"   66 A'   31 A"   67 A'   32 A"   68 A'                 
  1.539   1.548   1.567   1.573   1.653   1.699   1.750   1.818
 69 A'   33 A"   70 A'   34 A"   71 A'   35 A"   72 A'   73 A'                 
  1.944   3.500   3.700   4.154   4.162   4.166   4.184   4.285
 74 A'   75 A'   76 A'   36 A"   37 A"   77 A'   78 A'   79 A'                 
  5.598   5.602   5.617   5.620   5.620   5.622   5.643   5.645
 38 A"   80 A'   39 A"   40 A"   81 A'   82 A'   41 A"   83 A'                 
  5.658   5.699   7.492
 84 A'   85 A'   86 A'                                                         
 
 Beta MOs, Restricted
 -- Occupied --                  
-483.58  -62.89  -56.58  -56.58  -56.58  -38.93  -38.91   -8.97
  1 A'    2 A'    3 A'    4 A'    1 A"    5 A'    6 A'    7 A'                 
 -6.753  -6.752  -6.751  -2.835  -2.835  -2.834  -2.833  -2.833
  8 A'    9 A'    2 A"   10 A'   11 A'    3 A"    4 A"   12 A'                 
 -2.570  -2.552  -1.472  -1.472  -1.470  -1.454  -1.454  -1.453
 13 A'   14 A'   15 A'    5 A"   16 A'   17 A'    6 A"   18 A'                 
 -0.965  -0.511  -0.510  -0.493
 19 A'   20 A'   21 A'    7 A"                                                 
 -- Virtual --                   
 -0.176  -0.147  -0.107  -0.106  -0.081  -0.077  -0.072  -0.055
 22 A'   23 A'   24 A'    8 A"    9 A"   25 A'   26 A'   27 A'                 
 -0.054  -0.044  -0.039  -0.028  -0.028  -0.025  -0.018  -0.015
 28 A'   10 A"   29 A'   11 A"   30 A'   31 A'   32 A'   33 A'                 
 -0.014   0.006   0.010   0.049   0.050   0.055   0.070   0.083
 12 A"   34 A'   35 A'   36 A'   13 A"   37 A'   14 A"   15 A"                 
  0.094   0.094   0.099   0.112   0.115   0.121   0.136   0.140
 38 A'   16 A"   39 A'   40 A'   17 A"   41 A'   42 A'   43 A'                 
  0.162   0.164   0.172   0.209   0.228   0.236   0.243   0.291
 18 A"   44 A'   45 A'   19 A"   46 A'   20 A"   47 A'   48 A'                 
  0.311   0.372   0.420   0.439   0.441   0.443   0.451   0.512
 49 A'   21 A"   50 A'   22 A"   23 A"   51 A'   52 A'   53 A'                 
  0.587   0.854   0.935   0.947   0.960   0.963   0.966   0.969
 54 A'   55 A'   24 A"   56 A'   25 A"   57 A'   58 A'   26 A"                 
  0.983   0.999   1.015   1.051   1.136   1.138   1.152   1.160
 27 A"   59 A'   60 A'   61 A'   28 A"   62 A'   63 A'   29 A"                 
  1.169   1.247   1.506   1.511   1.513   1.525   1.527   1.538
 64 A'   65 A'   30 A"   66 A'   31 A"   67 A'   32 A"   68 A'                 
  1.539   1.548   1.567   1.573   1.653   1.699   1.750   1.818
 69 A'   33 A"   70 A'   34 A"   71 A'   35 A"   72 A'   73 A'                 
  1.944   3.500   3.700   4.154   4.162   4.166   4.184   4.285
 74 A'   75 A'   76 A'   36 A"   37 A"   77 A'   78 A'   79 A'                 
  5.598   5.602   5.617   5.620   5.620   5.622   5.643   5.645
 38 A"   80 A'   39 A"   40 A"   81 A'   82 A'   41 A"   83 A'                 
  5.658   5.699   7.492
 84 A'   85 A'   86 A'                                                         
 --------------------------------------------------------------
 
          Ground-State Mulliken Net Atomic Charges

     Atom                 Charge (a.u.)
  ----------------------------------------
      1 Br                   -0.677556
      2 Na                    0.865954
      3 Na                    0.811602
  ----------------------------------------
  Sum of atomic charges =     1.000000

 -----------------------------------------------------------------
                    Cartesian Multipole Moments
 -----------------------------------------------------------------
    Charge (ESU x 10^10)
                 4.8032
    Dipole Moment (Debye)
         X       2.6993      Y      10.3437      Z      -0.0000
       Tot      10.6901
    Quadrupole Moments (Debye-Ang)
        XX       3.9736     XY      -1.5794     YY     -15.0780
        XZ      -0.0000     YZ      -0.0000     ZZ     -28.4461
    Octopole Moments (Debye-Ang^2)
       XXX      31.2930    XXY      40.3884    XYY      -5.7355
       YYY      31.9691    XXZ      -0.0000    XYZ      -0.0000
       YYZ      -0.0000    XZZ       1.6359    YZZ       6.1559
       ZZZ      -0.0000
    Hexadecapole Moments (Debye-Ang^3)
      XXXX     -43.8840   XXXY       9.8899   XXYY     -12.7554
      XYYY     -15.6632   YYYY    -113.2698   XXXZ      -0.0000
      XXYZ      -0.0000   XYYZ      -0.0000   YYYZ      -0.0000
      XXZZ     -34.1344   XYZZ      -0.9048   YYZZ     -28.3950
      XZZZ      -0.0000   YZZZ      -0.0000   ZZZZ     -35.8822
 -----------------------------------------------------------------
 Total job time:  58.07s(wall), 198.86s(cpu) 
 Sat Jan  6 16:10:20 2024

        *************************************************************
        *                                                           *
        *  Thank you very much for using Q-Chem.  Have a nice day.  *
        *                                                           *
        *************************************************************


