
Running Job 1 of 1 091_KCl-Cl_1.00_almo.in
qchem 091_KCl-Cl_1.00_almo.in_544601.0 /scratch/qchem544601/ 6
/home/kchung25/qchem/5.4.0/exe/qcprog.exe_s 091_KCl-Cl_1.00_almo.in_544601.0 /scratch/qchem544601/
                  Welcome to Q-Chem
     A Quantum Leap Into The Future Of Chemistry


 Q-Chem 5.4, Q-Chem, Inc., Pleasanton, CA (2021)

 E. Epifanovsky,  A. T. B. Gilbert,  Xintian Feng,  Joonho Lee,  Yuezhi Mao,  
 N. Mardirossian,  P. Pokhilko,  A. White,  M. Wormit,  M. P. Coons,  
 A. L. Dempwolff,  Zhengting Gan,  D. Hait,  P. R. Horn,  L. D. Jacobson,  
 I. Kaliman,  J. Kussmann,  A. W. Lange,  Ka Un Lao,  D. S. Levine,  Jie Liu,  
 S. C. McKenzie,  A. F. Morrison,  K. Nanda,  F. Plasser,  D. R. Rehn,  
 M. L. Vidal,  Zhi-Qiang You,  Ying Zhu,  B. Alam,  B. Albrecht,  
 A. Aldossary,  E. Alguire,  J. H. Andersen,  D. Barton,  K. Begam,  A. Behn,  
 Y. A. Bernard,  E. J. Berquist,  H. Burton,  A. Carreras,  K. Carter-Fenk,  
 Romit Chakraborty,  A. D. Chien,  K. D. Closser,  V. Cofer-Shabica,  
 S. Dasgupta,  Jia Deng,  M. de Wergifosse,  M. Diedenhofen,  Hainam Do,  
 S. Ehlert,  Po-Tung Fang,  S. Fatehi,  Qingguo Feng,  T. Friedhoff,  
 J. Gayvert,  Qinghui Ge,  G. Gidofalvi,  M. Goldey,  J. Gomes,  
 C. Gonzalez-Espinoza,  S. Gulania,  A. Gunina,  M. W. D. Hanson-Heine,  
 P. H. P. Harbach,  A. W. Hauser,  M. F. Herbst,  M. Hernandez Vera,  
 M. Hodecker,  Z. C. Holden,  S. Houck,  Xunkun Huang,  Kerwin Hui,  
 B. C. Huynh,  M. Ivanov,  Hyunjun Ji,  Hanjie Jiang,  B. Kaduk,  S. Kaehler,  
 K. Khistyaev,  Jaehoon Kim,  P. Klunzinger,  Z. Koczor-Benda,  
 Joong Hoon Koh,  D. Kosenkov,  L. Koulias,  T. Kowalczyk,  C. M. Krauter,  
 K. Kue,  A. Kunitsa,  T. Kus,  A. Landau,  K. V. Lawler,  D. Lefrancois,  
 S. Lehtola,  Rain Li,  Yi-Pei Li,  Jiashu Liang,  M. Liebenthal,  
 Hung-Hsuan Lin,  You-Sheng Lin,  Fenglai Liu,  Kuan-Yu Liu,  
 M. Loipersberger,  A. Luenser,  A. Manjanath,  P. Manohar,  E. Mansoor,  
 S. F. Manzer,  Shan-Ping Mao,  A. V. Marenich,  T. Markovich,  S. Mason,  
 S. A. Maurer,  P. F. McLaughlin,  M. F. S. J. Menger,  J.-M. Mewes,  
 S. A. Mewes,  P. Morgante,  J. W. Mullinax,  K. J. Oosterbaan,  G. Paran,  
 Alexander C. Paul,  Suranjan K. Paul,  F. Pavosevic,  Zheng Pei,  S. Prager,  
 E. I. Proynov,  E. Ramos,  B. Rana,  A. E. Rask,  A. Rettig,  R. M. Richard,  
 F. Rob,  E. Rossomme,  T. Scheele,  M. Scheurer,  M. Schneider,  
 N. Sergueev,  S. M. Sharada,  W. Skomorowski,  D. W. Small,  C. J. Stein,  
 Yu-Chuan Su,  E. J. Sundstrom,  Zhen Tao,  J. Thirman,  T. Tsuchimochi,  
 N. M. Tubman,  S. P. Veccham,  O. Vydrov,  J. Wenzel,  J. Witte,  A. Yamada,  
 Kun Yao,  S. Yeganeh,  S. R. Yost,  A. Zech,  Igor Ying Zhang,  Xing Zhang,  
 Yu Zhang,  D. Zuev,  A. Aspuru-Guzik,  A. T. Bell,  N. A. Besley,  
 K. B. Bravaya,  B. R. Brooks,  D. Casanova,  Jeng-Da Chai,  S. Coriani,  
 C. J. Cramer,  A. E. DePrince, III,  R. A. DiStasio Jr.,  A. Dreuw,  
 B. D. Dunietz,  T. R. Furlani,  W. A. Goddard III,  S. Grimme,  
 S. Hammes-Schiffer,  T. Head-Gordon,  W. J. Hehre,  Chao-Ping Hsu,  
 T.-C. Jagau,  Yousung Jung,  A. Klamt,  Jing Kong,  D. S. Lambrecht,  
 WanZhen Liang,  N. J. Mayhall,  C. W. McCurdy,  J. B. Neaton,  T. Neudecker,  
 C. Ochsenfeld,  J. A. Parkhill,  R. Peverati,  V. A. Rassolov,  Yihan Shao,  
 L. V. Slipchenko,  R. P. Steele,  J. E. Subotnik,  A. J. W. Thom,  
 A. Tkatchenko,  D. G. Truhlar,  T. Van Voorhis,  T. A. Wesolowski,  
 K. B. Whaley,  H. L. Woodcock III,  P. M. Zimmerman,  S. Faraji,  
 P. M. W. Gill,  M. Head-Gordon,  J. M. Herbert,  A. I. Krylov

 Additional authors since Version 5.4.0: 
 Chandrima Chakravarty,  L. Cunha,  R. Kang,  Yongbin Kim,  S. Kotaru,  
 Shaozhi Li,  Xiangyuan Li,  F. Matz,  A. Molle,  V. Parravicini,  
 Haisheng Ren,  Hengyuan Shen,  Yingli Su,  Hung-Yi Tsai,  C. Utku,  
 Fang Wang,  Jeff Yang,  F. Zeller

 Contributors to earlier versions of Q-Chem not listed above: 
 R. D. Adamson,  B. Austin,  R. Baer,  J. Baker,  G. J. O. Beran,  
 K. Brandhorst,  S. T. Brown,  E. F. C. Byrd,  Arup K. Chakraborty,  
 G. K. L. Chan,  Chun-Min Chang,  Yunqing Chen,  C.-L. Cheng,  
 Siu Hung Chien,  D. M. Chipman,  D. L. Crittenden,  H. Dachsel,  
 R. J. Doerksen,  A. D. Dutoi,  R. G. Edgar,  J. Fosso-Tande,  
 L. Fusti-Molnar,  D. Ghosh,  A. Ghysels,  A. Golubeva-Zadorozhnaya,  
 J. Gonthier,  M. S. Gordon,  S. R. Gwaltney,  G. Hawkins,  J. E. Herr,  
 A. Heyden,  S. Hirata,  E. G. Hohenstein,  G. Kedziora,  F. J. Keil,  
 C. Kelley,  Jihan Kim,  R. A. King,  R. Z. Khaliullin,  P. P. Korambath,  
 W. Kurlancheek,  A. Laurent,  A. M. Lee,  M. S. Lee,  S. V. Levchenko,  
 Ching Yeh Lin,  D. Liotard,  E. Livshits,  R. C. Lochan,  I. Lotan,  
 L. A. Martinez-Martinez,  P. E. Maslen,  N. Nair,  D. P. O'Neill,  
 D. Neuhauser,  E. Neuscamman,  C. M. Oana,  R. Olivares-Amaya,  R. Olson,  
 T. M. Perrine,  B. Peters,  P. A. Pieniazek,  A. Prociuk,  Y. M. Rhee,  
 J. Ritchie,  M. A. Rohrdanz,  E. Rosta,  N. J. Russ,  H. F. Schaefer III,  
 M. W. Schmidt,  N. E. Schultz,  S. Sharma,  N. Shenvi,  C. D. Sherrill,  
 A. C. Simmonett,  A. Sodt,  T. Stein,  D. Stuck,  K. S. Thanthiriwatte,  
 V. Vanovschi,  L. Vogt,  Tao Wang,  A. Warshel,  M. A. Watson,  
 C. F. Williams,  Q. Wu,  X. Xu,  Jun Yang,  W. Zhang,  Yan Zhao

   Please cite Q-Chem as follows:
  "Software for the frontiers of quantum chemistry:
   An overview of developments in the Q-Chem 5 package"
   J. Chem. Phys. 155, 084801 (2021)
   https://doi.org/10.1063/5.0055522 (open access)

 Q-Chem 5.4.2 for Intel X86 EM64T Linux

 Parts of Q-Chem use Armadillo 9.900.5 (Nocturnal Misbehaviour).
 http://arma.sourceforge.net/

 Q-Chem begins on Sat Jan  6 16:39:48 2024  

 Host: 
0

     Scratch files written to /scratch/qchem544601//
 Dec1321 |scratch|qcdevops|jenkins|workspace|build_RNUM 5684   
 Processing $rem in /home/kchung25/qchem/5.4.0/config/preferences:
 Processing $rem in /home/kchung25/.qchemrc:

 Q-Chem warning in module libgen/rem_setup.C, line 3079:

 Neither GIA nor STOLL is specified by user. Use STOLL as the default


 Checking the input file for inconsistencies... 	...done.

--------------------------------------------------------------
User input:
--------------------------------------------------------------
$molecule
-1 1
--
0 1
K      0.000000     0.000000     0.000000
Cl     0.000000     2.633546     0.000000
--
-1 1
Cl     2.633546     0.000000     0.000000
$end

$rem
JOBTYPE          eda
EDA2             1
METHOD           wB97M-V
BASIS            def2-TZVPPD
SYMMETRY         false
MEM_TOTAL        50000
MEM_STATIC       10000
THRESH           14
SCF_CONVERGENCE  8
XC_GRID          000099000590
NL_GRID          1
EDA_CLS_DISP     true
FD_MAT_VEC_PROD  FALSE
$end
--------------------------------------------------------------
 ----------------------------------------------------------------
             Standard Nuclear Orientation (Angstroms)
    I     Atom           X                Y                Z
 ----------------------------------------------------------------
    1      K       0.0000000000    -0.0000000000     1.1946177358
    2      Cl     -1.8621982352     0.0000000000    -0.6675804994
    3      Cl      1.8621982352    -0.0000000000    -0.6675804994
 ----------------------------------------------------------------
 Molecular Point Group                 C2v   NOp =  4
 Largest Abelian Subgroup              C2v   NOp =  4
 Nuclear Repulsion Energy =         170.86767564 hartrees
 There are       27 alpha and       27 beta electrons
 Requested basis set is def2-TZVPPD
 There are 48 shells and 138 basis functions

 Q-Chem warning in module libmdc/get_mega.C, line 171:

 Allowed MEM_STATIC has been capped at MEM_STATIC=8191.
 Reduce the value of MEM_STATIC to silence this warning.


 Total QAlloc Memory Limit  50000 MB
 Mega-Array Size      8007 MB
 MEM_STATIC part      8191 MB

                       Distance Matrix (Angstroms)
             K (  1)   Cl(  2)
   Cl(  2)  2.633546
   Cl(  3)  2.633546  3.724396
 
 A cutoff of  1.0D-14 yielded   1082 shell pairs
 There are      9228 function pairs (     11739 Cartesian)
 Smallest overlap matrix eigenvalue = 1.73E-03

 Scale SEOQF with 1.000000e-01/1.000000e-01/1.000000e-01

 Standard Electronic Orientation quadrupole field applied
 Nucleus-field energy     =    -0.0000000003 hartrees

 -----------------------------------------------------------------------
  General SCF calculation program by
  Eric Jon Sundstrom, Paul Horn, Yuezhi Mao, Dmitri Zuev, Alec White,
  David Stuck, Shaama M.S., Shane Yost, Joonho Lee, David Small,
  Daniel Levine, Susi Lehtola, Hugh Burton, Evgeny Epifanovsky,
  Bang C. Huynh
 -----------------------------------------------------------------------
================================================================
                 ALMO-EDA with the EDA2 driver                  
================================================================
 The second-generation ALMO-EDA (for DFT):                      
 P. R. Horn, Y. Mao and M. Head-Gordon, PCCP, 18, 23067 (2016)  
 Y. Mao et al. Annu. Rev. Phys. Chem. 72, 641 (2021)            
 Decomposition of the frozen energy:                            
 P. R. Horn, Y. Mao and M. Head-Gordon, JCP, 144, 114107 (2016) 
 FERF model for polarization:                                   
 P. R. Horn and M. Head-Gordon, JCP, 143, 114111 (2015)         
================================================================
 Using eda2 option set 1
 Option set summary: Frozen orbital wavefunction, initial wavefunction decomposition, and nDQ polarization.
--------------------------------
Printing EDA Options
--------------------------------
eda_child_super_basis      0
fragmo_guess_mode          0
child_mp                   1
child_mp_orders            232
cls_elec                   1
cls_disp                   1
scfmi_mode                 1
scfmi_occs                 0
scfmi_virts                0
frz_relax                  0
frz_relax_method           0
dc_pen_start               0
dc_pen_conv                0
dc_pen_increment           0
dc_pen_steps               0
dc_pen_thresh_factor       0
dc_pen_pre_newton_thresh   0
frz_ortho_decomp           1
frz_ortho_decomp_conv      6
plot_mo_ortho_frz          0
frgm_method                2
scfmi_freeze_ss            0
separate_rehyb             0
plot_diff_den              0
eda_nocv                   0
eda_vct_relax              1
disp_free_x                0
disp_free_c                0
eda_bsse                   0
eda_pct_a                  0
eda_covp                   0
--------------------------------
Attempting to make child job directory: /scratch/qchem544601//Frg1/
Attempting to make child job directory: /scratch/qchem544601//Frg2/
Creating input file /scratch/qchem544601/Frg1.input
using default PutDataFrgm: nothing
calling putenv with: QCSCRATCH=/scratch/qchem544601/ 
Spawning Job For Fragment 0
Done Job For Fragment 0
calling putenv with: QCSCRATCH=/scratch 
calling putenv with: QCTHREADS=6 
Creating input file /scratch/qchem544601/Frg2.input
using default PutDataFrgm: nothing
calling putenv with: QCSCRATCH=/scratch/qchem544601/ 
Spawning Job For Fragment 1
Done Job For Fragment 1
calling putenv with: QCSCRATCH=/scratch 
calling putenv with: QCTHREADS=6 
Doing General SCFMI
 Exchange:     0.1500 Hartree-Fock + 1.0000 wB97M-V + LR-HF
 Correlation:  1.0000 wB97M-V
 Using Euler-Maclaurin-Lebedev (99,590) quadrature formula
 Nonlocal Correlation:  VV10 with C = 0.0100 and b = 6.00 and scale = 1.00000
 Grid used for NLC:  SG-1 standard quadrature
performing fock build before subrot guess so that all methods have access
Printing subrot_rss_gen Method Specification:
Occupied Subspace Method is 0
Virtual Subspace Method is 0
Energy of the unrelaxed supersystem initial determinant -1520.443047115779
write pseudocanon occs and virts to disk
write pseudocanon orbital energies to disk
Tolerance of ortho_decomp_scf: 1.00e-06
GDM subspace size: 20
Beginning the Orthogonal Decomposition of the Initial Supersystem Wavefunction
    1   -1520.2678541202      4.25e-01     ortho_decomp Preconditoned Steepest Descent
    2   -1520.3336717045      4.25e-03     ortho_decomp BFGS Step
    3   -1520.3337040961      1.94e-04     ortho_decomp BFGS Step
    4   -1520.3337042097      1.17e-05     ortho_decomp BFGS Step
    5   -1520.3337042099      3.40e-07     ortho_decomp 00000 Convergence criterion met
 Hartree-Fock
 Hartree-Fock
 Hartree-Fock
 Exchange:     0.1500 Hartree-Fock + 1.0000 wB97M-V + LR-HF
 Correlation:  1.0000 wB97M-V
 Using Euler-Maclaurin-Lebedev (99,590) quadrature formula
 Nonlocal Correlation:  VV10 with C = 0.0100 and b = 6.00 and scale = 1.00000
 Grid used for NLC:  SG-1 standard quadrature
 Long-range K will be added via erf
 Coulomb attenuation parameter = 0.3 bohr**(-1)
 Nonlocal correlation = 2.247195183469e-01
Doing General SCFMI
 Exchange:     0.1500 Hartree-Fock + 1.0000 wB97M-V + LR-HF
 Correlation:  1.0000 wB97M-V
 Using Euler-Maclaurin-Lebedev (99,590) quadrature formula
 Nonlocal Correlation:  VV10 with C = 0.0100 and b = 6.00 and scale = 1.00000
 Grid used for NLC:  SG-1 standard quadrature
performing fock build at end of subrot_r(subrot) constructor so that all methods have access
<S^2> of initial wavefunction before polarization iterations 0.0000000000
Beginning iterations for the determination of the polarized wavefunction
Energy prior to optimization (guess energy) = -1520.443047115778
Begin Timing: Total SCF Calculation
begin iterations for algorithm: DIIS         
the SCF tolerance is set to 1.00e-08
    1   -1520.4430471158      1.06e-03     00000 
    2   -1520.4542112680      5.52e-04     00000 
    3   -1520.4557179210      1.34e-04     00000 
    4   -1520.4559515611      4.37e-05     00000 
    5   -1520.4559871414      1.94e-05     00000 
    6   -1520.4559923127      5.74e-06     00000 
    7   -1520.4559930487      1.99e-06     00000 
    8   -1520.4559931031      5.80e-07     00000 
    9   -1520.4559931071      1.56e-07     00000 
   10   -1520.4559931075      6.91e-08     00000 
   11   -1520.4559931076      1.54e-08     00000 
   12   -1520.4559931076      6.05e-09     00000 Convergence criterion met
write pseudocanon occs and virts to disk
write pseudocanon orbital energies to disk
Timing for Total SCF: 10.00s (wall), 55.36s (cpu)
<S^2> of polarized wavefunction after polarization iterations 0.0000000000
relaxing scfmi constraint to allow all rotations in the entire AO span
Doing General SCFMI
 Exchange:     0.1500 Hartree-Fock + 1.0000 wB97M-V + LR-HF
 Correlation:  1.0000 wB97M-V
 Using Euler-Maclaurin-Lebedev (99,590) quadrature formula
 Nonlocal Correlation:  VV10 with C = 0.0100 and b = 6.00 and scale = 1.00000
 Grid used for NLC:  SG-1 standard quadrature
performing fock build at end of subrot_r(subrot) constructor so that all methods have access
<S^2> of polarized wavefunction before ct-allowed iterations 0.0000000000
Beginning iterations for the determination of the CT-Allowed wavefunction
Energy prior to optimization (guess energy) = -1520.455993107561
Begin Timing: Total SCF Calculation
begin iterations for algorithm: DIIS         
the SCF tolerance is set to 1.00e-08
    1   -1520.4559931076      6.32e-04     00000 
    2   -1520.4621502257      1.13e-04     00000 
    3   -1520.4625344686      3.83e-05     00000 
    4   -1520.4625548043      1.54e-05     00000 
    5   -1520.4625579947      1.85e-06     00000 
    6   -1520.4625581542      7.25e-07     00000 
    7   -1520.4625581736      2.38e-07     00000 
    8   -1520.4625581760      7.20e-08     00000 
    9   -1520.4625581763      1.81e-08     00000 
   10   -1520.4625581763      4.88e-09     00000 Convergence criterion met
write pseudocanon occs and virts to disk
write pseudocanon orbital energies to disk
Timing for Total SCF: 7.00s (wall), 45.01s (cpu)
<S^2> of ct_allowed wavefunction after ct-allowed iterations 0.0000000000

================================
        Results of EDA2         
================================
Basic EDA Quantities
--------------------
Fragment Energies (Ha):
1-1060.1681677691
2 -460.2597934915
--------------------
  E_prp (kJ/mol) = 0.0000
  E_frz (kJ/mol) = -39.6084
  E_pol (kJ/mol) = -33.9901
  E_vct (kJ/mol) = -17.2368
  E_int (kJ/mol) = -90.8353
--------------------


Decomposition of frozen interaction energy
--------------------
  --------------------
  Orthogonal Frozen Decomposition:
  --------------------
     E_elec   (ELEC)   (kJ/mol) = -220.5414
     E_pauli  (PAULI)  (kJ/mol) = 204.0891
     E_disp   (DISP)   (kJ/mol) = -23.1560
  --------------------
  Classical Frozen Decomposition:
  --------------------
     E_cls_elec  (CLS ELEC)  (kJ/mol) = -198.2003
     E_mod_pauli (MOD PAULI) (kJ/mol) = 184.4311 (FRZ - CLS ELEC - CLS DISP)
     E_cls_disp  (CLS DISP)  (kJ/mol) = -25.8392
  --------------------
--------------------

Simplified EDA Summary (kJ/mol)
--------------------
 PREPARATION      0.0000
 FROZEN           -39.6084 (ELEC + PAULI + DISP)
[ELEC + PAULI = -13.7692, DISP = -25.8392]
 POLARIZATION    -33.9901
 CHARGE TRANSFER -17.2368
 TOTAL           -90.8353     (PRP + FRZ + POL + CT)
--------------------
 
 --------------------------------------------------------------
             Orbital Energies (a.u.) and Symmetries
 --------------------------------------------------------------
 Warning : Irrep of orbital(   2) could not be determined
 Warning : Irrep of orbital(   3) could not be determined
 Warning : Irrep of orbital(  12) could not be determined
 Warning : Irrep of orbital(  13) could not be determined
 
 Alpha MOs, Restricted
 -- Occupied --                  
-129.98 -101.59 -101.59  -13.22  -10.50  -10.50  -10.50   -9.36
  1 A1    0 xxx   0 xxx   2 A1    1 B2    3 A1    1 B1    2 B1                 
 -9.362  -7.062  -7.062  -7.062  -7.062  -7.061  -7.061  -1.321
  4 A1    3 B1    5 A1    0 xxx   0 xxx   4 B1    6 A1    7 A1                 
 -0.689  -0.687  -0.673  -0.633  -0.630  -0.182  -0.177  -0.173
  8 A1    5 B1    2 B2    9 A1    6 B1   10 A1   11 A1    3 B2                 
 -0.171  -0.167  -0.154
  7 B1    1 A2    8 B1                                                         
 -- Virtual --                   
  0.081   0.105   0.109   0.133   0.171   0.195   0.201   0.203
 12 A1    4 B2    9 B1   13 A1   14 A1   10 B1   15 A1    5 B2                 
  0.220   0.229   0.230   0.234   0.240   0.248   0.272   0.286
 11 B1   16 A1    2 A2    6 B2   17 A1   12 B1    3 A2   18 A1                 
  0.297   0.340   0.351   0.421   0.426   0.446   0.460   0.466
  7 B2   13 B1   19 A1    8 B2   20 A1   14 B1   21 A1    4 A2                 
  0.467   0.469   0.474   0.496   0.500   0.501   0.508   0.534
  9 B2   15 B1   22 A1   23 A1    5 A2   16 B1   24 A1   10 B2                 
  0.540   0.556   0.560   0.576   0.760   0.765   0.774   0.795
 17 B1    6 A2   18 B1   25 A1   26 A1   11 B2    7 A2   19 B1                 
  0.805   0.891   0.895   0.918   0.928   0.936   0.939   0.939
 27 A1   28 A1   20 B1   12 B2   21 B1   29 A1   22 B1    8 A2                 
  0.946   0.953   0.955   0.977   0.991   1.084   1.228   1.299
 13 B2    9 A2   14 B2   23 B1   30 A1   31 A1   24 B1   32 A1                 
  1.324   1.411   1.429   1.430   1.455   1.504   1.562   2.234
 25 B1   33 A1   10 A2   15 B2   34 A1   35 A1   26 B1   16 B2                 
  2.242   2.248   2.251   2.252   2.271   2.285   2.302   2.320
 27 B1   11 A2   28 B1   36 A1   12 A2   17 B2   37 A1   29 B1                 
  2.341   2.432   2.432   2.433   2.434   2.437   2.438   2.438
 38 A1   18 B2   30 B1   13 A2   39 A1   40 A1   31 B1   19 B2                 
  2.441   2.447   2.453   2.466   2.483   2.569   2.583   2.644
 14 A2   32 B1   15 A2   20 B2   41 A1   42 A1   33 B1   16 A2                 
  2.645   2.657   2.706   2.760   2.839   8.517   8.524   8.527
 21 B2   43 A1   34 B1   44 A1   35 B1   22 B2   36 B1   45 A1                 
  8.527   8.535   8.542   8.548   8.561   8.578   8.585  11.206
 17 A2   37 B1   18 A2   23 B2   46 A1   38 B1   47 A1   19 A2                 
 11.208  11.213  11.250  11.287  11.348  25.290  25.307
 24 B2   48 A1   39 B1   49 A1   40 B1   41 B1   50 A1                         
 
 Beta MOs, Restricted
 -- Occupied --                  
-129.98 -101.59 -101.59  -13.22  -10.50  -10.50  -10.50   -9.36
  1 A1    0 xxx   0 xxx   2 A1    1 B2    3 A1    1 B1    2 B1                 
 -9.362  -7.062  -7.062  -7.062  -7.062  -7.061  -7.061  -1.321
  4 A1    3 B1    5 A1    0 xxx   0 xxx   4 B1    6 A1    7 A1                 
 -0.689  -0.687  -0.673  -0.633  -0.630  -0.182  -0.177  -0.173
  8 A1    5 B1    2 B2    9 A1    6 B1   10 A1   11 A1    3 B2                 
 -0.171  -0.167  -0.154
  7 B1    1 A2    8 B1                                                         
 -- Virtual --                   
  0.081   0.105   0.109   0.133   0.171   0.195   0.201   0.203
 12 A1    4 B2    9 B1   13 A1   14 A1   10 B1   15 A1    5 B2                 
  0.220   0.229   0.230   0.234   0.240   0.248   0.272   0.286
 11 B1   16 A1    2 A2    6 B2   17 A1   12 B1    3 A2   18 A1                 
  0.297   0.340   0.351   0.421   0.426   0.446   0.460   0.466
  7 B2   13 B1   19 A1    8 B2   20 A1   14 B1   21 A1    4 A2                 
  0.467   0.469   0.474   0.496   0.500   0.501   0.508   0.534
  9 B2   15 B1   22 A1   23 A1    5 A2   16 B1   24 A1   10 B2                 
  0.540   0.556   0.560   0.576   0.760   0.765   0.774   0.795
 17 B1    6 A2   18 B1   25 A1   26 A1   11 B2    7 A2   19 B1                 
  0.805   0.891   0.895   0.918   0.928   0.936   0.939   0.939
 27 A1   28 A1   20 B1   12 B2   21 B1   29 A1   22 B1    8 A2                 
  0.946   0.953   0.955   0.977   0.991   1.084   1.228   1.299
 13 B2    9 A2   14 B2   23 B1   30 A1   31 A1   24 B1   32 A1                 
  1.324   1.411   1.429   1.430   1.455   1.504   1.562   2.234
 25 B1   33 A1   10 A2   15 B2   34 A1   35 A1   26 B1   16 B2                 
  2.242   2.248   2.251   2.252   2.271   2.285   2.302   2.320
 27 B1   11 A2   28 B1   36 A1   12 A2   17 B2   37 A1   29 B1                 
  2.341   2.432   2.432   2.433   2.434   2.437   2.438   2.438
 38 A1   18 B2   30 B1   13 A2   39 A1   40 A1   31 B1   19 B2                 
  2.441   2.447   2.453   2.466   2.483   2.569   2.583   2.644
 14 A2   32 B1   15 A2   20 B2   41 A1   42 A1   33 B1   16 A2                 
  2.645   2.657   2.706   2.760   2.839   8.517   8.524   8.527
 21 B2   43 A1   34 B1   44 A1   35 B1   22 B2   36 B1   45 A1                 
  8.527   8.535   8.542   8.548   8.561   8.578   8.585  11.206
 17 A2   37 B1   18 A2   23 B2   46 A1   38 B1   47 A1   19 A2                 
 11.208  11.213  11.250  11.287  11.348  25.290  25.307
 24 B2   48 A1   39 B1   49 A1   40 B1   41 B1   50 A1                         
 --------------------------------------------------------------
 
          Ground-State Mulliken Net Atomic Charges

     Atom                 Charge (a.u.)
  ----------------------------------------
      1 K                     0.820371
      2 Cl                   -0.910185
      3 Cl                   -0.910185
  ----------------------------------------
  Sum of atomic charges =    -1.000000

 -----------------------------------------------------------------
                    Cartesian Multipole Moments
 -----------------------------------------------------------------
    Charge (ESU x 10^10)
                -4.8032
    Dipole Moment (Debye)
         X       0.0000      Y       0.0000      Z       8.9615
       Tot       8.9615
    Quadrupole Moments (Debye-Ang)
        XX     -75.8262     XY       0.0000     YY     -43.1960
        XZ      -0.0000     YZ      -0.0000     ZZ     -40.0324
    Octopole Moments (Debye-Ang^2)
       XXX       0.0001    XXY       0.0000    XYY       0.0000
       YYY       0.0000    XXZ      24.6727    XYZ      -0.0000
       YYZ       9.9581    XZZ       0.0000    YZZ       0.0000
       ZZZ      34.9511
    Hexadecapole Moments (Debye-Ang^3)
      XXXX    -892.6957   XXXY       0.0000   XXYY    -141.7326
      XYYY       0.0000   YYYY     -66.9346   XXXZ      -0.0001
      XXYZ      -0.0000   XYYZ       0.0000   YYYZ      -0.0000
      XXZZ    -175.5652   XYZZ       0.0000   YYZZ     -48.8209
      XZZZ      -0.0000   YZZZ      -0.0000   ZZZZ    -223.2128
 -----------------------------------------------------------------
 Total job time:  54.00s(wall), 188.38s(cpu) 
 Sat Jan  6 16:40:42 2024

        *************************************************************
        *                                                           *
        *  Thank you very much for using Q-Chem.  Have a nice day.  *
        *                                                           *
        *************************************************************


