
Running Job 1 of 1 118_Li-Water_Cls_017_almo.in
qchem 118_Li-Water_Cls_017_almo.in_680587.0 /scratch/qchem680587/ 6
/home/kchung25/qchem/5.4.0/exe/qcprog.exe_s 118_Li-Water_Cls_017_almo.in_680587.0 /scratch/qchem680587/
                  Welcome to Q-Chem
     A Quantum Leap Into The Future Of Chemistry


 Q-Chem 5.4, Q-Chem, Inc., Pleasanton, CA (2021)

 E. Epifanovsky,  A. T. B. Gilbert,  Xintian Feng,  Joonho Lee,  Yuezhi Mao,  
 N. Mardirossian,  P. Pokhilko,  A. White,  M. Wormit,  M. P. Coons,  
 A. L. Dempwolff,  Zhengting Gan,  D. Hait,  P. R. Horn,  L. D. Jacobson,  
 I. Kaliman,  J. Kussmann,  A. W. Lange,  Ka Un Lao,  D. S. Levine,  Jie Liu,  
 S. C. McKenzie,  A. F. Morrison,  K. Nanda,  F. Plasser,  D. R. Rehn,  
 M. L. Vidal,  Zhi-Qiang You,  Ying Zhu,  B. Alam,  B. Albrecht,  
 A. Aldossary,  E. Alguire,  J. H. Andersen,  D. Barton,  K. Begam,  A. Behn,  
 Y. A. Bernard,  E. J. Berquist,  H. Burton,  A. Carreras,  K. Carter-Fenk,  
 Romit Chakraborty,  A. D. Chien,  K. D. Closser,  V. Cofer-Shabica,  
 S. Dasgupta,  Jia Deng,  M. de Wergifosse,  M. Diedenhofen,  Hainam Do,  
 S. Ehlert,  Po-Tung Fang,  S. Fatehi,  Qingguo Feng,  T. Friedhoff,  
 J. Gayvert,  Qinghui Ge,  G. Gidofalvi,  M. Goldey,  J. Gomes,  
 C. Gonzalez-Espinoza,  S. Gulania,  A. Gunina,  M. W. D. Hanson-Heine,  
 P. H. P. Harbach,  A. W. Hauser,  M. F. Herbst,  M. Hernandez Vera,  
 M. Hodecker,  Z. C. Holden,  S. Houck,  Xunkun Huang,  Kerwin Hui,  
 B. C. Huynh,  M. Ivanov,  Hyunjun Ji,  Hanjie Jiang,  B. Kaduk,  S. Kaehler,  
 K. Khistyaev,  Jaehoon Kim,  P. Klunzinger,  Z. Koczor-Benda,  
 Joong Hoon Koh,  D. Kosenkov,  L. Koulias,  T. Kowalczyk,  C. M. Krauter,  
 K. Kue,  A. Kunitsa,  T. Kus,  A. Landau,  K. V. Lawler,  D. Lefrancois,  
 S. Lehtola,  Rain Li,  Yi-Pei Li,  Jiashu Liang,  M. Liebenthal,  
 Hung-Hsuan Lin,  You-Sheng Lin,  Fenglai Liu,  Kuan-Yu Liu,  
 M. Loipersberger,  A. Luenser,  A. Manjanath,  P. Manohar,  E. Mansoor,  
 S. F. Manzer,  Shan-Ping Mao,  A. V. Marenich,  T. Markovich,  S. Mason,  
 S. A. Maurer,  P. F. McLaughlin,  M. F. S. J. Menger,  J.-M. Mewes,  
 S. A. Mewes,  P. Morgante,  J. W. Mullinax,  K. J. Oosterbaan,  G. Paran,  
 Alexander C. Paul,  Suranjan K. Paul,  F. Pavosevic,  Zheng Pei,  S. Prager,  
 E. I. Proynov,  E. Ramos,  B. Rana,  A. E. Rask,  A. Rettig,  R. M. Richard,  
 F. Rob,  E. Rossomme,  T. Scheele,  M. Scheurer,  M. Schneider,  
 N. Sergueev,  S. M. Sharada,  W. Skomorowski,  D. W. Small,  C. J. Stein,  
 Yu-Chuan Su,  E. J. Sundstrom,  Zhen Tao,  J. Thirman,  T. Tsuchimochi,  
 N. M. Tubman,  S. P. Veccham,  O. Vydrov,  J. Wenzel,  J. Witte,  A. Yamada,  
 Kun Yao,  S. Yeganeh,  S. R. Yost,  A. Zech,  Igor Ying Zhang,  Xing Zhang,  
 Yu Zhang,  D. Zuev,  A. Aspuru-Guzik,  A. T. Bell,  N. A. Besley,  
 K. B. Bravaya,  B. R. Brooks,  D. Casanova,  Jeng-Da Chai,  S. Coriani,  
 C. J. Cramer,  A. E. DePrince, III,  R. A. DiStasio Jr.,  A. Dreuw,  
 B. D. Dunietz,  T. R. Furlani,  W. A. Goddard III,  S. Grimme,  
 S. Hammes-Schiffer,  T. Head-Gordon,  W. J. Hehre,  Chao-Ping Hsu,  
 T.-C. Jagau,  Yousung Jung,  A. Klamt,  Jing Kong,  D. S. Lambrecht,  
 WanZhen Liang,  N. J. Mayhall,  C. W. McCurdy,  J. B. Neaton,  T. Neudecker,  
 C. Ochsenfeld,  J. A. Parkhill,  R. Peverati,  V. A. Rassolov,  Yihan Shao,  
 L. V. Slipchenko,  R. P. Steele,  J. E. Subotnik,  A. J. W. Thom,  
 A. Tkatchenko,  D. G. Truhlar,  T. Van Voorhis,  T. A. Wesolowski,  
 K. B. Whaley,  H. L. Woodcock III,  P. M. Zimmerman,  S. Faraji,  
 P. M. W. Gill,  M. Head-Gordon,  J. M. Herbert,  A. I. Krylov

 Additional authors since Version 5.4.0: 
 Chandrima Chakravarty,  L. Cunha,  R. Kang,  Yongbin Kim,  S. Kotaru,  
 Shaozhi Li,  Xiangyuan Li,  F. Matz,  A. Molle,  V. Parravicini,  
 Haisheng Ren,  Hengyuan Shen,  Yingli Su,  Hung-Yi Tsai,  C. Utku,  
 Fang Wang,  Jeff Yang,  F. Zeller

 Contributors to earlier versions of Q-Chem not listed above: 
 R. D. Adamson,  B. Austin,  R. Baer,  J. Baker,  G. J. O. Beran,  
 K. Brandhorst,  S. T. Brown,  E. F. C. Byrd,  Arup K. Chakraborty,  
 G. K. L. Chan,  Chun-Min Chang,  Yunqing Chen,  C.-L. Cheng,  
 Siu Hung Chien,  D. M. Chipman,  D. L. Crittenden,  H. Dachsel,  
 R. J. Doerksen,  A. D. Dutoi,  R. G. Edgar,  J. Fosso-Tande,  
 L. Fusti-Molnar,  D. Ghosh,  A. Ghysels,  A. Golubeva-Zadorozhnaya,  
 J. Gonthier,  M. S. Gordon,  S. R. Gwaltney,  G. Hawkins,  J. E. Herr,  
 A. Heyden,  S. Hirata,  E. G. Hohenstein,  G. Kedziora,  F. J. Keil,  
 C. Kelley,  Jihan Kim,  R. A. King,  R. Z. Khaliullin,  P. P. Korambath,  
 W. Kurlancheek,  A. Laurent,  A. M. Lee,  M. S. Lee,  S. V. Levchenko,  
 Ching Yeh Lin,  D. Liotard,  E. Livshits,  R. C. Lochan,  I. Lotan,  
 L. A. Martinez-Martinez,  P. E. Maslen,  N. Nair,  D. P. O'Neill,  
 D. Neuhauser,  E. Neuscamman,  C. M. Oana,  R. Olivares-Amaya,  R. Olson,  
 T. M. Perrine,  B. Peters,  P. A. Pieniazek,  A. Prociuk,  Y. M. Rhee,  
 J. Ritchie,  M. A. Rohrdanz,  E. Rosta,  N. J. Russ,  H. F. Schaefer III,  
 M. W. Schmidt,  N. E. Schultz,  S. Sharma,  N. Shenvi,  C. D. Sherrill,  
 A. C. Simmonett,  A. Sodt,  T. Stein,  D. Stuck,  K. S. Thanthiriwatte,  
 V. Vanovschi,  L. Vogt,  Tao Wang,  A. Warshel,  M. A. Watson,  
 C. F. Williams,  Q. Wu,  X. Xu,  Jun Yang,  W. Zhang,  Yan Zhao

   Please cite Q-Chem as follows:
  "Software for the frontiers of quantum chemistry:
   An overview of developments in the Q-Chem 5 package"
   J. Chem. Phys. 155, 084801 (2021)
   https://doi.org/10.1063/5.0055522 (open access)

 Q-Chem 5.4.2 for Intel X86 EM64T Linux

 Parts of Q-Chem use Armadillo 9.900.5 (Nocturnal Misbehaviour).
 http://arma.sourceforge.net/

 Q-Chem begins on Tue Jan  9 13:03:24 2024  

 Host: 
0

     Scratch files written to /scratch/qchem680587//
 Dec1321 |scratch|qcdevops|jenkins|workspace|build_RNUM 5684   
 Processing $rem in /home/kchung25/qchem/5.4.0/config/preferences:
 Processing $rem in /home/kchung25/.qchemrc:

 Q-Chem warning in module libgen/rem_setup.C, line 3079:

 Neither GIA nor STOLL is specified by user. Use STOLL as the default


 Checking the input file for inconsistencies... 	...done.

--------------------------------------------------------------
User input:
--------------------------------------------------------------
$molecule
1 1
--
1 1
Li     0.000000     0.000000     0.000000
--
0 1
O     -0.640365     1.689708    -0.437904
H     -0.947848     2.436251     0.118257
H     -0.375875     2.071206    -1.343003
O     -0.938579    -0.924804    -1.558802
H     -1.517519    -0.334733    -2.007314
H     -0.339862    -1.423081    -2.166337
O      1.855579     0.005682    -0.344725
H      2.067217    -0.495737    -1.130002
H      2.498269    -0.321495     0.326646
O     -0.731485    -1.139576     1.603199
H     -0.628082    -0.542600     2.334045
H     -1.652610    -1.061287     1.341316
$end

$rem
JOBTYPE          eda
EDA2             1
METHOD           wB97M-V
BASIS            def2-TZVPPD
SYMMETRY         false
MEM_TOTAL        50000
MEM_STATIC       10000
THRESH           14
SCF_CONVERGENCE  8
XC_GRID          000099000590
NL_GRID          1
EDA_CLS_DISP     true
FD_MAT_VEC_PROD  FALSE
$end
--------------------------------------------------------------
 ----------------------------------------------------------------
             Standard Nuclear Orientation (Angstroms)
    I     Atom           X                Y                Z
 ----------------------------------------------------------------
    1      Li      0.0751566231     0.1510079707     0.1576336400
    2      O      -1.0114743237    -0.8341763375     1.3002558154
    3      H      -0.9257373377    -1.0597013686     2.2505057476
    4      H      -1.9939939398    -0.9228092792     1.0522653125
    5      O      -0.2344765988    -1.0789822168    -1.4415249073
    6      H      -0.7143590840    -1.8485257144    -1.1924587945
    7      H      -0.5997560499    -0.6322978492    -2.2433258735
    8      O      -0.8083031510     1.7858247770    -0.1723873798
    9      H      -1.1738502187     1.8142349460    -1.0546797503
   10      H      -0.3359699069     2.6459033313    -0.0829422460
   11      O       2.1718648370     0.1290198901     0.2429682108
   12      H       2.3358164236     0.3655712187     1.1476072255
   13      H       2.2414941369    -0.8288880990     0.2156335462
 ----------------------------------------------------------------
 Molecular Point Group                 C1    NOp =  1
 Largest Abelian Subgroup              C1    NOp =  1
 Nuclear Repulsion Energy =         162.89572204 hartrees
 There are       21 alpha and       21 beta electrons
 Requested basis set is def2-TZVPPD
 There are 122 shells and 318 basis functions

 Q-Chem warning in module libmdc/get_mega.C, line 171:

 Allowed MEM_STATIC has been capped at MEM_STATIC=8191.
 Reduce the value of MEM_STATIC to silence this warning.


 Total QAlloc Memory Limit  50000 MB
 Mega-Array Size      8007 MB
 MEM_STATIC part      8191 MB

                       Distance Matrix (Angstroms)
             Li(  1)   O (  2)   H (  3)   H (  4)   O (  5)   H (  6)
   O (  2)  1.859285
   H (  3)  2.616815  0.980402
   H (  4)  2.496965  1.017202  1.611115
   O (  5)  2.041092  2.860248  3.756235  3.056024
   H (  6)  2.538547  2.707547  3.538493  2.744668  0.940488
   H (  7)  2.614131  3.573127  4.525866  3.590156  0.987847  1.611417
   O (  8)  1.887337  3.012368  3.739147  3.200365  3.185452  3.775960
   H (  9)  2.407498  3.547699  4.386949  3.550108  3.066395  3.694040
   H ( 10)  2.539962  3.805325  4.418632  4.095540  3.966210  4.644793
   O ( 11)  2.098559  3.489879  3.877938  4.372149  3.176046  3.781723
   H ( 12)  2.477230  3.559080  3.726328  4.518437  3.923869  4.436407
   H ( 13)  2.378356  3.429029  3.771649  4.318348  2.989842  3.429206
             H (  7)   O (  8)   H (  9)   H ( 10)   O ( 11)   H ( 12)
   O (  8)  3.190548
   H (  9)  2.779926  0.955443
   H ( 10)  3.934901  0.985309  1.529049
   O ( 11)  3.800414  3.434956  3.964549  3.567934
   H ( 12)  4.594753  3.693913  4.389357  3.721909  0.949320
   H ( 13)  3.762689  4.035907  4.501597  4.336663  0.960824  1.517961

 
 A cutoff of  1.0D-14 yielded   7004 shell pairs
 There are     47606 function pairs (     57876 Cartesian)
 Smallest overlap matrix eigenvalue = 8.13E-05

 Scale SEOQF with 1.000000e-01/1.000000e-01/1.000000e-01

 Standard Electronic Orientation quadrupole field applied
 Nucleus-field energy     =     0.0000000016 hartrees

 -----------------------------------------------------------------------
  General SCF calculation program by
  Eric Jon Sundstrom, Paul Horn, Yuezhi Mao, Dmitri Zuev, Alec White,
  David Stuck, Shaama M.S., Shane Yost, Joonho Lee, David Small,
  Daniel Levine, Susi Lehtola, Hugh Burton, Evgeny Epifanovsky,
  Bang C. Huynh
 -----------------------------------------------------------------------
================================================================
                 ALMO-EDA with the EDA2 driver                  
================================================================
 The second-generation ALMO-EDA (for DFT):                      
 P. R. Horn, Y. Mao and M. Head-Gordon, PCCP, 18, 23067 (2016)  
 Y. Mao et al. Annu. Rev. Phys. Chem. 72, 641 (2021)            
 Decomposition of the frozen energy:                            
 P. R. Horn, Y. Mao and M. Head-Gordon, JCP, 144, 114107 (2016) 
 FERF model for polarization:                                   
 P. R. Horn and M. Head-Gordon, JCP, 143, 114111 (2015)         
================================================================
 Using eda2 option set 1
 Option set summary: Frozen orbital wavefunction, initial wavefunction decomposition, and nDQ polarization.
--------------------------------
Printing EDA Options
--------------------------------
eda_child_super_basis      0
fragmo_guess_mode          0
child_mp                   1
child_mp_orders            232
cls_elec                   1
cls_disp                   1
scfmi_mode                 1
scfmi_occs                 0
scfmi_virts                0
frz_relax                  0
frz_relax_method           0
dc_pen_start               0
dc_pen_conv                0
dc_pen_increment           0
dc_pen_steps               0
dc_pen_thresh_factor       0
dc_pen_pre_newton_thresh   0
frz_ortho_decomp           1
frz_ortho_decomp_conv      6
plot_mo_ortho_frz          0
frgm_method                2
scfmi_freeze_ss            0
separate_rehyb             0
plot_diff_den              0
eda_nocv                   0
eda_vct_relax              1
disp_free_x                0
disp_free_c                0
eda_bsse                   0
eda_pct_a                  0
eda_covp                   0
--------------------------------
Attempting to make child job directory: /scratch/qchem680587//Frg1/
Attempting to make child job directory: /scratch/qchem680587//Frg2/
Creating input file /scratch/qchem680587/Frg1.input
using default PutDataFrgm: nothing
calling putenv with: QCSCRATCH=/scratch/qchem680587/ 
Spawning Job For Fragment 0
Done Job For Fragment 0
calling putenv with: QCSCRATCH=/scratch 
calling putenv with: QCTHREADS=6 
Creating input file /scratch/qchem680587/Frg2.input
using default PutDataFrgm: nothing
calling putenv with: QCSCRATCH=/scratch/qchem680587/ 
Spawning Job For Fragment 1
Done Job For Fragment 1
calling putenv with: QCSCRATCH=/scratch 
calling putenv with: QCTHREADS=6 
Doing General SCFMI
 Exchange:     0.1500 Hartree-Fock + 1.0000 wB97M-V + LR-HF
 Correlation:  1.0000 wB97M-V
 Using Euler-Maclaurin-Lebedev (99,590) quadrature formula
 Nonlocal Correlation:  VV10 with C = 0.0100 and b = 6.00 and scale = 1.00000
 Grid used for NLC:  SG-1 standard quadrature
performing fock build before subrot guess so that all methods have access
Printing subrot_rss_gen Method Specification:
Occupied Subspace Method is 0
Virtual Subspace Method is 0
Energy of the unrelaxed supersystem initial determinant -313.099778133009
write pseudocanon occs and virts to disk
write pseudocanon orbital energies to disk
Tolerance of ortho_decomp_scf: 1.00e-06
GDM subspace size: 20
Beginning the Orthogonal Decomposition of the Initial Supersystem Wavefunction
    1    -312.9358555832      2.04e-01     ortho_decomp Preconditoned Steepest Descent
    2    -312.9379029360      2.29e-03     ortho_decomp BFGS Step
    3    -312.9379037128      7.78e-05     ortho_decomp BFGS Step
    4    -312.9379037141      2.98e-06     ortho_decomp BFGS Step
    5    -312.9379037141      5.32e-08     ortho_decomp 00000 Convergence criterion met
 Hartree-Fock
 Hartree-Fock
 Hartree-Fock
 Exchange:     0.1500 Hartree-Fock + 1.0000 wB97M-V + LR-HF
 Correlation:  1.0000 wB97M-V
 Using Euler-Maclaurin-Lebedev (99,590) quadrature formula
 Nonlocal Correlation:  VV10 with C = 0.0100 and b = 6.00 and scale = 1.00000
 Grid used for NLC:  SG-1 standard quadrature
 Long-range K will be added via erf
 Coulomb attenuation parameter = 0.3 bohr**(-1)
 Nonlocal correlation = 1.752822836758e-01
Doing General SCFMI
 Exchange:     0.1500 Hartree-Fock + 1.0000 wB97M-V + LR-HF
 Correlation:  1.0000 wB97M-V
 Using Euler-Maclaurin-Lebedev (99,590) quadrature formula
 Nonlocal Correlation:  VV10 with C = 0.0100 and b = 6.00 and scale = 1.00000
 Grid used for NLC:  SG-1 standard quadrature
performing fock build at end of subrot_r(subrot) constructor so that all methods have access
<S^2> of initial wavefunction before polarization iterations 0.0000000000
Beginning iterations for the determination of the polarized wavefunction
Energy prior to optimization (guess energy) = -313.099778133009
Begin Timing: Total SCF Calculation
begin iterations for algorithm: DIIS         
the SCF tolerance is set to 1.00e-08
    1    -313.0997781330      1.50e-03     00000 
    2    -313.1497229355      7.30e-04     00000 
    3    -313.1551227131      2.95e-04     00000 
    4    -313.1560504594      6.07e-05     00000 
    5    -313.1561107517      9.69e-06     00000 
    6    -313.1561147809      4.63e-06     00000 
    7    -313.1561151353      1.48e-06     00000 
    8    -313.1561152076      1.62e-07     00000 
    9    -313.1561152091      4.88e-08     00000 
   10    -313.1561152092      2.09e-08     00000 
   11    -313.1561152092      8.32e-09     00000 Convergence criterion met
write pseudocanon occs and virts to disk
write pseudocanon orbital energies to disk
Timing for Total SCF: 92.00s (wall), 555.85s (cpu)
<S^2> of polarized wavefunction after polarization iterations 0.0000000000
relaxing scfmi constraint to allow all rotations in the entire AO span
Doing General SCFMI
 Exchange:     0.1500 Hartree-Fock + 1.0000 wB97M-V + LR-HF
 Correlation:  1.0000 wB97M-V
 Using Euler-Maclaurin-Lebedev (99,590) quadrature formula
 Nonlocal Correlation:  VV10 with C = 0.0100 and b = 6.00 and scale = 1.00000
 Grid used for NLC:  SG-1 standard quadrature
performing fock build at end of subrot_r(subrot) constructor so that all methods have access
<S^2> of polarized wavefunction before ct-allowed iterations 0.0000000000
Beginning iterations for the determination of the CT-Allowed wavefunction
Energy prior to optimization (guess energy) = -313.156115209201
Begin Timing: Total SCF Calculation
begin iterations for algorithm: DIIS         
the SCF tolerance is set to 1.00e-08
    1    -313.1561152092      5.24e-04     00000 
    2    -313.1641170274      4.25e-05     00000 
    3    -313.1642208653      1.02e-05     00000 
    4    -313.1642229697      7.72e-06     00000 
    5    -313.1642248195      6.99e-07     00000 
    6    -313.1642248407      1.01e-07     00000 
    7    -313.1642248418      4.69e-08     00000 
    8    -313.1642248419      1.74e-08     00000 
    9    -313.1642248419      2.00e-09     00000 Convergence criterion met
write pseudocanon occs and virts to disk
write pseudocanon orbital energies to disk
Timing for Total SCF: 74.00s (wall), 440.32s (cpu)
<S^2> of ct_allowed wavefunction after ct-allowed iterations 0.0000000000

================================
        Results of EDA2         
================================
Basic EDA Quantities
--------------------
Fragment Energies (Ha):
1   -7.2758394981
2 -305.7265117785
--------------------
  E_prp (kJ/mol) = 0.0000
  E_frz (kJ/mol) = -255.7972
  E_pol (kJ/mol) = -147.9147
  E_vct (kJ/mol) = -21.2921
  E_int (kJ/mol) = -425.0041
--------------------


Decomposition of frozen interaction energy
--------------------
  --------------------
  Orthogonal Frozen Decomposition:
  --------------------
     E_elec   (ELEC)   (kJ/mol) = -392.3117
     E_pauli  (PAULI)  (kJ/mol) = 149.7546
     E_disp   (DISP)   (kJ/mol) = -13.2401
  --------------------
  Classical Frozen Decomposition:
  --------------------
     E_cls_elec  (CLS ELEC)  (kJ/mol) = -370.5563
     E_mod_pauli (MOD PAULI) (kJ/mol) = 126.0993 (FRZ - CLS ELEC - CLS DISP)
     E_cls_disp  (CLS DISP)  (kJ/mol) = -11.3402
  --------------------
--------------------

Simplified EDA Summary (kJ/mol)
--------------------
 PREPARATION      0.0000
 FROZEN           -255.7972 (ELEC + PAULI + DISP)
[ELEC + PAULI = -244.4570, DISP = -11.3402]
 POLARIZATION    -147.9147
 CHARGE TRANSFER -21.2921
 TOTAL           -425.0041     (PRP + FRZ + POL + CT)
--------------------
 
 --------------------------------------------------------------
 
                    Orbital Energies (a.u.)
 --------------------------------------------------------------
 
 Alpha MOs
 -- Occupied --
-19.5344 -19.5282 -19.5190 -19.5125  -2.2175  -1.3326  -1.3252  -1.3222
 -1.3204  -0.8402  -0.8286  -0.8231  -0.8185  -0.7221  -0.7084  -0.6899
 -0.6779  -0.6302  -0.6225  -0.6146  -0.6107
 -- Virtual --
 -0.1359  -0.1085  -0.1019  -0.0916  -0.0537  -0.0500  -0.0460  -0.0431
 -0.0281  -0.0110  -0.0073  -0.0044   0.0005   0.0030   0.0106   0.0134
  0.0209   0.0243   0.0290   0.0424   0.0557   0.0672   0.0678   0.0873
  0.0976   0.1113   0.1127   0.1335   0.1348   0.1394   0.1460   0.1531
  0.1653   0.1716   0.1813   0.1852   0.1890   0.1983   0.2016   0.2101
  0.2192   0.2228   0.2245   0.2276   0.2381   0.2389   0.2452   0.2492
  0.2574   0.2657   0.2699   0.2758   0.2801   0.2893   0.3005   0.3062
  0.3203   0.3281   0.3380   0.3523   0.3667   0.3711   0.3824   0.4080
  0.4159   0.4234   0.4352   0.4433   0.4579   0.4658   0.5014   0.5047
  0.5147   0.5394   0.5582   0.5618   0.5675   0.5710   0.5824   0.5966
  0.6075   0.6136   0.6411   0.6684   0.6713   0.6806   0.6912   0.7098
  0.7212   0.7272   0.7397   0.7614   0.7782   0.8018   0.8046   0.8215
  0.8460   0.8548   0.8833   0.9168   0.9343   0.9448   0.9493   0.9832
  0.9847   0.9880   1.0093   1.0319   1.0394   1.0645   1.0926   1.1098
  1.1265   1.1402   1.1548   1.1615   1.1682   1.1863   1.2003   1.2141
  1.2332   1.2509   1.2642   1.2841   1.2897   1.3195   1.3263   1.3477
  1.3598   1.3630   1.3880   1.4428   1.7376   1.7714   1.8000   1.8213
  1.8298   1.8565   1.8699   1.8804   1.9116   1.9376   1.9698   1.9809
  2.0061   2.0774   2.1101   2.1254   2.1352   2.1593   2.1712   2.2407
  2.2571   2.5180   2.5360   2.5810   2.6376   2.6647   2.6913   2.7133
  2.7713   2.8137   2.8617   2.9072   2.9275   3.0271   3.0689   3.0959
  3.1138   3.1267   3.1320   3.1561   3.1851   3.1969   3.2052   3.2154
  3.2199   3.2384   3.2474   3.2558   3.2814   3.2889   3.2932   3.3042
  3.3170   3.3262   3.3343   3.3418   3.3665   3.3928   3.4230   3.4397
  3.4906   3.5373   3.5433   3.5669   3.5852   3.7477   3.7755   3.7880
  3.8162   3.8434   3.8640   3.9041   3.9310   3.9416   3.9591   3.9612
  3.9863   3.9978   4.0163   4.0270   4.0357   4.0659   4.0786   4.0849
  4.0938   4.0985   4.1112   4.1262   4.1348   4.1485   4.1569   4.1832
  4.1954   4.5036   4.5394   4.5659   4.5687   4.5971   4.6149   4.6379
  4.6562   4.8253   4.8468   4.8987   4.9334   5.0085   5.0586   5.0828
  5.1292   5.4294   5.4599   5.4992   5.5505   5.8960   5.9155   6.0849
  6.1381   6.1550   6.2019   6.2177   6.2532   6.3361   6.3632   6.3730
  6.4057   6.4208   6.4593   6.4641   6.4716   6.4945   6.5041   6.5345
  6.5447   6.5652   6.5784   6.5884   6.6360   6.6483   6.6799   6.6964
  6.7167   6.7391   6.7562   6.7654   6.8759   6.9016   6.9456   7.0029
  7.2612   7.2850   7.3126   7.3541   7.3869   7.4139   7.4728   7.5046
  7.6605   7.6938   7.7305   7.8017  15.0253  44.1516  44.2088  44.2532
 44.3316
 --------------------------------------------------------------
 
          Ground-State Mulliken Net Atomic Charges

     Atom                 Charge (a.u.)
  ----------------------------------------
      1 Li                    0.829896
      2 O                    -0.382627
      3 H                     0.182087
      4 H                     0.241552
      5 O                    -0.375391
      6 H                     0.190623
      7 H                     0.218184
      8 O                    -0.386792
      9 H                     0.194022
     10 H                     0.235821
     11 O                    -0.389198
     12 H                     0.217061
     13 H                     0.224761
  ----------------------------------------
  Sum of atomic charges =     1.000000

 -----------------------------------------------------------------
                    Cartesian Multipole Moments
 -----------------------------------------------------------------
    Charge (ESU x 10^10)
                 4.8032
    Dipole Moment (Debye)
         X      -2.1755      Y      -0.2374      Z       0.9622
       Tot       2.3906
    Quadrupole Moments (Debye-Ang)
        XX     -16.8988     XY       1.7352     YY     -13.0227
        XZ       5.9561     YZ      -3.5745     ZZ     -12.1389
    Octopole Moments (Debye-Ang^2)
       XXX      -5.9734    XXY     -12.9418    XYY      -5.5918
       YYY      18.5366    XXZ      12.0710    XYZ       6.5045
       YYZ      -4.4905    XZZ     -10.4027    YZZ      -5.9340
       ZZZ       3.9754
    Hexadecapole Moments (Debye-Ang^3)
      XXXX    -243.5391   XXXY       1.7957   XXYY     -71.8758
      XYYY       1.7899   YYYY    -140.2674   XXXZ      16.5058
      XXYZ      -7.1347   XYYZ      11.1534   YYYZ      -4.6552
      XXZZ     -52.8691   XYZZ      12.5190   YYZZ     -55.4794
      XZZZ       9.8055   YZZZ     -20.0969   ZZZZ    -105.5753
 -----------------------------------------------------------------
 Total job time:  891.31s(wall), 1896.22s(cpu) 
 Tue Jan  9 13:18:16 2024

        *************************************************************
        *                                                           *
        *  Thank you very much for using Q-Chem.  Have a nice day.  *
        *                                                           *
        *************************************************************


