
Running Job 1 of 1 118_Li-Water_Cls_049_almo.in
qchem 118_Li-Water_Cls_049_almo.in_694964.0 /scratch/qchem694964/ 6
/home/kchung25/qchem/5.4.0/exe/qcprog.exe_s 118_Li-Water_Cls_049_almo.in_694964.0 /scratch/qchem694964/
                  Welcome to Q-Chem
     A Quantum Leap Into The Future Of Chemistry


 Q-Chem 5.4, Q-Chem, Inc., Pleasanton, CA (2021)

 E. Epifanovsky,  A. T. B. Gilbert,  Xintian Feng,  Joonho Lee,  Yuezhi Mao,  
 N. Mardirossian,  P. Pokhilko,  A. White,  M. Wormit,  M. P. Coons,  
 A. L. Dempwolff,  Zhengting Gan,  D. Hait,  P. R. Horn,  L. D. Jacobson,  
 I. Kaliman,  J. Kussmann,  A. W. Lange,  Ka Un Lao,  D. S. Levine,  Jie Liu,  
 S. C. McKenzie,  A. F. Morrison,  K. Nanda,  F. Plasser,  D. R. Rehn,  
 M. L. Vidal,  Zhi-Qiang You,  Ying Zhu,  B. Alam,  B. Albrecht,  
 A. Aldossary,  E. Alguire,  J. H. Andersen,  D. Barton,  K. Begam,  A. Behn,  
 Y. A. Bernard,  E. J. Berquist,  H. Burton,  A. Carreras,  K. Carter-Fenk,  
 Romit Chakraborty,  A. D. Chien,  K. D. Closser,  V. Cofer-Shabica,  
 S. Dasgupta,  Jia Deng,  M. de Wergifosse,  M. Diedenhofen,  Hainam Do,  
 S. Ehlert,  Po-Tung Fang,  S. Fatehi,  Qingguo Feng,  T. Friedhoff,  
 J. Gayvert,  Qinghui Ge,  G. Gidofalvi,  M. Goldey,  J. Gomes,  
 C. Gonzalez-Espinoza,  S. Gulania,  A. Gunina,  M. W. D. Hanson-Heine,  
 P. H. P. Harbach,  A. W. Hauser,  M. F. Herbst,  M. Hernandez Vera,  
 M. Hodecker,  Z. C. Holden,  S. Houck,  Xunkun Huang,  Kerwin Hui,  
 B. C. Huynh,  M. Ivanov,  Hyunjun Ji,  Hanjie Jiang,  B. Kaduk,  S. Kaehler,  
 K. Khistyaev,  Jaehoon Kim,  P. Klunzinger,  Z. Koczor-Benda,  
 Joong Hoon Koh,  D. Kosenkov,  L. Koulias,  T. Kowalczyk,  C. M. Krauter,  
 K. Kue,  A. Kunitsa,  T. Kus,  A. Landau,  K. V. Lawler,  D. Lefrancois,  
 S. Lehtola,  Rain Li,  Yi-Pei Li,  Jiashu Liang,  M. Liebenthal,  
 Hung-Hsuan Lin,  You-Sheng Lin,  Fenglai Liu,  Kuan-Yu Liu,  
 M. Loipersberger,  A. Luenser,  A. Manjanath,  P. Manohar,  E. Mansoor,  
 S. F. Manzer,  Shan-Ping Mao,  A. V. Marenich,  T. Markovich,  S. Mason,  
 S. A. Maurer,  P. F. McLaughlin,  M. F. S. J. Menger,  J.-M. Mewes,  
 S. A. Mewes,  P. Morgante,  J. W. Mullinax,  K. J. Oosterbaan,  G. Paran,  
 Alexander C. Paul,  Suranjan K. Paul,  F. Pavosevic,  Zheng Pei,  S. Prager,  
 E. I. Proynov,  E. Ramos,  B. Rana,  A. E. Rask,  A. Rettig,  R. M. Richard,  
 F. Rob,  E. Rossomme,  T. Scheele,  M. Scheurer,  M. Schneider,  
 N. Sergueev,  S. M. Sharada,  W. Skomorowski,  D. W. Small,  C. J. Stein,  
 Yu-Chuan Su,  E. J. Sundstrom,  Zhen Tao,  J. Thirman,  T. Tsuchimochi,  
 N. M. Tubman,  S. P. Veccham,  O. Vydrov,  J. Wenzel,  J. Witte,  A. Yamada,  
 Kun Yao,  S. Yeganeh,  S. R. Yost,  A. Zech,  Igor Ying Zhang,  Xing Zhang,  
 Yu Zhang,  D. Zuev,  A. Aspuru-Guzik,  A. T. Bell,  N. A. Besley,  
 K. B. Bravaya,  B. R. Brooks,  D. Casanova,  Jeng-Da Chai,  S. Coriani,  
 C. J. Cramer,  A. E. DePrince, III,  R. A. DiStasio Jr.,  A. Dreuw,  
 B. D. Dunietz,  T. R. Furlani,  W. A. Goddard III,  S. Grimme,  
 S. Hammes-Schiffer,  T. Head-Gordon,  W. J. Hehre,  Chao-Ping Hsu,  
 T.-C. Jagau,  Yousung Jung,  A. Klamt,  Jing Kong,  D. S. Lambrecht,  
 WanZhen Liang,  N. J. Mayhall,  C. W. McCurdy,  J. B. Neaton,  T. Neudecker,  
 C. Ochsenfeld,  J. A. Parkhill,  R. Peverati,  V. A. Rassolov,  Yihan Shao,  
 L. V. Slipchenko,  R. P. Steele,  J. E. Subotnik,  A. J. W. Thom,  
 A. Tkatchenko,  D. G. Truhlar,  T. Van Voorhis,  T. A. Wesolowski,  
 K. B. Whaley,  H. L. Woodcock III,  P. M. Zimmerman,  S. Faraji,  
 P. M. W. Gill,  M. Head-Gordon,  J. M. Herbert,  A. I. Krylov

 Additional authors since Version 5.4.0: 
 Chandrima Chakravarty,  L. Cunha,  R. Kang,  Yongbin Kim,  S. Kotaru,  
 Shaozhi Li,  Xiangyuan Li,  F. Matz,  A. Molle,  V. Parravicini,  
 Haisheng Ren,  Hengyuan Shen,  Yingli Su,  Hung-Yi Tsai,  C. Utku,  
 Fang Wang,  Jeff Yang,  F. Zeller

 Contributors to earlier versions of Q-Chem not listed above: 
 R. D. Adamson,  B. Austin,  R. Baer,  J. Baker,  G. J. O. Beran,  
 K. Brandhorst,  S. T. Brown,  E. F. C. Byrd,  Arup K. Chakraborty,  
 G. K. L. Chan,  Chun-Min Chang,  Yunqing Chen,  C.-L. Cheng,  
 Siu Hung Chien,  D. M. Chipman,  D. L. Crittenden,  H. Dachsel,  
 R. J. Doerksen,  A. D. Dutoi,  R. G. Edgar,  J. Fosso-Tande,  
 L. Fusti-Molnar,  D. Ghosh,  A. Ghysels,  A. Golubeva-Zadorozhnaya,  
 J. Gonthier,  M. S. Gordon,  S. R. Gwaltney,  G. Hawkins,  J. E. Herr,  
 A. Heyden,  S. Hirata,  E. G. Hohenstein,  G. Kedziora,  F. J. Keil,  
 C. Kelley,  Jihan Kim,  R. A. King,  R. Z. Khaliullin,  P. P. Korambath,  
 W. Kurlancheek,  A. Laurent,  A. M. Lee,  M. S. Lee,  S. V. Levchenko,  
 Ching Yeh Lin,  D. Liotard,  E. Livshits,  R. C. Lochan,  I. Lotan,  
 L. A. Martinez-Martinez,  P. E. Maslen,  N. Nair,  D. P. O'Neill,  
 D. Neuhauser,  E. Neuscamman,  C. M. Oana,  R. Olivares-Amaya,  R. Olson,  
 T. M. Perrine,  B. Peters,  P. A. Pieniazek,  A. Prociuk,  Y. M. Rhee,  
 J. Ritchie,  M. A. Rohrdanz,  E. Rosta,  N. J. Russ,  H. F. Schaefer III,  
 M. W. Schmidt,  N. E. Schultz,  S. Sharma,  N. Shenvi,  C. D. Sherrill,  
 A. C. Simmonett,  A. Sodt,  T. Stein,  D. Stuck,  K. S. Thanthiriwatte,  
 V. Vanovschi,  L. Vogt,  Tao Wang,  A. Warshel,  M. A. Watson,  
 C. F. Williams,  Q. Wu,  X. Xu,  Jun Yang,  W. Zhang,  Yan Zhao

   Please cite Q-Chem as follows:
  "Software for the frontiers of quantum chemistry:
   An overview of developments in the Q-Chem 5 package"
   J. Chem. Phys. 155, 084801 (2021)
   https://doi.org/10.1063/5.0055522 (open access)

 Q-Chem 5.4.2 for Intel X86 EM64T Linux

 Parts of Q-Chem use Armadillo 9.900.5 (Nocturnal Misbehaviour).
 http://arma.sourceforge.net/

 Q-Chem begins on Tue Jan  9 19:57:24 2024  

 Host: 
0

     Scratch files written to /scratch/qchem694964//
 Dec1321 |scratch|qcdevops|jenkins|workspace|build_RNUM 5684   
 Processing $rem in /home/kchung25/qchem/5.4.0/config/preferences:
 Processing $rem in /home/kchung25/.qchemrc:

 Q-Chem warning in module libgen/rem_setup.C, line 3079:

 Neither GIA nor STOLL is specified by user. Use STOLL as the default


 Checking the input file for inconsistencies... 	...done.

--------------------------------------------------------------
User input:
--------------------------------------------------------------
$molecule
1 1
--
1 1
Li     0.000000     0.000000     0.000000
--
0 1
O     -0.960185    -1.720806     0.734715
H     -1.609753    -1.980636     0.053101
H     -1.464227    -1.639800     1.581140
O     -0.437682     0.868054     1.944262
H      0.112980     1.630091     1.719873
H      0.152970     0.176865     2.309788
O     -1.028560     1.162893    -1.082054
H     -1.748052     1.570993    -0.564156
H     -1.147301     1.431115    -1.976130
O      1.527560    -0.693332    -0.338641
H      1.804729    -1.158174    -1.131997
H      2.284838    -0.148433    -0.221551
$end

$rem
JOBTYPE          eda
EDA2             1
METHOD           wB97M-V
BASIS            def2-TZVPPD
SYMMETRY         false
MEM_TOTAL        50000
MEM_STATIC       10000
THRESH           14
SCF_CONVERGENCE  8
XC_GRID          000099000590
NL_GRID          1
EDA_CLS_DISP     true
FD_MAT_VEC_PROD  FALSE
$end
--------------------------------------------------------------
 ----------------------------------------------------------------
             Standard Nuclear Orientation (Angstroms)
    I     Atom           X                Y                Z
 ----------------------------------------------------------------
    1      Li      0.0348507201    -0.3436157084     0.0623868168
    2      O      -1.1670093751     0.8375329748    -1.1959274344
    3      H      -0.9244105910     0.5932173846    -2.1099862852
    4      H      -1.0687829679     1.8192897241    -1.1362545891
    5      O       0.5097303290     1.5198549037     1.0758978625
    6      H       0.9596616840     1.0193726413     1.7696980727
    7      H      -0.4411824501     1.5556419971     1.3097898163
    8      O       1.7632965217    -0.7871325077    -0.5675851045
    9      H       2.3193807514     0.0113584948    -0.6425193076
   10      H       2.2624211808    -1.5034787177    -0.9184939847
   11      O      -1.1812908968    -1.3914262073     0.6556146557
   12      H      -1.5150427043    -2.1983917496     0.2559512641
   13      H      -1.0944096937    -1.6967959580     1.5406547280
 ----------------------------------------------------------------
 Molecular Point Group                 C1    NOp =  1
 Largest Abelian Subgroup              C1    NOp =  1
 Nuclear Repulsion Energy =         164.54840059 hartrees
 There are       21 alpha and       21 beta electrons
 Requested basis set is def2-TZVPPD
 There are 122 shells and 318 basis functions

 Q-Chem warning in module libmdc/get_mega.C, line 171:

 Allowed MEM_STATIC has been capped at MEM_STATIC=8191.
 Reduce the value of MEM_STATIC to silence this warning.


 Total QAlloc Memory Limit  50000 MB
 Mega-Array Size      8007 MB
 MEM_STATIC part      8191 MB

                       Distance Matrix (Angstroms)
             Li(  1)   O (  2)   H (  3)   H (  4)   O (  5)   H (  6)
   O (  2)  2.103077
   H (  3)  2.552850  0.976754
   H (  4)  2.707934  0.988461  1.572339
   O (  5)  2.173761  2.904860  3.614592  2.734042
   H (  6)  2.372325  3.653865  4.333969  3.633045  0.966581
   H (  7)  2.321595  2.705758  3.585337  2.539001  0.979909  1.568906
   O (  8)  1.892379  3.408965  3.392364  3.890694  3.097524  3.061402
   H (  9)  2.417018  3.625430  3.607520  3.871956  2.916051  2.946815
   H ( 10)  2.696197  4.161526  3.996459  4.710109  4.023689  3.910030
   O ( 11)  1.711381  2.897701  3.413700  3.678607  3.392897  3.411277
   H ( 12)  2.424836  3.383182  3.706695  4.275412  4.312468  4.332390
   H ( 13)  2.300348  3.730546  4.312800  4.419203  3.624377  3.413099
             H (  7)   O (  8)   H (  9)   H ( 10)   O ( 11)   H ( 12)
   O (  8)  3.724628
   H (  9)  3.717127  0.975927
   H ( 10)  4.651123  0.940965  1.540824
   O ( 11)  3.108202  3.245302  3.988441  3.788077
   H ( 12)  4.044320  3.662973  4.515866  4.016399  0.960372
   H ( 13)  3.325411  3.665876  4.397500  4.165705  0.940263  1.441872

 
 A cutoff of  1.0D-14 yielded   7025 shell pairs
 There are     47859 function pairs (     58238 Cartesian)
 Smallest overlap matrix eigenvalue = 6.27E-05

 Scale SEOQF with 1.000000e-01/1.000000e-01/1.000000e-01

 Standard Electronic Orientation quadrupole field applied
 Nucleus-field energy     =     0.0000000024 hartrees

 -----------------------------------------------------------------------
  General SCF calculation program by
  Eric Jon Sundstrom, Paul Horn, Yuezhi Mao, Dmitri Zuev, Alec White,
  David Stuck, Shaama M.S., Shane Yost, Joonho Lee, David Small,
  Daniel Levine, Susi Lehtola, Hugh Burton, Evgeny Epifanovsky,
  Bang C. Huynh
 -----------------------------------------------------------------------
================================================================
                 ALMO-EDA with the EDA2 driver                  
================================================================
 The second-generation ALMO-EDA (for DFT):                      
 P. R. Horn, Y. Mao and M. Head-Gordon, PCCP, 18, 23067 (2016)  
 Y. Mao et al. Annu. Rev. Phys. Chem. 72, 641 (2021)            
 Decomposition of the frozen energy:                            
 P. R. Horn, Y. Mao and M. Head-Gordon, JCP, 144, 114107 (2016) 
 FERF model for polarization:                                   
 P. R. Horn and M. Head-Gordon, JCP, 143, 114111 (2015)         
================================================================
 Using eda2 option set 1
 Option set summary: Frozen orbital wavefunction, initial wavefunction decomposition, and nDQ polarization.
--------------------------------
Printing EDA Options
--------------------------------
eda_child_super_basis      0
fragmo_guess_mode          0
child_mp                   1
child_mp_orders            232
cls_elec                   1
cls_disp                   1
scfmi_mode                 1
scfmi_occs                 0
scfmi_virts                0
frz_relax                  0
frz_relax_method           0
dc_pen_start               0
dc_pen_conv                0
dc_pen_increment           0
dc_pen_steps               0
dc_pen_thresh_factor       0
dc_pen_pre_newton_thresh   0
frz_ortho_decomp           1
frz_ortho_decomp_conv      6
plot_mo_ortho_frz          0
frgm_method                2
scfmi_freeze_ss            0
separate_rehyb             0
plot_diff_den              0
eda_nocv                   0
eda_vct_relax              1
disp_free_x                0
disp_free_c                0
eda_bsse                   0
eda_pct_a                  0
eda_covp                   0
--------------------------------
Attempting to make child job directory: /scratch/qchem694964//Frg1/
Attempting to make child job directory: /scratch/qchem694964//Frg2/
Creating input file /scratch/qchem694964/Frg1.input
using default PutDataFrgm: nothing
calling putenv with: QCSCRATCH=/scratch/qchem694964/ 
Spawning Job For Fragment 0
Done Job For Fragment 0
calling putenv with: QCSCRATCH=/scratch 
calling putenv with: QCTHREADS=6 
Creating input file /scratch/qchem694964/Frg2.input
using default PutDataFrgm: nothing
calling putenv with: QCSCRATCH=/scratch/qchem694964/ 
Spawning Job For Fragment 1
Done Job For Fragment 1
calling putenv with: QCSCRATCH=/scratch 
calling putenv with: QCTHREADS=6 
Doing General SCFMI
 Exchange:     0.1500 Hartree-Fock + 1.0000 wB97M-V + LR-HF
 Correlation:  1.0000 wB97M-V
 Using Euler-Maclaurin-Lebedev (99,590) quadrature formula
 Nonlocal Correlation:  VV10 with C = 0.0100 and b = 6.00 and scale = 1.00000
 Grid used for NLC:  SG-1 standard quadrature
performing fock build before subrot guess so that all methods have access
Printing subrot_rss_gen Method Specification:
Occupied Subspace Method is 0
Virtual Subspace Method is 0
Energy of the unrelaxed supersystem initial determinant -313.090293441269
write pseudocanon occs and virts to disk
write pseudocanon orbital energies to disk
Tolerance of ortho_decomp_scf: 1.00e-06
GDM subspace size: 20
Beginning the Orthogonal Decomposition of the Initial Supersystem Wavefunction
    1    -312.9292351950      2.39e-01     ortho_decomp Preconditoned Steepest Descent
    2    -312.9320366560      2.75e-03     ortho_decomp BFGS Step
    3    -312.9320377369      9.38e-05     ortho_decomp BFGS Step
    4    -312.9320377388      3.84e-06     ortho_decomp BFGS Step
    5    -312.9320377388      6.87e-08     ortho_decomp 00000 Convergence criterion met
 Hartree-Fock
 Hartree-Fock
 Hartree-Fock
 Exchange:     0.1500 Hartree-Fock + 1.0000 wB97M-V + LR-HF
 Correlation:  1.0000 wB97M-V
 Using Euler-Maclaurin-Lebedev (99,590) quadrature formula
 Nonlocal Correlation:  VV10 with C = 0.0100 and b = 6.00 and scale = 1.00000
 Grid used for NLC:  SG-1 standard quadrature
 Long-range K will be added via erf
 Coulomb attenuation parameter = 0.3 bohr**(-1)
 Nonlocal correlation = 1.751364290505e-01
Doing General SCFMI
 Exchange:     0.1500 Hartree-Fock + 1.0000 wB97M-V + LR-HF
 Correlation:  1.0000 wB97M-V
 Using Euler-Maclaurin-Lebedev (99,590) quadrature formula
 Nonlocal Correlation:  VV10 with C = 0.0100 and b = 6.00 and scale = 1.00000
 Grid used for NLC:  SG-1 standard quadrature
performing fock build at end of subrot_r(subrot) constructor so that all methods have access
<S^2> of initial wavefunction before polarization iterations 0.0000000000
Beginning iterations for the determination of the polarized wavefunction
Energy prior to optimization (guess energy) = -313.090293441268
Begin Timing: Total SCF Calculation
begin iterations for algorithm: DIIS         
the SCF tolerance is set to 1.00e-08
    1    -313.0902934413      1.52e-03     00000 
    2    -313.1411328328      7.35e-04     00000 
    3    -313.1465802223      2.83e-04     00000 
    4    -313.1474207115      6.02e-05     00000 
    5    -313.1474779745      1.05e-05     00000 
    6    -313.1474816947      6.99e-06     00000 
    7    -313.1474823947      1.27e-06     00000 
    8    -313.1474824769      2.31e-07     00000 
    9    -313.1474824788      1.53e-07     00000 
   10    -313.1474824792      3.00e-08     00000 
   11    -313.1474824792      5.71e-09     00000 Convergence criterion met
write pseudocanon occs and virts to disk
write pseudocanon orbital energies to disk
Timing for Total SCF: 93.00s (wall), 561.14s (cpu)
<S^2> of polarized wavefunction after polarization iterations 0.0000000000
relaxing scfmi constraint to allow all rotations in the entire AO span
Doing General SCFMI
 Exchange:     0.1500 Hartree-Fock + 1.0000 wB97M-V + LR-HF
 Correlation:  1.0000 wB97M-V
 Using Euler-Maclaurin-Lebedev (99,590) quadrature formula
 Nonlocal Correlation:  VV10 with C = 0.0100 and b = 6.00 and scale = 1.00000
 Grid used for NLC:  SG-1 standard quadrature
performing fock build at end of subrot_r(subrot) constructor so that all methods have access
<S^2> of polarized wavefunction before ct-allowed iterations 0.0000000000
Beginning iterations for the determination of the CT-Allowed wavefunction
Energy prior to optimization (guess energy) = -313.147482479209
Begin Timing: Total SCF Calculation
begin iterations for algorithm: DIIS         
the SCF tolerance is set to 1.00e-08
    1    -313.1474824792      5.59e-04     00000 
    2    -313.1565484508      4.56e-05     00000 
    3    -313.1566632805      1.10e-05     00000 
    4    -313.1566659307      7.70e-06     00000 
    5    -313.1566677545      9.64e-07     00000 
    6    -313.1566677896      1.27e-07     00000 
    7    -313.1566677905      8.80e-08     00000 
    8    -313.1566677908      1.12e-08     00000 
    9    -313.1566677908      2.26e-09     00000 Convergence criterion met
write pseudocanon occs and virts to disk
write pseudocanon orbital energies to disk
Timing for Total SCF: 75.00s (wall), 445.84s (cpu)
<S^2> of ct_allowed wavefunction after ct-allowed iterations 0.0000000000

================================
        Results of EDA2         
================================
Basic EDA Quantities
--------------------
Fragment Energies (Ha):
1   -7.2758394981
2 -305.7326539826
--------------------
  E_prp (kJ/mol) = 0.0000
  E_frz (kJ/mol) = -214.7683
  E_pol (kJ/mol) = -150.1516
  E_vct (kJ/mol) = -24.1163
  E_int (kJ/mol) = -389.0363
--------------------


Decomposition of frozen interaction energy
--------------------
  --------------------
  Orthogonal Frozen Decomposition:
  --------------------
     E_elec   (ELEC)   (kJ/mol) = -379.3952
     E_pauli  (PAULI)  (kJ/mol) = 178.7059
     E_disp   (DISP)   (kJ/mol) = -14.0790
  --------------------
  Classical Frozen Decomposition:
  --------------------
     E_cls_elec  (CLS ELEC)  (kJ/mol) = -354.8783
     E_mod_pauli (MOD PAULI) (kJ/mol) = 152.6017 (FRZ - CLS ELEC - CLS DISP)
     E_cls_disp  (CLS DISP)  (kJ/mol) = -12.4918
  --------------------
--------------------

Simplified EDA Summary (kJ/mol)
--------------------
 PREPARATION      0.0000
 FROZEN           -214.7683 (ELEC + PAULI + DISP)
[ELEC + PAULI = -202.2765, DISP = -12.4918]
 POLARIZATION    -150.1516
 CHARGE TRANSFER -24.1163
 TOTAL           -389.0363     (PRP + FRZ + POL + CT)
--------------------
 
 --------------------------------------------------------------
 
                    Orbital Energies (a.u.)
 --------------------------------------------------------------
 
 Alpha MOs
 -- Occupied --
-19.5389 -19.5304 -19.5214 -19.5096  -2.2248  -1.3599  -1.3390  -1.3216
 -1.3042  -0.8418  -0.8399  -0.8258  -0.8031  -0.7497  -0.7205  -0.6820
 -0.6780  -0.6420  -0.6287  -0.6220  -0.5962
 -- Virtual --
 -0.1353  -0.1053  -0.1002  -0.0962  -0.0517  -0.0511  -0.0439  -0.0426
 -0.0292  -0.0143  -0.0073  -0.0050  -0.0003   0.0034   0.0106   0.0125
  0.0202   0.0213   0.0338   0.0358   0.0625   0.0684   0.0730   0.0914
  0.0994   0.1103   0.1155   0.1239   0.1315   0.1388   0.1482   0.1530
  0.1656   0.1714   0.1819   0.1855   0.1936   0.1970   0.2070   0.2116
  0.2125   0.2225   0.2245   0.2324   0.2340   0.2434   0.2487   0.2539
  0.2563   0.2636   0.2662   0.2682   0.2838   0.2920   0.2934   0.3020
  0.3253   0.3267   0.3444   0.3596   0.3689   0.3742   0.3973   0.4188
  0.4229   0.4292   0.4373   0.4576   0.4710   0.4765   0.4847   0.4948
  0.5055   0.5288   0.5418   0.5653   0.5755   0.5775   0.5950   0.6065
  0.6132   0.6283   0.6451   0.6526   0.6784   0.6874   0.6947   0.7140
  0.7211   0.7252   0.7556   0.7806   0.7815   0.8022   0.8214   0.8446
  0.8570   0.8842   0.8997   0.9076   0.9279   0.9363   0.9696   0.9936
  1.0003   1.0124   1.0311   1.0512   1.0562   1.0767   1.0824   1.0978
  1.1027   1.1243   1.1413   1.1462   1.1816   1.1982   1.2105   1.2206
  1.2269   1.2507   1.2671   1.2818   1.3011   1.3275   1.3462   1.3593
  1.3759   1.3958   1.3984   1.4345   1.7254   1.7887   1.7931   1.8044
  1.8219   1.8459   1.8582   1.9045   1.9187   1.9282   1.9748   2.0017
  2.0240   2.0611   2.0957   2.1325   2.1534   2.1754   2.1994   2.2114
  2.2649   2.4930   2.5693   2.5997   2.6277   2.6814   2.7153   2.7498
  2.7713   2.8167   2.8711   2.9188   2.9427   3.0449   3.0669   3.0828
  3.0965   3.1024   3.1329   3.1523   3.1668   3.2002   3.2152   3.2245
  3.2299   3.2572   3.2730   3.2946   3.2990   3.3080   3.3161   3.3280
  3.3456   3.3581   3.3664   3.3780   3.3917   3.4018   3.4315   3.4452
  3.4663   3.5243   3.5598   3.5749   3.6150   3.7444   3.7470   3.7955
  3.8137   3.8441   3.8767   3.9048   3.9121   3.9502   3.9577   3.9739
  3.9876   3.9939   4.0120   4.0251   4.0461   4.0614   4.0775   4.0832
  4.0976   4.1054   4.1191   4.1241   4.1522   4.1679   4.1735   4.2112
  4.2768   4.5677   4.5707   4.5745   4.5779   4.5865   4.6135   4.6467
  4.7157   4.8250   4.8504   4.8677   4.9013   5.0432   5.0791   5.1150
  5.1777   5.4946   5.4993   5.5054   5.5357   6.0105   6.0163   6.0521
  6.1475   6.2130   6.2635   6.3085   6.3264   6.3415   6.3530   6.3860
  6.3952   6.4161   6.4309   6.4429   6.4609   6.4849   6.5199   6.5268
  6.5472   6.5670   6.5763   6.5847   6.6146   6.6409   6.6673   6.6934
  6.7028   6.7163   6.7345   6.8092   6.8759   6.9155   6.9352   6.9612
  7.3396   7.3556   7.3667   7.3895   7.4072   7.4321   7.4828   7.6293
  7.6390   7.7048   7.7235   7.7879  15.1590  44.1768  44.2304  44.2834
 44.3736
 --------------------------------------------------------------
 
          Ground-State Mulliken Net Atomic Charges

     Atom                 Charge (a.u.)
  ----------------------------------------
      1 Li                    0.860628
      2 O                    -0.389897
      3 H                     0.205744
      4 H                     0.211627
      5 O                    -0.415111
      6 H                     0.214814
      7 H                     0.241944
      8 O                    -0.373072
      9 H                     0.227299
     10 H                     0.147651
     11 O                    -0.304421
     12 H                     0.191038
     13 H                     0.181754
  ----------------------------------------
  Sum of atomic charges =     1.000000

 -----------------------------------------------------------------
                    Cartesian Multipole Moments
 -----------------------------------------------------------------
    Charge (ESU x 10^10)
                 4.8032
    Dipole Moment (Debye)
         X       1.1593      Y      -2.6119      Z       0.3380
       Tot       2.8775
    Quadrupole Moments (Debye-Ang)
        XX     -16.1332     XY      -0.5644     YY     -13.1235
        XZ      -3.2832     YZ      -2.3179     ZZ     -13.2607
    Octopole Moments (Debye-Ang^2)
       XXX      29.8771    XXY     -12.6864    XYY     -15.6053
       YYY     -21.4477    XXZ      -5.9615    XYZ       8.2130
       YYZ      -2.0832    XZZ      -2.4921    YZZ       0.2752
       ZZZ       1.2440
    Hexadecapole Moments (Debye-Ang^3)
      XXXX    -209.7784   XXXY      -5.0938   XXYY     -45.7720
      XYYY      -0.8362   YYYY    -187.7865   XXXZ     -30.6926
      XXYZ       8.9954   XYYZ     -15.7318   YYYZ     -20.1663
      XXZZ     -56.8983   XYZZ      -0.4611   YYZZ     -49.3726
      XZZZ       7.9197   YZZZ     -11.8351   ZZZZ    -114.9382
 -----------------------------------------------------------------
 Total job time:  893.48s(wall), 1914.94s(cpu) 
 Tue Jan  9 20:12:18 2024

        *************************************************************
        *                                                           *
        *  Thank you very much for using Q-Chem.  Have a nice day.  *
        *                                                           *
        *************************************************************


