
Running Job 1 of 1 118_Li-Water_Cls_040_almo.in
qchem 118_Li-Water_Cls_040_almo.in_690893.0 /scratch/qchem690893/ 6
/home/kchung25/qchem/5.4.0/exe/qcprog.exe_s 118_Li-Water_Cls_040_almo.in_690893.0 /scratch/qchem690893/
                  Welcome to Q-Chem
     A Quantum Leap Into The Future Of Chemistry


 Q-Chem 5.4, Q-Chem, Inc., Pleasanton, CA (2021)

 E. Epifanovsky,  A. T. B. Gilbert,  Xintian Feng,  Joonho Lee,  Yuezhi Mao,  
 N. Mardirossian,  P. Pokhilko,  A. White,  M. Wormit,  M. P. Coons,  
 A. L. Dempwolff,  Zhengting Gan,  D. Hait,  P. R. Horn,  L. D. Jacobson,  
 I. Kaliman,  J. Kussmann,  A. W. Lange,  Ka Un Lao,  D. S. Levine,  Jie Liu,  
 S. C. McKenzie,  A. F. Morrison,  K. Nanda,  F. Plasser,  D. R. Rehn,  
 M. L. Vidal,  Zhi-Qiang You,  Ying Zhu,  B. Alam,  B. Albrecht,  
 A. Aldossary,  E. Alguire,  J. H. Andersen,  D. Barton,  K. Begam,  A. Behn,  
 Y. A. Bernard,  E. J. Berquist,  H. Burton,  A. Carreras,  K. Carter-Fenk,  
 Romit Chakraborty,  A. D. Chien,  K. D. Closser,  V. Cofer-Shabica,  
 S. Dasgupta,  Jia Deng,  M. de Wergifosse,  M. Diedenhofen,  Hainam Do,  
 S. Ehlert,  Po-Tung Fang,  S. Fatehi,  Qingguo Feng,  T. Friedhoff,  
 J. Gayvert,  Qinghui Ge,  G. Gidofalvi,  M. Goldey,  J. Gomes,  
 C. Gonzalez-Espinoza,  S. Gulania,  A. Gunina,  M. W. D. Hanson-Heine,  
 P. H. P. Harbach,  A. W. Hauser,  M. F. Herbst,  M. Hernandez Vera,  
 M. Hodecker,  Z. C. Holden,  S. Houck,  Xunkun Huang,  Kerwin Hui,  
 B. C. Huynh,  M. Ivanov,  Hyunjun Ji,  Hanjie Jiang,  B. Kaduk,  S. Kaehler,  
 K. Khistyaev,  Jaehoon Kim,  P. Klunzinger,  Z. Koczor-Benda,  
 Joong Hoon Koh,  D. Kosenkov,  L. Koulias,  T. Kowalczyk,  C. M. Krauter,  
 K. Kue,  A. Kunitsa,  T. Kus,  A. Landau,  K. V. Lawler,  D. Lefrancois,  
 S. Lehtola,  Rain Li,  Yi-Pei Li,  Jiashu Liang,  M. Liebenthal,  
 Hung-Hsuan Lin,  You-Sheng Lin,  Fenglai Liu,  Kuan-Yu Liu,  
 M. Loipersberger,  A. Luenser,  A. Manjanath,  P. Manohar,  E. Mansoor,  
 S. F. Manzer,  Shan-Ping Mao,  A. V. Marenich,  T. Markovich,  S. Mason,  
 S. A. Maurer,  P. F. McLaughlin,  M. F. S. J. Menger,  J.-M. Mewes,  
 S. A. Mewes,  P. Morgante,  J. W. Mullinax,  K. J. Oosterbaan,  G. Paran,  
 Alexander C. Paul,  Suranjan K. Paul,  F. Pavosevic,  Zheng Pei,  S. Prager,  
 E. I. Proynov,  E. Ramos,  B. Rana,  A. E. Rask,  A. Rettig,  R. M. Richard,  
 F. Rob,  E. Rossomme,  T. Scheele,  M. Scheurer,  M. Schneider,  
 N. Sergueev,  S. M. Sharada,  W. Skomorowski,  D. W. Small,  C. J. Stein,  
 Yu-Chuan Su,  E. J. Sundstrom,  Zhen Tao,  J. Thirman,  T. Tsuchimochi,  
 N. M. Tubman,  S. P. Veccham,  O. Vydrov,  J. Wenzel,  J. Witte,  A. Yamada,  
 Kun Yao,  S. Yeganeh,  S. R. Yost,  A. Zech,  Igor Ying Zhang,  Xing Zhang,  
 Yu Zhang,  D. Zuev,  A. Aspuru-Guzik,  A. T. Bell,  N. A. Besley,  
 K. B. Bravaya,  B. R. Brooks,  D. Casanova,  Jeng-Da Chai,  S. Coriani,  
 C. J. Cramer,  A. E. DePrince, III,  R. A. DiStasio Jr.,  A. Dreuw,  
 B. D. Dunietz,  T. R. Furlani,  W. A. Goddard III,  S. Grimme,  
 S. Hammes-Schiffer,  T. Head-Gordon,  W. J. Hehre,  Chao-Ping Hsu,  
 T.-C. Jagau,  Yousung Jung,  A. Klamt,  Jing Kong,  D. S. Lambrecht,  
 WanZhen Liang,  N. J. Mayhall,  C. W. McCurdy,  J. B. Neaton,  T. Neudecker,  
 C. Ochsenfeld,  J. A. Parkhill,  R. Peverati,  V. A. Rassolov,  Yihan Shao,  
 L. V. Slipchenko,  R. P. Steele,  J. E. Subotnik,  A. J. W. Thom,  
 A. Tkatchenko,  D. G. Truhlar,  T. Van Voorhis,  T. A. Wesolowski,  
 K. B. Whaley,  H. L. Woodcock III,  P. M. Zimmerman,  S. Faraji,  
 P. M. W. Gill,  M. Head-Gordon,  J. M. Herbert,  A. I. Krylov

 Additional authors since Version 5.4.0: 
 Chandrima Chakravarty,  L. Cunha,  R. Kang,  Yongbin Kim,  S. Kotaru,  
 Shaozhi Li,  Xiangyuan Li,  F. Matz,  A. Molle,  V. Parravicini,  
 Haisheng Ren,  Hengyuan Shen,  Yingli Su,  Hung-Yi Tsai,  C. Utku,  
 Fang Wang,  Jeff Yang,  F. Zeller

 Contributors to earlier versions of Q-Chem not listed above: 
 R. D. Adamson,  B. Austin,  R. Baer,  J. Baker,  G. J. O. Beran,  
 K. Brandhorst,  S. T. Brown,  E. F. C. Byrd,  Arup K. Chakraborty,  
 G. K. L. Chan,  Chun-Min Chang,  Yunqing Chen,  C.-L. Cheng,  
 Siu Hung Chien,  D. M. Chipman,  D. L. Crittenden,  H. Dachsel,  
 R. J. Doerksen,  A. D. Dutoi,  R. G. Edgar,  J. Fosso-Tande,  
 L. Fusti-Molnar,  D. Ghosh,  A. Ghysels,  A. Golubeva-Zadorozhnaya,  
 J. Gonthier,  M. S. Gordon,  S. R. Gwaltney,  G. Hawkins,  J. E. Herr,  
 A. Heyden,  S. Hirata,  E. G. Hohenstein,  G. Kedziora,  F. J. Keil,  
 C. Kelley,  Jihan Kim,  R. A. King,  R. Z. Khaliullin,  P. P. Korambath,  
 W. Kurlancheek,  A. Laurent,  A. M. Lee,  M. S. Lee,  S. V. Levchenko,  
 Ching Yeh Lin,  D. Liotard,  E. Livshits,  R. C. Lochan,  I. Lotan,  
 L. A. Martinez-Martinez,  P. E. Maslen,  N. Nair,  D. P. O'Neill,  
 D. Neuhauser,  E. Neuscamman,  C. M. Oana,  R. Olivares-Amaya,  R. Olson,  
 T. M. Perrine,  B. Peters,  P. A. Pieniazek,  A. Prociuk,  Y. M. Rhee,  
 J. Ritchie,  M. A. Rohrdanz,  E. Rosta,  N. J. Russ,  H. F. Schaefer III,  
 M. W. Schmidt,  N. E. Schultz,  S. Sharma,  N. Shenvi,  C. D. Sherrill,  
 A. C. Simmonett,  A. Sodt,  T. Stein,  D. Stuck,  K. S. Thanthiriwatte,  
 V. Vanovschi,  L. Vogt,  Tao Wang,  A. Warshel,  M. A. Watson,  
 C. F. Williams,  Q. Wu,  X. Xu,  Jun Yang,  W. Zhang,  Yan Zhao

   Please cite Q-Chem as follows:
  "Software for the frontiers of quantum chemistry:
   An overview of developments in the Q-Chem 5 package"
   J. Chem. Phys. 155, 084801 (2021)
   https://doi.org/10.1063/5.0055522 (open access)

 Q-Chem 5.4.2 for Intel X86 EM64T Linux

 Parts of Q-Chem use Armadillo 9.900.5 (Nocturnal Misbehaviour).
 http://arma.sourceforge.net/

 Q-Chem begins on Tue Jan  9 18:01:47 2024  

 Host: 
0

     Scratch files written to /scratch/qchem690893//
 Dec1321 |scratch|qcdevops|jenkins|workspace|build_RNUM 5684   
 Processing $rem in /home/kchung25/qchem/5.4.0/config/preferences:
 Processing $rem in /home/kchung25/.qchemrc:

 Q-Chem warning in module libgen/rem_setup.C, line 3079:

 Neither GIA nor STOLL is specified by user. Use STOLL as the default


 Checking the input file for inconsistencies... 	...done.

--------------------------------------------------------------
User input:
--------------------------------------------------------------
$molecule
1 1
--
1 1
Li     0.000000     0.000000     0.000000
--
0 1
O     -1.599702    -0.834408    -0.032075
H     -1.671490    -1.753336     0.164015
H     -2.104307    -0.340925     0.605746
O      0.005994     1.410873     1.210917
H     -0.817348     1.609443     0.914181
H     -0.067656     1.285409     2.156336
O      0.490183     0.722640    -1.670961
H      0.003584     0.447548    -2.436389
H      1.403239     0.553948    -1.838663
$end

$rem
JOBTYPE          eda
EDA2             1
METHOD           wB97M-V
BASIS            def2-TZVPPD
SYMMETRY         false
MEM_TOTAL        50000
MEM_STATIC       10000
THRESH           14
SCF_CONVERGENCE  8
XC_GRID          000099000590
NL_GRID          1
EDA_CLS_DISP     true
FD_MAT_VEC_PROD  FALSE
$end
--------------------------------------------------------------
 ----------------------------------------------------------------
             Standard Nuclear Orientation (Angstroms)
    I     Atom           X                Y                Z
 ----------------------------------------------------------------
    1      Li     -0.0141533379    -0.0343534067    -0.5355188711
    2      O       0.9756894044    -1.4235448645     0.0532683944
    3      H       1.3547330861    -2.0395675854    -0.5507807501
    4      H       1.6734758652    -0.9921560543     0.5348959006
    5      O       0.7038410515     1.5912356050     0.0111647236
    6      H       0.8600862738     1.2034385558     0.8052523931
    7      H       1.5456968663     1.9198987162    -0.3022710270
    8      O      -1.7918938520    -0.0755746795     0.0910097220
    9      H      -2.1085641652    -0.8782828049     0.4830732328
   10      H      -2.3840607436     0.1528009052    -0.6071558569
 ----------------------------------------------------------------
 Molecular Point Group                 C1    NOp =  1
 Largest Abelian Subgroup              C1    NOp =  1
 Nuclear Repulsion Energy =         102.99780915 hartrees
 There are       16 alpha and       16 beta electrons
 Requested basis set is def2-TZVPPD
 There are 94 shells and 244 basis functions

 Q-Chem warning in module libmdc/get_mega.C, line 171:

 Allowed MEM_STATIC has been capped at MEM_STATIC=8191.
 Reduce the value of MEM_STATIC to silence this warning.


 Total QAlloc Memory Limit  50000 MB
 Mega-Array Size      8007 MB
 MEM_STATIC part      8191 MB

                       Distance Matrix (Angstroms)
             Li(  1)   O (  2)   H (  3)   H (  4)   O (  5)   H (  6)
   O (  2)  1.804525
   H (  3)  2.427955  0.942355
   H (  4)  2.216138  0.951298  1.541870
   O (  5)  1.859279  3.027305  3.731243  2.808629
   H (  6)  2.023386  2.734938  3.549731  2.356975  0.897427
   H (  7)  2.511302  3.410269  3.971851  3.032695  0.956547  1.486602
   O (  8)  1.885364  3.078630  3.764362  3.611917  3.002220  3.029689
   H (  9)  2.477156  3.161434  3.796296  3.784109  3.772379  3.640089
   H ( 10)  2.378365  3.769476  4.334540  4.367930  3.462160  3.690966
             H (  7)   O (  8)   H (  9)
   O (  8)  3.908465
   H (  9)  4.669069  0.947805
   H ( 10)  4.319558  0.943532  1.525658
 
 A cutoff of  1.0D-14 yielded   4254 shell pairs
 There are     28880 function pairs (     35141 Cartesian)
 Smallest overlap matrix eigenvalue = 1.65E-04

 Scale SEOQF with 1.000000e-01/1.000000e-01/1.000000e-01

 Standard Electronic Orientation quadrupole field applied
 Nucleus-field energy     =     0.0000000051 hartrees

 -----------------------------------------------------------------------
  General SCF calculation program by
  Eric Jon Sundstrom, Paul Horn, Yuezhi Mao, Dmitri Zuev, Alec White,
  David Stuck, Shaama M.S., Shane Yost, Joonho Lee, David Small,
  Daniel Levine, Susi Lehtola, Hugh Burton, Evgeny Epifanovsky,
  Bang C. Huynh
 -----------------------------------------------------------------------
================================================================
                 ALMO-EDA with the EDA2 driver                  
================================================================
 The second-generation ALMO-EDA (for DFT):                      
 P. R. Horn, Y. Mao and M. Head-Gordon, PCCP, 18, 23067 (2016)  
 Y. Mao et al. Annu. Rev. Phys. Chem. 72, 641 (2021)            
 Decomposition of the frozen energy:                            
 P. R. Horn, Y. Mao and M. Head-Gordon, JCP, 144, 114107 (2016) 
 FERF model for polarization:                                   
 P. R. Horn and M. Head-Gordon, JCP, 143, 114111 (2015)         
================================================================
 Using eda2 option set 1
 Option set summary: Frozen orbital wavefunction, initial wavefunction decomposition, and nDQ polarization.
--------------------------------
Printing EDA Options
--------------------------------
eda_child_super_basis      0
fragmo_guess_mode          0
child_mp                   1
child_mp_orders            232
cls_elec                   1
cls_disp                   1
scfmi_mode                 1
scfmi_occs                 0
scfmi_virts                0
frz_relax                  0
frz_relax_method           0
dc_pen_start               0
dc_pen_conv                0
dc_pen_increment           0
dc_pen_steps               0
dc_pen_thresh_factor       0
dc_pen_pre_newton_thresh   0
frz_ortho_decomp           1
frz_ortho_decomp_conv      6
plot_mo_ortho_frz          0
frgm_method                2
scfmi_freeze_ss            0
separate_rehyb             0
plot_diff_den              0
eda_nocv                   0
eda_vct_relax              1
disp_free_x                0
disp_free_c                0
eda_bsse                   0
eda_pct_a                  0
eda_covp                   0
--------------------------------
Attempting to make child job directory: /scratch/qchem690893//Frg1/
Attempting to make child job directory: /scratch/qchem690893//Frg2/
Creating input file /scratch/qchem690893/Frg1.input
using default PutDataFrgm: nothing
calling putenv with: QCSCRATCH=/scratch/qchem690893/ 
Spawning Job For Fragment 0
Done Job For Fragment 0
calling putenv with: QCSCRATCH=/scratch 
calling putenv with: QCTHREADS=6 
Creating input file /scratch/qchem690893/Frg2.input
using default PutDataFrgm: nothing
calling putenv with: QCSCRATCH=/scratch/qchem690893/ 
Spawning Job For Fragment 1
Done Job For Fragment 1
calling putenv with: QCSCRATCH=/scratch 
calling putenv with: QCTHREADS=6 
Doing General SCFMI
 Exchange:     0.1500 Hartree-Fock + 1.0000 wB97M-V + LR-HF
 Correlation:  1.0000 wB97M-V
 Using Euler-Maclaurin-Lebedev (99,590) quadrature formula
 Nonlocal Correlation:  VV10 with C = 0.0100 and b = 6.00 and scale = 1.00000
 Grid used for NLC:  SG-1 standard quadrature
performing fock build before subrot guess so that all methods have access
Printing subrot_rss_gen Method Specification:
Occupied Subspace Method is 0
Virtual Subspace Method is 0
Energy of the unrelaxed supersystem initial determinant -236.634747225144
write pseudocanon occs and virts to disk
write pseudocanon orbital energies to disk
Tolerance of ortho_decomp_scf: 1.00e-06
GDM subspace size: 20
Beginning the Orthogonal Decomposition of the Initial Supersystem Wavefunction
    1    -236.4904487761      2.46e-01     ortho_decomp Preconditoned Steepest Descent
    2    -236.4927459358      2.97e-03     ortho_decomp BFGS Step
    3    -236.4927470158      1.08e-04     ortho_decomp BFGS Step
    4    -236.4927470175      3.85e-06     ortho_decomp BFGS Step
    5    -236.4927470175      7.10e-08     ortho_decomp 00000 Convergence criterion met
 Hartree-Fock
 Hartree-Fock
 Hartree-Fock
 Exchange:     0.1500 Hartree-Fock + 1.0000 wB97M-V + LR-HF
 Correlation:  1.0000 wB97M-V
 Using Euler-Maclaurin-Lebedev (99,590) quadrature formula
 Nonlocal Correlation:  VV10 with C = 0.0100 and b = 6.00 and scale = 1.00000
 Grid used for NLC:  SG-1 standard quadrature
 Long-range K will be added via erf
 Coulomb attenuation parameter = 0.3 bohr**(-1)
 Nonlocal correlation = 1.343896858543e-01
Doing General SCFMI
 Exchange:     0.1500 Hartree-Fock + 1.0000 wB97M-V + LR-HF
 Correlation:  1.0000 wB97M-V
 Using Euler-Maclaurin-Lebedev (99,590) quadrature formula
 Nonlocal Correlation:  VV10 with C = 0.0100 and b = 6.00 and scale = 1.00000
 Grid used for NLC:  SG-1 standard quadrature
performing fock build at end of subrot_r(subrot) constructor so that all methods have access
<S^2> of initial wavefunction before polarization iterations 0.0000000000
Beginning iterations for the determination of the polarized wavefunction
Energy prior to optimization (guess energy) = -236.634747225145
Begin Timing: Total SCF Calculation
begin iterations for algorithm: DIIS         
the SCF tolerance is set to 1.00e-08
    1    -236.6347472251      1.89e-03     00000 
    2    -236.6795477800      7.86e-04     00000 
    3    -236.6829644413      3.22e-04     00000 
    4    -236.6835820960      7.82e-05     00000 
    5    -236.6836308991      1.01e-05     00000 
    6    -236.6836334491      2.51e-06     00000 
    7    -236.6836335687      1.59e-06     00000 
    8    -236.6836335930      1.88e-07     00000 
    9    -236.6836335939      4.16e-08     00000 
   10    -236.6836335939      9.28e-09     00000 Convergence criterion met
write pseudocanon occs and virts to disk
write pseudocanon orbital energies to disk
Timing for Total SCF: 40.00s (wall), 245.18s (cpu)
<S^2> of polarized wavefunction after polarization iterations 0.0000000000
relaxing scfmi constraint to allow all rotations in the entire AO span
Doing General SCFMI
 Exchange:     0.1500 Hartree-Fock + 1.0000 wB97M-V + LR-HF
 Correlation:  1.0000 wB97M-V
 Using Euler-Maclaurin-Lebedev (99,590) quadrature formula
 Nonlocal Correlation:  VV10 with C = 0.0100 and b = 6.00 and scale = 1.00000
 Grid used for NLC:  SG-1 standard quadrature
performing fock build at end of subrot_r(subrot) constructor so that all methods have access
<S^2> of polarized wavefunction before ct-allowed iterations 0.0000000000
Beginning iterations for the determination of the CT-Allowed wavefunction
Energy prior to optimization (guess energy) = -236.683633593907
Begin Timing: Total SCF Calculation
begin iterations for algorithm: DIIS         
the SCF tolerance is set to 1.00e-08
    1    -236.6836335939      7.32e-04     00000 
    2    -236.6927158348      6.11e-05     00000 
    3    -236.6928393499      1.72e-05     00000 
    4    -236.6928433478      1.13e-05     00000 
    5    -236.6928457118      1.03e-06     00000 
    6    -236.6928457413      1.57e-07     00000 
    7    -236.6928457432      5.90e-08     00000 
    8    -236.6928457432      2.52e-08     00000 
    9    -236.6928457433      2.97e-09     00000 Convergence criterion met
write pseudocanon occs and virts to disk
write pseudocanon orbital energies to disk
Timing for Total SCF: 36.00s (wall), 216.57s (cpu)
<S^2> of ct_allowed wavefunction after ct-allowed iterations 0.0000000000

================================
        Results of EDA2         
================================
Basic EDA Quantities
--------------------
Fragment Energies (Ha):
1   -7.2758394982
2 -229.2960678539
--------------------
  E_prp (kJ/mol) = 0.0000
  E_frz (kJ/mol) = -164.9880
  E_pol (kJ/mol) = -128.3527
  E_vct (kJ/mol) = -24.1868
  E_int (kJ/mol) = -317.5275
--------------------


Decomposition of frozen interaction energy
--------------------
  --------------------
  Orthogonal Frozen Decomposition:
  --------------------
     E_elec   (ELEC)   (kJ/mol) = -336.5047
     E_pauli  (PAULI)  (kJ/mol) = 185.2607
     E_disp   (DISP)   (kJ/mol) = -13.7441
  --------------------
  Classical Frozen Decomposition:
  --------------------
     E_cls_elec  (CLS ELEC)  (kJ/mol) = -311.7159
     E_mod_pauli (MOD PAULI) (kJ/mol) = 158.9776 (FRZ - CLS ELEC - CLS DISP)
     E_cls_disp  (CLS DISP)  (kJ/mol) = -12.2497
  --------------------
--------------------

Simplified EDA Summary (kJ/mol)
--------------------
 PREPARATION      0.0000
 FROZEN           -164.9880 (ELEC + PAULI + DISP)
[ELEC + PAULI = -152.7383, DISP = -12.2497]
 POLARIZATION    -128.3527
 CHARGE TRANSFER -24.1868
 TOTAL           -317.5275     (PRP + FRZ + POL + CT)
--------------------
 
 --------------------------------------------------------------
 
                    Orbital Energies (a.u.)
 --------------------------------------------------------------
 
 Alpha MOs
 -- Occupied --
-19.5567 -19.5443 -19.5353  -2.2591  -1.3769  -1.3729  -1.3515  -0.8835
 -0.8702  -0.8532  -0.7424  -0.7343  -0.7128  -0.6703  -0.6480  -0.6390
 -- Virtual --
 -0.1483  -0.1147  -0.1010  -0.0990  -0.0541  -0.0492  -0.0440  -0.0386
 -0.0303  -0.0230  -0.0166  -0.0031   0.0003   0.0132   0.0227   0.0254
  0.0285   0.0321   0.0380   0.0478   0.0788   0.1049   0.1157   0.1212
  0.1393   0.1460   0.1508   0.1622   0.1654   0.1752   0.1805   0.1837
  0.1905   0.2025   0.2074   0.2142   0.2185   0.2210   0.2232   0.2358
  0.2442   0.2619   0.2649   0.2801   0.2857   0.2865   0.3030   0.3167
  0.3442   0.3546   0.3723   0.3922   0.4151   0.4248   0.4372   0.4530
  0.4622   0.4830   0.4945   0.5154   0.5438   0.5504   0.5684   0.5805
  0.5907   0.6016   0.6091   0.6507   0.6608   0.6751   0.6936   0.7199
  0.7348   0.7453   0.7712   0.7894   0.7954   0.8196   0.8487   0.8646
  0.9072   0.9313   0.9605   0.9756   0.9852   1.0151   1.0389   1.0568
  1.0641   1.0841   1.1129   1.1175   1.1471   1.1580   1.1924   1.2214
  1.2453   1.2590   1.2844   1.2884   1.3276   1.3594   1.3997   1.6835
  1.7727   1.7790   1.7995   1.8253   1.8338   1.9114   1.9240   1.9696
  1.9970   2.0346   2.0686   2.0832   2.1280   2.1616   2.1781   2.4430
  2.4732   2.4855   2.6220   2.6419   2.6698   2.8053   2.8317   2.8785
  2.9906   3.0214   3.0544   3.1060   3.1128   3.1528   3.1566   3.1659
  3.1984   3.2207   3.2486   3.2725   3.2882   3.3093   3.3350   3.3415
  3.3619   3.3639   3.3819   3.4081   3.5105   3.5246   3.5517   3.6021
  3.7443   3.7797   3.8088   3.8436   3.8571   3.8942   3.9278   3.9635
  3.9730   3.9955   4.0019   4.0341   4.0585   4.0620   4.0827   4.1113
  4.1181   4.1248   4.1425   4.1514   4.1806   4.5777   4.5894   4.6040
  4.6174   4.6297   4.6990   4.8842   4.9047   4.9425   5.0692   5.0900
  5.1590   5.4825   5.5175   5.5653   6.0287   6.0577   6.1031   6.1510
  6.1886   6.2020   6.3889   6.4093   6.4221   6.4378   6.4435   6.4713
  6.4860   6.5223   6.5432   6.5757   6.6047   6.6224   6.6279   6.6426
  6.6723   6.7149   6.7249   6.8122   6.9312   6.9523   6.9773   7.3358
  7.3704   7.4269   7.4529   7.4881   7.5795   7.7469   7.7505   7.8311
 15.0429  44.2262  44.2488  44.3535
 --------------------------------------------------------------
 
          Ground-State Mulliken Net Atomic Charges

     Atom                 Charge (a.u.)
  ----------------------------------------
      1 Li                    0.854227
      2 O                    -0.379679
      3 H                     0.212132
      4 H                     0.219072
      5 O                    -0.310785
      6 H                     0.157141
      7 H                     0.205104
      8 O                    -0.392241
      9 H                     0.217891
     10 H                     0.217137
  ----------------------------------------
  Sum of atomic charges =     1.000000

 -----------------------------------------------------------------
                    Cartesian Multipole Moments
 -----------------------------------------------------------------
    Charge (ESU x 10^10)
                 4.8032
    Dipole Moment (Debye)
         X       1.8488      Y      -1.5298      Z      -1.7023
       Tot       2.9422
    Quadrupole Moments (Debye-Ang)
        XX      -2.4534     XY       2.4981     YY     -13.8735
        XZ       1.9176     YZ       0.7418     ZZ     -15.9052
    Octopole Moments (Debye-Ang^2)
       XXX      -7.2184    XXY      -4.9427    XYY      13.7083
       YYY      -7.7153    XXZ      -3.5985    XYZ       4.2445
       YYZ      -5.8580    XZZ       0.7696    YZZ      -0.2838
       ZZZ      -1.5928
    Hexadecapole Moments (Debye-Ang^3)
      XXXX    -128.1217   XXXY      11.6029   XXYY     -32.8677
      XYYY       3.2213   YYYY    -165.8403   XXXZ      12.4493
      XXYZ      -7.2139   XYYZ     -10.7317   YYYZ       7.1245
      XXZZ     -30.6062   XYZZ       0.3325   YYZZ     -31.2042
      XZZZ       2.6314   YZZZ       1.6215   ZZZZ     -20.4336
 -----------------------------------------------------------------
 Total job time:  387.28s(wall), 892.80s(cpu) 
 Tue Jan  9 18:08:14 2024

        *************************************************************
        *                                                           *
        *  Thank you very much for using Q-Chem.  Have a nice day.  *
        *                                                           *
        *************************************************************


