
Running Job 1 of 1 118_Li-Water_Cls_011_almo.in
qchem 118_Li-Water_Cls_011_almo.in_678240.0 /scratch/qchem678240/ 6
/home/kchung25/qchem/5.4.0/exe/qcprog.exe_s 118_Li-Water_Cls_011_almo.in_678240.0 /scratch/qchem678240/
                  Welcome to Q-Chem
     A Quantum Leap Into The Future Of Chemistry


 Q-Chem 5.4, Q-Chem, Inc., Pleasanton, CA (2021)

 E. Epifanovsky,  A. T. B. Gilbert,  Xintian Feng,  Joonho Lee,  Yuezhi Mao,  
 N. Mardirossian,  P. Pokhilko,  A. White,  M. Wormit,  M. P. Coons,  
 A. L. Dempwolff,  Zhengting Gan,  D. Hait,  P. R. Horn,  L. D. Jacobson,  
 I. Kaliman,  J. Kussmann,  A. W. Lange,  Ka Un Lao,  D. S. Levine,  Jie Liu,  
 S. C. McKenzie,  A. F. Morrison,  K. Nanda,  F. Plasser,  D. R. Rehn,  
 M. L. Vidal,  Zhi-Qiang You,  Ying Zhu,  B. Alam,  B. Albrecht,  
 A. Aldossary,  E. Alguire,  J. H. Andersen,  D. Barton,  K. Begam,  A. Behn,  
 Y. A. Bernard,  E. J. Berquist,  H. Burton,  A. Carreras,  K. Carter-Fenk,  
 Romit Chakraborty,  A. D. Chien,  K. D. Closser,  V. Cofer-Shabica,  
 S. Dasgupta,  Jia Deng,  M. de Wergifosse,  M. Diedenhofen,  Hainam Do,  
 S. Ehlert,  Po-Tung Fang,  S. Fatehi,  Qingguo Feng,  T. Friedhoff,  
 J. Gayvert,  Qinghui Ge,  G. Gidofalvi,  M. Goldey,  J. Gomes,  
 C. Gonzalez-Espinoza,  S. Gulania,  A. Gunina,  M. W. D. Hanson-Heine,  
 P. H. P. Harbach,  A. W. Hauser,  M. F. Herbst,  M. Hernandez Vera,  
 M. Hodecker,  Z. C. Holden,  S. Houck,  Xunkun Huang,  Kerwin Hui,  
 B. C. Huynh,  M. Ivanov,  Hyunjun Ji,  Hanjie Jiang,  B. Kaduk,  S. Kaehler,  
 K. Khistyaev,  Jaehoon Kim,  P. Klunzinger,  Z. Koczor-Benda,  
 Joong Hoon Koh,  D. Kosenkov,  L. Koulias,  T. Kowalczyk,  C. M. Krauter,  
 K. Kue,  A. Kunitsa,  T. Kus,  A. Landau,  K. V. Lawler,  D. Lefrancois,  
 S. Lehtola,  Rain Li,  Yi-Pei Li,  Jiashu Liang,  M. Liebenthal,  
 Hung-Hsuan Lin,  You-Sheng Lin,  Fenglai Liu,  Kuan-Yu Liu,  
 M. Loipersberger,  A. Luenser,  A. Manjanath,  P. Manohar,  E. Mansoor,  
 S. F. Manzer,  Shan-Ping Mao,  A. V. Marenich,  T. Markovich,  S. Mason,  
 S. A. Maurer,  P. F. McLaughlin,  M. F. S. J. Menger,  J.-M. Mewes,  
 S. A. Mewes,  P. Morgante,  J. W. Mullinax,  K. J. Oosterbaan,  G. Paran,  
 Alexander C. Paul,  Suranjan K. Paul,  F. Pavosevic,  Zheng Pei,  S. Prager,  
 E. I. Proynov,  E. Ramos,  B. Rana,  A. E. Rask,  A. Rettig,  R. M. Richard,  
 F. Rob,  E. Rossomme,  T. Scheele,  M. Scheurer,  M. Schneider,  
 N. Sergueev,  S. M. Sharada,  W. Skomorowski,  D. W. Small,  C. J. Stein,  
 Yu-Chuan Su,  E. J. Sundstrom,  Zhen Tao,  J. Thirman,  T. Tsuchimochi,  
 N. M. Tubman,  S. P. Veccham,  O. Vydrov,  J. Wenzel,  J. Witte,  A. Yamada,  
 Kun Yao,  S. Yeganeh,  S. R. Yost,  A. Zech,  Igor Ying Zhang,  Xing Zhang,  
 Yu Zhang,  D. Zuev,  A. Aspuru-Guzik,  A. T. Bell,  N. A. Besley,  
 K. B. Bravaya,  B. R. Brooks,  D. Casanova,  Jeng-Da Chai,  S. Coriani,  
 C. J. Cramer,  A. E. DePrince, III,  R. A. DiStasio Jr.,  A. Dreuw,  
 B. D. Dunietz,  T. R. Furlani,  W. A. Goddard III,  S. Grimme,  
 S. Hammes-Schiffer,  T. Head-Gordon,  W. J. Hehre,  Chao-Ping Hsu,  
 T.-C. Jagau,  Yousung Jung,  A. Klamt,  Jing Kong,  D. S. Lambrecht,  
 WanZhen Liang,  N. J. Mayhall,  C. W. McCurdy,  J. B. Neaton,  T. Neudecker,  
 C. Ochsenfeld,  J. A. Parkhill,  R. Peverati,  V. A. Rassolov,  Yihan Shao,  
 L. V. Slipchenko,  R. P. Steele,  J. E. Subotnik,  A. J. W. Thom,  
 A. Tkatchenko,  D. G. Truhlar,  T. Van Voorhis,  T. A. Wesolowski,  
 K. B. Whaley,  H. L. Woodcock III,  P. M. Zimmerman,  S. Faraji,  
 P. M. W. Gill,  M. Head-Gordon,  J. M. Herbert,  A. I. Krylov

 Additional authors since Version 5.4.0: 
 Chandrima Chakravarty,  L. Cunha,  R. Kang,  Yongbin Kim,  S. Kotaru,  
 Shaozhi Li,  Xiangyuan Li,  F. Matz,  A. Molle,  V. Parravicini,  
 Haisheng Ren,  Hengyuan Shen,  Yingli Su,  Hung-Yi Tsai,  C. Utku,  
 Fang Wang,  Jeff Yang,  F. Zeller

 Contributors to earlier versions of Q-Chem not listed above: 
 R. D. Adamson,  B. Austin,  R. Baer,  J. Baker,  G. J. O. Beran,  
 K. Brandhorst,  S. T. Brown,  E. F. C. Byrd,  Arup K. Chakraborty,  
 G. K. L. Chan,  Chun-Min Chang,  Yunqing Chen,  C.-L. Cheng,  
 Siu Hung Chien,  D. M. Chipman,  D. L. Crittenden,  H. Dachsel,  
 R. J. Doerksen,  A. D. Dutoi,  R. G. Edgar,  J. Fosso-Tande,  
 L. Fusti-Molnar,  D. Ghosh,  A. Ghysels,  A. Golubeva-Zadorozhnaya,  
 J. Gonthier,  M. S. Gordon,  S. R. Gwaltney,  G. Hawkins,  J. E. Herr,  
 A. Heyden,  S. Hirata,  E. G. Hohenstein,  G. Kedziora,  F. J. Keil,  
 C. Kelley,  Jihan Kim,  R. A. King,  R. Z. Khaliullin,  P. P. Korambath,  
 W. Kurlancheek,  A. Laurent,  A. M. Lee,  M. S. Lee,  S. V. Levchenko,  
 Ching Yeh Lin,  D. Liotard,  E. Livshits,  R. C. Lochan,  I. Lotan,  
 L. A. Martinez-Martinez,  P. E. Maslen,  N. Nair,  D. P. O'Neill,  
 D. Neuhauser,  E. Neuscamman,  C. M. Oana,  R. Olivares-Amaya,  R. Olson,  
 T. M. Perrine,  B. Peters,  P. A. Pieniazek,  A. Prociuk,  Y. M. Rhee,  
 J. Ritchie,  M. A. Rohrdanz,  E. Rosta,  N. J. Russ,  H. F. Schaefer III,  
 M. W. Schmidt,  N. E. Schultz,  S. Sharma,  N. Shenvi,  C. D. Sherrill,  
 A. C. Simmonett,  A. Sodt,  T. Stein,  D. Stuck,  K. S. Thanthiriwatte,  
 V. Vanovschi,  L. Vogt,  Tao Wang,  A. Warshel,  M. A. Watson,  
 C. F. Williams,  Q. Wu,  X. Xu,  Jun Yang,  W. Zhang,  Yan Zhao

   Please cite Q-Chem as follows:
  "Software for the frontiers of quantum chemistry:
   An overview of developments in the Q-Chem 5 package"
   J. Chem. Phys. 155, 084801 (2021)
   https://doi.org/10.1063/5.0055522 (open access)

 Q-Chem 5.4.2 for Intel X86 EM64T Linux

 Parts of Q-Chem use Armadillo 9.900.5 (Nocturnal Misbehaviour).
 http://arma.sourceforge.net/

 Q-Chem begins on Tue Jan  9 11:56:55 2024  

 Host: 
0

     Scratch files written to /scratch/qchem678240//
 Dec1321 |scratch|qcdevops|jenkins|workspace|build_RNUM 5684   
 Processing $rem in /home/kchung25/qchem/5.4.0/config/preferences:
 Processing $rem in /home/kchung25/.qchemrc:

 Q-Chem warning in module libgen/rem_setup.C, line 3079:

 Neither GIA nor STOLL is specified by user. Use STOLL as the default


 Checking the input file for inconsistencies... 	...done.

--------------------------------------------------------------
User input:
--------------------------------------------------------------
$molecule
1 1
--
1 1
Li     0.000000     0.000000     0.000000
--
0 1
O     -0.027221    -1.892341     0.156225
H     -0.536148    -2.498417    -0.392860
H      0.243138    -2.471152     0.849494
O      1.738236     0.664366    -0.057323
H      2.287094     0.955382     0.777655
H      2.400736     0.107677    -0.493532
O     -1.127047     0.764844     1.621688
H     -0.642547     0.688602     2.513507
H     -1.362795     1.713494     1.543215
O     -0.863269     0.264781    -1.728839
H     -0.881962     1.221250    -1.792891
H     -1.763154    -0.020104    -1.961724
$end

$rem
JOBTYPE          eda
EDA2             1
METHOD           wB97M-V
BASIS            def2-TZVPPD
SYMMETRY         false
MEM_TOTAL        50000
MEM_STATIC       10000
THRESH           14
SCF_CONVERGENCE  8
XC_GRID          000099000590
NL_GRID          1
EDA_CLS_DISP     true
FD_MAT_VEC_PROD  FALSE
$end
--------------------------------------------------------------
 ----------------------------------------------------------------
             Standard Nuclear Orientation (Angstroms)
    I     Atom           X                Y                Z
 ----------------------------------------------------------------
    1      Li      0.0059195348     0.0637639918    -0.0412384272
    2      O       0.7493597567    -0.2823934477     1.6715293204
    3      H       1.4566881121    -0.9066613022     1.8659654024
    4      H       0.4419434929    -0.0913509350     2.5420096867
    5      O      -0.0584112510     1.8871595139    -0.4116744134
    6      H      -0.8649089933     2.5066476609    -0.1904968732
    7      H       0.6586579371     2.4286271209    -0.0487532174
    8      O      -1.9004178596    -0.8579329956    -0.0792602076
    9      H      -2.5925412546    -0.3628610769     0.4790974044
   10      H      -2.3010365748    -0.9299444941    -0.9714434527
   11      O       1.3015660722    -0.8010941174    -1.2149279659
   12      H       0.9090701102    -0.6575606546    -2.0778474870
   13      H       1.5375948198    -1.7440999197    -1.2001500500
 ----------------------------------------------------------------
 Molecular Point Group                 C1    NOp =  1
 Largest Abelian Subgroup              C1    NOp =  1
 Nuclear Repulsion Energy =         161.56778495 hartrees
 There are       21 alpha and       21 beta electrons
 Requested basis set is def2-TZVPPD
 There are 122 shells and 318 basis functions

 Q-Chem warning in module libmdc/get_mega.C, line 171:

 Allowed MEM_STATIC has been capped at MEM_STATIC=8191.
 Reduce the value of MEM_STATIC to silence this warning.


 Total QAlloc Memory Limit  50000 MB
 Mega-Array Size      8007 MB
 MEM_STATIC part      8191 MB

                       Distance Matrix (Angstroms)
             Li(  1)   O (  2)   H (  3)   H (  4)   O (  5)   H (  6)
   O (  2)  1.898974
   H (  3)  2.585320  0.963239
   H (  4)  2.624376  0.942729  1.466790
   O (  5)  1.861755  3.114353  3.910064  3.590140
   H (  6)  2.597749  3.721795  4.611890  3.990495  1.040732
   H (  7)  2.453304  3.212045  3.927741  3.620678  0.969065  1.532134
   O (  8)  2.117804  3.227667  3.880263  3.597966  3.322502  3.522081
   H (  9)  2.684168  3.549179  4.314554  3.679324  3.503981  3.415721
   H ( 10)  2.678579  4.087731  4.708707  4.535585  3.644007  3.805589
   O ( 11)  1.950443  2.984228  3.086602  3.918835  3.117926  4.084633
   H ( 12)  2.341744  3.771483  3.989436  4.677807  3.191826  4.089170
   H ( 13)  2.637703  3.317294  3.179452  4.235067  4.044128  4.986008
             H (  7)   O (  8)   H (  9)   H ( 10)   O ( 11)   H ( 12)
   O (  8)  4.165486
   H (  9)  4.317561  1.017789
   H ( 10)  4.570684  0.980649  1.584496
   O ( 11)  3.493479  3.397892  4.269173  3.613120
   H ( 12)  3.701957  3.453654  4.345814  3.406333  0.958794
   H ( 13)  4.417001  3.723119  4.667517  3.930680  0.972208  1.531654

 
 A cutoff of  1.0D-14 yielded   6953 shell pairs
 There are     47373 function pairs (     57637 Cartesian)
 Smallest overlap matrix eigenvalue = 9.66E-05

 Scale SEOQF with 1.000000e-01/1.000000e-01/1.000000e-01

 Standard Electronic Orientation quadrupole field applied
 Nucleus-field energy     =     0.0000000008 hartrees

 -----------------------------------------------------------------------
  General SCF calculation program by
  Eric Jon Sundstrom, Paul Horn, Yuezhi Mao, Dmitri Zuev, Alec White,
  David Stuck, Shaama M.S., Shane Yost, Joonho Lee, David Small,
  Daniel Levine, Susi Lehtola, Hugh Burton, Evgeny Epifanovsky,
  Bang C. Huynh
 -----------------------------------------------------------------------
================================================================
                 ALMO-EDA with the EDA2 driver                  
================================================================
 The second-generation ALMO-EDA (for DFT):                      
 P. R. Horn, Y. Mao and M. Head-Gordon, PCCP, 18, 23067 (2016)  
 Y. Mao et al. Annu. Rev. Phys. Chem. 72, 641 (2021)            
 Decomposition of the frozen energy:                            
 P. R. Horn, Y. Mao and M. Head-Gordon, JCP, 144, 114107 (2016) 
 FERF model for polarization:                                   
 P. R. Horn and M. Head-Gordon, JCP, 143, 114111 (2015)         
================================================================
 Using eda2 option set 1
 Option set summary: Frozen orbital wavefunction, initial wavefunction decomposition, and nDQ polarization.
--------------------------------
Printing EDA Options
--------------------------------
eda_child_super_basis      0
fragmo_guess_mode          0
child_mp                   1
child_mp_orders            232
cls_elec                   1
cls_disp                   1
scfmi_mode                 1
scfmi_occs                 0
scfmi_virts                0
frz_relax                  0
frz_relax_method           0
dc_pen_start               0
dc_pen_conv                0
dc_pen_increment           0
dc_pen_steps               0
dc_pen_thresh_factor       0
dc_pen_pre_newton_thresh   0
frz_ortho_decomp           1
frz_ortho_decomp_conv      6
plot_mo_ortho_frz          0
frgm_method                2
scfmi_freeze_ss            0
separate_rehyb             0
plot_diff_den              0
eda_nocv                   0
eda_vct_relax              1
disp_free_x                0
disp_free_c                0
eda_bsse                   0
eda_pct_a                  0
eda_covp                   0
--------------------------------
Attempting to make child job directory: /scratch/qchem678240//Frg1/
Attempting to make child job directory: /scratch/qchem678240//Frg2/
Creating input file /scratch/qchem678240/Frg1.input
using default PutDataFrgm: nothing
calling putenv with: QCSCRATCH=/scratch/qchem678240/ 
Spawning Job For Fragment 0
Done Job For Fragment 0
calling putenv with: QCSCRATCH=/scratch 
calling putenv with: QCTHREADS=6 
Creating input file /scratch/qchem678240/Frg2.input
using default PutDataFrgm: nothing
calling putenv with: QCSCRATCH=/scratch/qchem678240/ 
Spawning Job For Fragment 1
Done Job For Fragment 1
calling putenv with: QCSCRATCH=/scratch 
calling putenv with: QCTHREADS=6 
Doing General SCFMI
 Exchange:     0.1500 Hartree-Fock + 1.0000 wB97M-V + LR-HF
 Correlation:  1.0000 wB97M-V
 Using Euler-Maclaurin-Lebedev (99,590) quadrature formula
 Nonlocal Correlation:  VV10 with C = 0.0100 and b = 6.00 and scale = 1.00000
 Grid used for NLC:  SG-1 standard quadrature
performing fock build before subrot guess so that all methods have access
Printing subrot_rss_gen Method Specification:
Occupied Subspace Method is 0
Virtual Subspace Method is 0
Energy of the unrelaxed supersystem initial determinant -313.102664496119
write pseudocanon occs and virts to disk
write pseudocanon orbital energies to disk
Tolerance of ortho_decomp_scf: 1.00e-06
GDM subspace size: 20
Beginning the Orthogonal Decomposition of the Initial Supersystem Wavefunction
    1    -312.9318054319      2.15e-01     ortho_decomp Preconditoned Steepest Descent
    2    -312.9340669944      2.36e-03     ortho_decomp BFGS Step
    3    -312.9340677848      7.84e-05     ortho_decomp BFGS Step
    4    -312.9340677861      3.14e-06     ortho_decomp BFGS Step
    5    -312.9340677861      5.49e-08     ortho_decomp 00000 Convergence criterion met
 Hartree-Fock
 Hartree-Fock
 Hartree-Fock
 Exchange:     0.1500 Hartree-Fock + 1.0000 wB97M-V + LR-HF
 Correlation:  1.0000 wB97M-V
 Using Euler-Maclaurin-Lebedev (99,590) quadrature formula
 Nonlocal Correlation:  VV10 with C = 0.0100 and b = 6.00 and scale = 1.00000
 Grid used for NLC:  SG-1 standard quadrature
 Long-range K will be added via erf
 Coulomb attenuation parameter = 0.3 bohr**(-1)
 Nonlocal correlation = 1.755138330595e-01
Doing General SCFMI
 Exchange:     0.1500 Hartree-Fock + 1.0000 wB97M-V + LR-HF
 Correlation:  1.0000 wB97M-V
 Using Euler-Maclaurin-Lebedev (99,590) quadrature formula
 Nonlocal Correlation:  VV10 with C = 0.0100 and b = 6.00 and scale = 1.00000
 Grid used for NLC:  SG-1 standard quadrature
performing fock build at end of subrot_r(subrot) constructor so that all methods have access
<S^2> of initial wavefunction before polarization iterations 0.0000000000
Beginning iterations for the determination of the polarized wavefunction
Energy prior to optimization (guess energy) = -313.102664496119
Begin Timing: Total SCF Calculation
begin iterations for algorithm: DIIS         
the SCF tolerance is set to 1.00e-08
    1    -313.1026644961      1.51e-03     00000 
    2    -313.1525046056      7.89e-04     00000 
    3    -313.1588610394      3.10e-04     00000 
    4    -313.1598745658      5.85e-05     00000 
    5    -313.1599310360      1.15e-05     00000 
    6    -313.1599346181      7.86e-06     00000 
    7    -313.1599354667      1.17e-06     00000 
    8    -313.1599355379      1.97e-07     00000 
    9    -313.1599355393      1.41e-07     00000 
   10    -313.1599355396      2.21e-08     00000 
   11    -313.1599355397      5.16e-09     00000 Convergence criterion met
write pseudocanon occs and virts to disk
write pseudocanon orbital energies to disk
Timing for Total SCF: 91.00s (wall), 543.33s (cpu)
<S^2> of polarized wavefunction after polarization iterations 0.0000000000
relaxing scfmi constraint to allow all rotations in the entire AO span
Doing General SCFMI
 Exchange:     0.1500 Hartree-Fock + 1.0000 wB97M-V + LR-HF
 Correlation:  1.0000 wB97M-V
 Using Euler-Maclaurin-Lebedev (99,590) quadrature formula
 Nonlocal Correlation:  VV10 with C = 0.0100 and b = 6.00 and scale = 1.00000
 Grid used for NLC:  SG-1 standard quadrature
performing fock build at end of subrot_r(subrot) constructor so that all methods have access
<S^2> of polarized wavefunction before ct-allowed iterations 0.0000000000
Beginning iterations for the determination of the CT-Allowed wavefunction
Energy prior to optimization (guess energy) = -313.159935539665
Begin Timing: Total SCF Calculation
begin iterations for algorithm: DIIS         
the SCF tolerance is set to 1.00e-08
    1    -313.1599355397      5.23e-04     00000 
    2    -313.1680300555      4.28e-05     00000 
    3    -313.1681363072      9.45e-06     00000 
    4    -313.1681381452      7.25e-06     00000 
    5    -313.1681397721      8.54e-07     00000 
    6    -313.1681398011      1.13e-07     00000 
    7    -313.1681398021      7.15e-08     00000 
    8    -313.1681398022      1.34e-08     00000 
    9    -313.1681398023      1.86e-09     00000 Convergence criterion met
write pseudocanon occs and virts to disk
write pseudocanon orbital energies to disk
Timing for Total SCF: 72.00s (wall), 431.59s (cpu)
<S^2> of ct_allowed wavefunction after ct-allowed iterations 0.0000000000

================================
        Results of EDA2         
================================
Basic EDA Quantities
--------------------
Fragment Energies (Ha):
1   -7.2758394981
2 -305.7224080844
--------------------
  E_prp (kJ/mol) = -0.0000
  E_frz (kJ/mol) = -274.1499
  E_pol (kJ/mol) = -150.3669
  E_vct (kJ/mol) = -21.5405
  E_int (kJ/mol) = -446.0573
--------------------


Decomposition of frozen interaction energy
--------------------
  --------------------
  Orthogonal Frozen Decomposition:
  --------------------
     E_elec   (ELEC)   (kJ/mol) = -410.0087
     E_pauli  (PAULI)  (kJ/mol) = 149.1370
     E_disp   (DISP)   (kJ/mol) = -13.2782
  --------------------
  Classical Frozen Decomposition:
  --------------------
     E_cls_elec  (CLS ELEC)  (kJ/mol) = -387.8305
     E_mod_pauli (MOD PAULI) (kJ/mol) = 125.1092 (FRZ - CLS ELEC - CLS DISP)
     E_cls_disp  (CLS DISP)  (kJ/mol) = -11.4286
  --------------------
--------------------

Simplified EDA Summary (kJ/mol)
--------------------
 PREPARATION      -0.0000
 FROZEN           -274.1499 (ELEC + PAULI + DISP)
[ELEC + PAULI = -262.7213, DISP = -11.4286]
 POLARIZATION    -150.3669
 CHARGE TRANSFER -21.5405
 TOTAL           -446.0573     (PRP + FRZ + POL + CT)
--------------------
 
 --------------------------------------------------------------
 
                    Orbital Energies (a.u.)
 --------------------------------------------------------------
 
 Alpha MOs
 -- Occupied --
-19.5301 -19.5188 -19.5175 -19.5170  -2.2089  -1.3313  -1.3229  -1.3179
 -1.3040  -0.8222  -0.8158  -0.8016  -0.8003  -0.7240  -0.7146  -0.6927
 -0.6858  -0.6232  -0.6159  -0.6105  -0.6052
 -- Virtual --
 -0.1315  -0.1034  -0.1003  -0.0930  -0.0541  -0.0461  -0.0454  -0.0402
 -0.0265  -0.0097  -0.0066  -0.0021   0.0023   0.0062   0.0092   0.0129
  0.0192   0.0307   0.0421   0.0438   0.0587   0.0662   0.0691   0.0803
  0.1033   0.1147   0.1169   0.1286   0.1355   0.1387   0.1474   0.1563
  0.1691   0.1739   0.1756   0.1865   0.1907   0.1938   0.1981   0.2025
  0.2094   0.2174   0.2260   0.2314   0.2372   0.2442   0.2456   0.2497
  0.2533   0.2578   0.2632   0.2688   0.2782   0.2899   0.2990   0.3101
  0.3192   0.3228   0.3370   0.3385   0.3588   0.3761   0.3900   0.4100
  0.4200   0.4374   0.4546   0.4645   0.4689   0.4865   0.4958   0.5108
  0.5279   0.5363   0.5386   0.5442   0.5594   0.5768   0.5820   0.5962
  0.6119   0.6202   0.6297   0.6423   0.6613   0.6741   0.6789   0.7121
  0.7279   0.7473   0.7509   0.7742   0.7909   0.8005   0.8259   0.8359
  0.8813   0.8950   0.9168   0.9347   0.9404   0.9682   0.9757   0.9941
  0.9966   1.0160   1.0303   1.0401   1.0428   1.0659   1.0712   1.0847
  1.1084   1.1172   1.1387   1.1521   1.1606   1.1918   1.1995   1.2098
  1.2160   1.2299   1.2486   1.2576   1.2856   1.3047   1.3154   1.3281
  1.3448   1.3677   1.3766   1.3939   1.7306   1.8048   1.8142   1.8215
  1.8218   1.8398   1.8570   1.8787   1.8883   1.9442   1.9689   1.9960
  2.0391   2.0505   2.0728   2.1089   2.1405   2.1575   2.2016   2.2336
  2.2380   2.5203   2.5438   2.5892   2.5977   2.7055   2.7453   2.7745
  2.7973   2.8384   2.8521   2.8892   2.9037   3.0153   3.0529   3.0658
  3.0774   3.0970   3.1282   3.1406   3.1591   3.1727   3.1844   3.2035
  3.2053   3.2441   3.2582   3.2716   3.2738   3.2831   3.3009   3.3160
  3.3266   3.3388   3.3425   3.3481   3.3660   3.3738   3.3817   3.4072
  3.4428   3.5085   3.5420   3.5715   3.6061   3.6951   3.7474   3.7593
  3.7874   3.8221   3.8428   3.8687   3.8856   3.9431   3.9557   3.9683
  3.9887   3.9900   4.0080   4.0099   4.0290   4.0332   4.0477   4.0591
  4.0692   4.0798   4.0806   4.1124   4.1384   4.1450   4.1745   4.2088
  4.2567   4.4971   4.5069   4.5467   4.5846   4.5993   4.6221   4.6264
  4.7106   4.7783   4.8235   4.8526   4.8952   4.9960   5.0278   5.0817
  5.1886   5.4526   5.4668   5.5188   5.5525   5.9696   6.0133   6.0954
  6.0974   6.1480   6.1774   6.2214   6.2428   6.2938   6.3073   6.3685
  6.3794   6.3888   6.3945   6.4283   6.4367   6.4495   6.4521   6.5137
  6.5311   6.5433   6.5827   6.6116   6.6297   6.6500   6.6606   6.6807
  6.7000   6.7061   6.7372   6.7908   6.8186   6.8652   6.9027   6.9362
  7.2922   7.2998   7.3604   7.3782   7.4065   7.4715   7.4999   7.5442
  7.6221   7.6316   7.7103   7.7279  15.0365  44.1066  44.1690  44.2343
 44.2774
 --------------------------------------------------------------
 
          Ground-State Mulliken Net Atomic Charges

     Atom                 Charge (a.u.)
  ----------------------------------------
      1 Li                    0.848433
      2 O                    -0.247928
      3 H                     0.163163
      4 H                     0.125612
      5 O                    -0.422745
      6 H                     0.253298
      7 H                     0.206270
      8 O                    -0.434793
      9 H                     0.242914
     10 H                     0.212985
     11 O                    -0.344097
     12 H                     0.205693
     13 H                     0.191194
  ----------------------------------------
  Sum of atomic charges =     1.000000

 -----------------------------------------------------------------
                    Cartesian Multipole Moments
 -----------------------------------------------------------------
    Charge (ESU x 10^10)
                 4.8032
    Dipole Moment (Debye)
         X      -1.3044      Y       0.7521      Z       0.6723
       Tot       1.6490
    Quadrupole Moments (Debye-Ang)
        XX     -12.9646     XY      -5.6090     YY     -12.5986
        XZ       2.6751     YZ       3.9349     ZZ     -11.4556
    Octopole Moments (Debye-Ang^2)
       XXX     -27.1267    XXY      -5.7076    XYY       9.0108
       YYY      25.0524    XXZ       1.6992    XYZ      -2.7894
       YYZ      -2.8951    XZZ       6.3698    YZZ     -13.8049
       ZZZ      13.4080
    Hexadecapole Moments (Debye-Ang^3)
      XXXX    -182.7623   XXXY      -7.2433   XXYY     -56.1564
      XYYY     -29.6201   YYYY    -133.1646   XXXZ      13.3823
      XXYZ       5.5625   XYYZ       0.8780   YYYZ      16.6495
      XXZZ     -56.5603   XYZZ     -11.1230   YYZZ     -69.0800
      XZZZ      12.1909   YZZZ       7.4442   ZZZZ    -108.9265
 -----------------------------------------------------------------
 Total job time:  856.63s(wall), 1854.95s(cpu) 
 Tue Jan  9 12:11:12 2024

        *************************************************************
        *                                                           *
        *  Thank you very much for using Q-Chem.  Have a nice day.  *
        *                                                           *
        *************************************************************


