
Running Job 1 of 1 118_Li-Water_Cls_053_almo.in
qchem 118_Li-Water_Cls_053_almo.in_696996.0 /scratch/qchem696996/ 6
/home/kchung25/qchem/5.4.0/exe/qcprog.exe_s 118_Li-Water_Cls_053_almo.in_696996.0 /scratch/qchem696996/
                  Welcome to Q-Chem
     A Quantum Leap Into The Future Of Chemistry


 Q-Chem 5.4, Q-Chem, Inc., Pleasanton, CA (2021)

 E. Epifanovsky,  A. T. B. Gilbert,  Xintian Feng,  Joonho Lee,  Yuezhi Mao,  
 N. Mardirossian,  P. Pokhilko,  A. White,  M. Wormit,  M. P. Coons,  
 A. L. Dempwolff,  Zhengting Gan,  D. Hait,  P. R. Horn,  L. D. Jacobson,  
 I. Kaliman,  J. Kussmann,  A. W. Lange,  Ka Un Lao,  D. S. Levine,  Jie Liu,  
 S. C. McKenzie,  A. F. Morrison,  K. Nanda,  F. Plasser,  D. R. Rehn,  
 M. L. Vidal,  Zhi-Qiang You,  Ying Zhu,  B. Alam,  B. Albrecht,  
 A. Aldossary,  E. Alguire,  J. H. Andersen,  D. Barton,  K. Begam,  A. Behn,  
 Y. A. Bernard,  E. J. Berquist,  H. Burton,  A. Carreras,  K. Carter-Fenk,  
 Romit Chakraborty,  A. D. Chien,  K. D. Closser,  V. Cofer-Shabica,  
 S. Dasgupta,  Jia Deng,  M. de Wergifosse,  M. Diedenhofen,  Hainam Do,  
 S. Ehlert,  Po-Tung Fang,  S. Fatehi,  Qingguo Feng,  T. Friedhoff,  
 J. Gayvert,  Qinghui Ge,  G. Gidofalvi,  M. Goldey,  J. Gomes,  
 C. Gonzalez-Espinoza,  S. Gulania,  A. Gunina,  M. W. D. Hanson-Heine,  
 P. H. P. Harbach,  A. W. Hauser,  M. F. Herbst,  M. Hernandez Vera,  
 M. Hodecker,  Z. C. Holden,  S. Houck,  Xunkun Huang,  Kerwin Hui,  
 B. C. Huynh,  M. Ivanov,  Hyunjun Ji,  Hanjie Jiang,  B. Kaduk,  S. Kaehler,  
 K. Khistyaev,  Jaehoon Kim,  P. Klunzinger,  Z. Koczor-Benda,  
 Joong Hoon Koh,  D. Kosenkov,  L. Koulias,  T. Kowalczyk,  C. M. Krauter,  
 K. Kue,  A. Kunitsa,  T. Kus,  A. Landau,  K. V. Lawler,  D. Lefrancois,  
 S. Lehtola,  Rain Li,  Yi-Pei Li,  Jiashu Liang,  M. Liebenthal,  
 Hung-Hsuan Lin,  You-Sheng Lin,  Fenglai Liu,  Kuan-Yu Liu,  
 M. Loipersberger,  A. Luenser,  A. Manjanath,  P. Manohar,  E. Mansoor,  
 S. F. Manzer,  Shan-Ping Mao,  A. V. Marenich,  T. Markovich,  S. Mason,  
 S. A. Maurer,  P. F. McLaughlin,  M. F. S. J. Menger,  J.-M. Mewes,  
 S. A. Mewes,  P. Morgante,  J. W. Mullinax,  K. J. Oosterbaan,  G. Paran,  
 Alexander C. Paul,  Suranjan K. Paul,  F. Pavosevic,  Zheng Pei,  S. Prager,  
 E. I. Proynov,  E. Ramos,  B. Rana,  A. E. Rask,  A. Rettig,  R. M. Richard,  
 F. Rob,  E. Rossomme,  T. Scheele,  M. Scheurer,  M. Schneider,  
 N. Sergueev,  S. M. Sharada,  W. Skomorowski,  D. W. Small,  C. J. Stein,  
 Yu-Chuan Su,  E. J. Sundstrom,  Zhen Tao,  J. Thirman,  T. Tsuchimochi,  
 N. M. Tubman,  S. P. Veccham,  O. Vydrov,  J. Wenzel,  J. Witte,  A. Yamada,  
 Kun Yao,  S. Yeganeh,  S. R. Yost,  A. Zech,  Igor Ying Zhang,  Xing Zhang,  
 Yu Zhang,  D. Zuev,  A. Aspuru-Guzik,  A. T. Bell,  N. A. Besley,  
 K. B. Bravaya,  B. R. Brooks,  D. Casanova,  Jeng-Da Chai,  S. Coriani,  
 C. J. Cramer,  A. E. DePrince, III,  R. A. DiStasio Jr.,  A. Dreuw,  
 B. D. Dunietz,  T. R. Furlani,  W. A. Goddard III,  S. Grimme,  
 S. Hammes-Schiffer,  T. Head-Gordon,  W. J. Hehre,  Chao-Ping Hsu,  
 T.-C. Jagau,  Yousung Jung,  A. Klamt,  Jing Kong,  D. S. Lambrecht,  
 WanZhen Liang,  N. J. Mayhall,  C. W. McCurdy,  J. B. Neaton,  T. Neudecker,  
 C. Ochsenfeld,  J. A. Parkhill,  R. Peverati,  V. A. Rassolov,  Yihan Shao,  
 L. V. Slipchenko,  R. P. Steele,  J. E. Subotnik,  A. J. W. Thom,  
 A. Tkatchenko,  D. G. Truhlar,  T. Van Voorhis,  T. A. Wesolowski,  
 K. B. Whaley,  H. L. Woodcock III,  P. M. Zimmerman,  S. Faraji,  
 P. M. W. Gill,  M. Head-Gordon,  J. M. Herbert,  A. I. Krylov

 Additional authors since Version 5.4.0: 
 Chandrima Chakravarty,  L. Cunha,  R. Kang,  Yongbin Kim,  S. Kotaru,  
 Shaozhi Li,  Xiangyuan Li,  F. Matz,  A. Molle,  V. Parravicini,  
 Haisheng Ren,  Hengyuan Shen,  Yingli Su,  Hung-Yi Tsai,  C. Utku,  
 Fang Wang,  Jeff Yang,  F. Zeller

 Contributors to earlier versions of Q-Chem not listed above: 
 R. D. Adamson,  B. Austin,  R. Baer,  J. Baker,  G. J. O. Beran,  
 K. Brandhorst,  S. T. Brown,  E. F. C. Byrd,  Arup K. Chakraborty,  
 G. K. L. Chan,  Chun-Min Chang,  Yunqing Chen,  C.-L. Cheng,  
 Siu Hung Chien,  D. M. Chipman,  D. L. Crittenden,  H. Dachsel,  
 R. J. Doerksen,  A. D. Dutoi,  R. G. Edgar,  J. Fosso-Tande,  
 L. Fusti-Molnar,  D. Ghosh,  A. Ghysels,  A. Golubeva-Zadorozhnaya,  
 J. Gonthier,  M. S. Gordon,  S. R. Gwaltney,  G. Hawkins,  J. E. Herr,  
 A. Heyden,  S. Hirata,  E. G. Hohenstein,  G. Kedziora,  F. J. Keil,  
 C. Kelley,  Jihan Kim,  R. A. King,  R. Z. Khaliullin,  P. P. Korambath,  
 W. Kurlancheek,  A. Laurent,  A. M. Lee,  M. S. Lee,  S. V. Levchenko,  
 Ching Yeh Lin,  D. Liotard,  E. Livshits,  R. C. Lochan,  I. Lotan,  
 L. A. Martinez-Martinez,  P. E. Maslen,  N. Nair,  D. P. O'Neill,  
 D. Neuhauser,  E. Neuscamman,  C. M. Oana,  R. Olivares-Amaya,  R. Olson,  
 T. M. Perrine,  B. Peters,  P. A. Pieniazek,  A. Prociuk,  Y. M. Rhee,  
 J. Ritchie,  M. A. Rohrdanz,  E. Rosta,  N. J. Russ,  H. F. Schaefer III,  
 M. W. Schmidt,  N. E. Schultz,  S. Sharma,  N. Shenvi,  C. D. Sherrill,  
 A. C. Simmonett,  A. Sodt,  T. Stein,  D. Stuck,  K. S. Thanthiriwatte,  
 V. Vanovschi,  L. Vogt,  Tao Wang,  A. Warshel,  M. A. Watson,  
 C. F. Williams,  Q. Wu,  X. Xu,  Jun Yang,  W. Zhang,  Yan Zhao

   Please cite Q-Chem as follows:
  "Software for the frontiers of quantum chemistry:
   An overview of developments in the Q-Chem 5 package"
   J. Chem. Phys. 155, 084801 (2021)
   https://doi.org/10.1063/5.0055522 (open access)

 Q-Chem 5.4.2 for Intel X86 EM64T Linux

 Parts of Q-Chem use Armadillo 9.900.5 (Nocturnal Misbehaviour).
 http://arma.sourceforge.net/

 Q-Chem begins on Tue Jan  9 20:56:55 2024  

 Host: 
0

     Scratch files written to /scratch/qchem696996//
 Dec1321 |scratch|qcdevops|jenkins|workspace|build_RNUM 5684   
 Processing $rem in /home/kchung25/qchem/5.4.0/config/preferences:
 Processing $rem in /home/kchung25/.qchemrc:

 Q-Chem warning in module libgen/rem_setup.C, line 3079:

 Neither GIA nor STOLL is specified by user. Use STOLL as the default


 Checking the input file for inconsistencies... 	...done.

--------------------------------------------------------------
User input:
--------------------------------------------------------------
$molecule
1 1
--
1 1
Li     0.000000     0.000000     0.000000
--
0 1
O      1.650053    -0.530993    -1.064242
H      2.392035    -0.101949    -0.686952
H      1.463285    -0.258144    -1.959656
O     -0.289415    -0.712498     1.685242
H     -1.101029    -0.657522     2.234823
H     -0.070434    -1.611500     1.899930
O      0.217487     1.895362     0.182598
H     -0.273195     2.192923     0.988240
H      1.131525     2.307122     0.234605
O     -1.285096    -0.509246    -1.306926
H     -0.917246    -0.560268    -2.152485
H     -1.585156    -1.421720    -1.166242
$end

$rem
JOBTYPE          eda
EDA2             1
METHOD           wB97M-V
BASIS            def2-TZVPPD
SYMMETRY         false
MEM_TOTAL        50000
MEM_STATIC       10000
THRESH           14
SCF_CONVERGENCE  8
XC_GRID          000099000590
NL_GRID          1
EDA_CLS_DISP     true
FD_MAT_VEC_PROD  FALSE
$end
--------------------------------------------------------------
 ----------------------------------------------------------------
             Standard Nuclear Orientation (Angstroms)
    I     Atom           X                Y                Z
 ----------------------------------------------------------------
    1      Li     -0.1226245705     0.0570663501     0.0094534993
    2      O       1.4543397082    -0.4192825798    -1.1836579221
    3      H       1.2697556613    -1.2377983135    -1.5994998509
    4      H       2.2066169240    -0.4480347014    -0.5968467087
    5      O      -1.7086541924     0.6538706374    -0.7387374670
    6      H      -2.4822805079     1.0500152668    -0.2822830030
    7      H      -1.7279688027     1.2195399780    -1.5015568129
    8      O      -0.4735142876    -1.5969910106     0.9116787427
    9      H      -1.4219580491    -1.6081588096     1.1922141549
   10      H      -0.2964265272    -2.4772089857     0.4627102221
   11      O       0.7832519674     1.3443620648     1.0776839184
   12      H       1.6999188441     1.2364364971     1.0466871710
   13      H       0.6768306042     2.2383371233     0.7144761535
 ----------------------------------------------------------------
 Molecular Point Group                 C1    NOp =  1
 Largest Abelian Subgroup              C1    NOp =  1
 Nuclear Repulsion Energy =         165.24455946 hartrees
 There are       21 alpha and       21 beta electrons
 Requested basis set is def2-TZVPPD
 There are 122 shells and 318 basis functions

 Q-Chem warning in module libmdc/get_mega.C, line 171:

 Allowed MEM_STATIC has been capped at MEM_STATIC=8191.
 Reduce the value of MEM_STATIC to silence this warning.


 Total QAlloc Memory Limit  50000 MB
 Mega-Array Size      8007 MB
 MEM_STATIC part      8191 MB

                       Distance Matrix (Angstroms)
             Li(  1)   O (  2)   H (  3)   H (  4)   O (  5)   H (  6)
   O (  2)  2.034021
   H (  3)  2.490809  0.936463
   H (  4)  2.459287  0.954513  1.583272
   O (  5)  1.852419  3.369591  3.631838  4.069850
   H (  6)  2.576632  4.297475  4.587693  4.932430  0.981722
   H (  7)  2.492314  3.593590  3.877429  4.368097  0.949867  1.443729
   O (  8)  1.916518  3.081242  3.077991  3.283116  3.052183  3.530910
   H (  9)  2.420778  3.915518  3.895659  4.208703  2.987900  3.219366
   H ( 10)  2.580349  3.163980  2.870849  3.391966  3.638890  4.215956
   O ( 11)  1.902330  2.945245  3.751207  2.835967  3.160026  3.549627
   H ( 12)  2.405916  2.788576  3.648175  2.407362  3.891721  4.392232
   H ( 13)  2.427782  3.357138  4.217767  3.358036  3.211371  3.519321
             H (  7)   O (  8)   H (  9)   H ( 10)   O ( 11)   H ( 12)
   O (  8)  3.915381
   H (  9)  3.917388  0.989126
   H ( 10)  4.424207  1.003851  1.598201
   O ( 11)  3.601985  3.202901  3.686929  4.018495
   H ( 12)  4.271328  3.573563  4.225993  4.256476  0.923519
   H ( 13)  3.425173  4.008980  4.407797  4.821513  0.970792  1.469993

 
 A cutoff of  1.0D-14 yielded   7006 shell pairs
 There are     47806 function pairs (     58179 Cartesian)
 Smallest overlap matrix eigenvalue = 9.03E-05

 Scale SEOQF with 1.000000e-01/1.000000e-01/1.000000e-01

 Standard Electronic Orientation quadrupole field applied
 Nucleus-field energy     =     0.0000000024 hartrees

 -----------------------------------------------------------------------
  General SCF calculation program by
  Eric Jon Sundstrom, Paul Horn, Yuezhi Mao, Dmitri Zuev, Alec White,
  David Stuck, Shaama M.S., Shane Yost, Joonho Lee, David Small,
  Daniel Levine, Susi Lehtola, Hugh Burton, Evgeny Epifanovsky,
  Bang C. Huynh
 -----------------------------------------------------------------------
================================================================
                 ALMO-EDA with the EDA2 driver                  
================================================================
 The second-generation ALMO-EDA (for DFT):                      
 P. R. Horn, Y. Mao and M. Head-Gordon, PCCP, 18, 23067 (2016)  
 Y. Mao et al. Annu. Rev. Phys. Chem. 72, 641 (2021)            
 Decomposition of the frozen energy:                            
 P. R. Horn, Y. Mao and M. Head-Gordon, JCP, 144, 114107 (2016) 
 FERF model for polarization:                                   
 P. R. Horn and M. Head-Gordon, JCP, 143, 114111 (2015)         
================================================================
 Using eda2 option set 1
 Option set summary: Frozen orbital wavefunction, initial wavefunction decomposition, and nDQ polarization.
--------------------------------
Printing EDA Options
--------------------------------
eda_child_super_basis      0
fragmo_guess_mode          0
child_mp                   1
child_mp_orders            232
cls_elec                   1
cls_disp                   1
scfmi_mode                 1
scfmi_occs                 0
scfmi_virts                0
frz_relax                  0
frz_relax_method           0
dc_pen_start               0
dc_pen_conv                0
dc_pen_increment           0
dc_pen_steps               0
dc_pen_thresh_factor       0
dc_pen_pre_newton_thresh   0
frz_ortho_decomp           1
frz_ortho_decomp_conv      6
plot_mo_ortho_frz          0
frgm_method                2
scfmi_freeze_ss            0
separate_rehyb             0
plot_diff_den              0
eda_nocv                   0
eda_vct_relax              1
disp_free_x                0
disp_free_c                0
eda_bsse                   0
eda_pct_a                  0
eda_covp                   0
--------------------------------
Attempting to make child job directory: /scratch/qchem696996//Frg1/
Attempting to make child job directory: /scratch/qchem696996//Frg2/
Creating input file /scratch/qchem696996/Frg1.input
using default PutDataFrgm: nothing
calling putenv with: QCSCRATCH=/scratch/qchem696996/ 
Spawning Job For Fragment 0
Done Job For Fragment 0
calling putenv with: QCSCRATCH=/scratch 
calling putenv with: QCTHREADS=6 
Creating input file /scratch/qchem696996/Frg2.input
using default PutDataFrgm: nothing
calling putenv with: QCSCRATCH=/scratch/qchem696996/ 
Spawning Job For Fragment 1
Done Job For Fragment 1
calling putenv with: QCSCRATCH=/scratch 
calling putenv with: QCTHREADS=6 
Doing General SCFMI
 Exchange:     0.1500 Hartree-Fock + 1.0000 wB97M-V + LR-HF
 Correlation:  1.0000 wB97M-V
 Using Euler-Maclaurin-Lebedev (99,590) quadrature formula
 Nonlocal Correlation:  VV10 with C = 0.0100 and b = 6.00 and scale = 1.00000
 Grid used for NLC:  SG-1 standard quadrature
performing fock build before subrot guess so that all methods have access
Printing subrot_rss_gen Method Specification:
Occupied Subspace Method is 0
Virtual Subspace Method is 0
Energy of the unrelaxed supersystem initial determinant -313.095365361392
write pseudocanon occs and virts to disk
write pseudocanon orbital energies to disk
Tolerance of ortho_decomp_scf: 1.00e-06
GDM subspace size: 20
Beginning the Orthogonal Decomposition of the Initial Supersystem Wavefunction
    1    -312.9224266197      2.15e-01     ortho_decomp Preconditoned Steepest Descent
    2    -312.9247273360      2.46e-03     ortho_decomp BFGS Step
    3    -312.9247282603      8.65e-05     ortho_decomp BFGS Step
    4    -312.9247282618      3.31e-06     ortho_decomp BFGS Step
    5    -312.9247282618      6.23e-08     ortho_decomp 00000 Convergence criterion met
 Hartree-Fock
 Hartree-Fock
 Hartree-Fock
 Exchange:     0.1500 Hartree-Fock + 1.0000 wB97M-V + LR-HF
 Correlation:  1.0000 wB97M-V
 Using Euler-Maclaurin-Lebedev (99,590) quadrature formula
 Nonlocal Correlation:  VV10 with C = 0.0100 and b = 6.00 and scale = 1.00000
 Grid used for NLC:  SG-1 standard quadrature
 Long-range K will be added via erf
 Coulomb attenuation parameter = 0.3 bohr**(-1)
 Nonlocal correlation = 1.751454704251e-01
Doing General SCFMI
 Exchange:     0.1500 Hartree-Fock + 1.0000 wB97M-V + LR-HF
 Correlation:  1.0000 wB97M-V
 Using Euler-Maclaurin-Lebedev (99,590) quadrature formula
 Nonlocal Correlation:  VV10 with C = 0.0100 and b = 6.00 and scale = 1.00000
 Grid used for NLC:  SG-1 standard quadrature
performing fock build at end of subrot_r(subrot) constructor so that all methods have access
<S^2> of initial wavefunction before polarization iterations 0.0000000000
Beginning iterations for the determination of the polarized wavefunction
Energy prior to optimization (guess energy) = -313.095365361392
Begin Timing: Total SCF Calculation
begin iterations for algorithm: DIIS         
the SCF tolerance is set to 1.00e-08
    1    -313.0953653614      1.54e-03     00000 
    2    -313.1470179856      7.52e-04     00000 
    3    -313.1527281023      2.95e-04     00000 
    4    -313.1536417240      6.03e-05     00000 
    5    -313.1536976076      9.83e-06     00000 
    6    -313.1537009412      6.18e-06     00000 
    7    -313.1537014768      1.20e-06     00000 
    8    -313.1537015432      1.42e-07     00000 
    9    -313.1537015444      5.60e-08     00000 
   10    -313.1537015445      2.64e-08     00000 
   11    -313.1537015445      5.11e-09     00000 Convergence criterion met
write pseudocanon occs and virts to disk
write pseudocanon orbital energies to disk
Timing for Total SCF: 93.00s (wall), 559.43s (cpu)
<S^2> of polarized wavefunction after polarization iterations 0.0000000000
relaxing scfmi constraint to allow all rotations in the entire AO span
Doing General SCFMI
 Exchange:     0.1500 Hartree-Fock + 1.0000 wB97M-V + LR-HF
 Correlation:  1.0000 wB97M-V
 Using Euler-Maclaurin-Lebedev (99,590) quadrature formula
 Nonlocal Correlation:  VV10 with C = 0.0100 and b = 6.00 and scale = 1.00000
 Grid used for NLC:  SG-1 standard quadrature
performing fock build at end of subrot_r(subrot) constructor so that all methods have access
<S^2> of polarized wavefunction before ct-allowed iterations 0.0000000000
Beginning iterations for the determination of the CT-Allowed wavefunction
Energy prior to optimization (guess energy) = -313.153701544534
Begin Timing: Total SCF Calculation
begin iterations for algorithm: DIIS         
the SCF tolerance is set to 1.00e-08
    1    -313.1537015445      5.48e-04     00000 
    2    -313.1624101896      4.44e-05     00000 
    3    -313.1625212305      9.84e-06     00000 
    4    -313.1625233018      7.31e-06     00000 
    5    -313.1625249390      8.67e-07     00000 
    6    -313.1625249689      1.24e-07     00000 
    7    -313.1625249701      8.39e-08     00000 
    8    -313.1625249703      1.40e-08     00000 
    9    -313.1625249704      2.05e-09     00000 Convergence criterion met
write pseudocanon occs and virts to disk
write pseudocanon orbital energies to disk
Timing for Total SCF: 74.00s (wall), 445.11s (cpu)
<S^2> of ct_allowed wavefunction after ct-allowed iterations 0.0000000000

================================
        Results of EDA2         
================================
Basic EDA Quantities
--------------------
Fragment Energies (Ha):
1   -7.2758394981
2 -305.7216637626
--------------------
  E_prp (kJ/mol) = 0.0000
  E_frz (kJ/mol) = -256.9400
  E_pol (kJ/mol) = -153.1635
  E_vct (kJ/mol) = -23.1662
  E_int (kJ/mol) = -433.2696
--------------------


Decomposition of frozen interaction energy
--------------------
  --------------------
  Orthogonal Frozen Decomposition:
  --------------------
     E_elec   (ELEC)   (kJ/mol) = -412.0495
     E_pauli  (PAULI)  (kJ/mol) = 169.3527
     E_disp   (DISP)   (kJ/mol) = -14.2431
  --------------------
  Classical Frozen Decomposition:
  --------------------
     E_cls_elec  (CLS ELEC)  (kJ/mol) = -387.6559
     E_mod_pauli (MOD PAULI) (kJ/mol) = 142.9195 (FRZ - CLS ELEC - CLS DISP)
     E_cls_disp  (CLS DISP)  (kJ/mol) = -12.2035
  --------------------
--------------------

Simplified EDA Summary (kJ/mol)
--------------------
 PREPARATION      0.0000
 FROZEN           -256.9400 (ELEC + PAULI + DISP)
[ELEC + PAULI = -244.7364, DISP = -12.2035]
 POLARIZATION    -153.1635
 CHARGE TRANSFER -23.1662
 TOTAL           -433.2696     (PRP + FRZ + POL + CT)
--------------------
 
 --------------------------------------------------------------
 
                    Orbital Energies (a.u.)
 --------------------------------------------------------------
 
 Alpha MOs
 -- Occupied --
-19.5348 -19.5242 -19.5216 -19.5186  -2.2088  -1.3443  -1.3411  -1.3323
 -1.3131  -0.8520  -0.8272  -0.8209  -0.8133  -0.7376  -0.7147  -0.6941
 -0.6880  -0.6349  -0.6288  -0.6179  -0.6097
 -- Virtual --
 -0.1340  -0.1082  -0.1047  -0.0881  -0.0594  -0.0470  -0.0436  -0.0354
 -0.0302  -0.0108  -0.0083  -0.0052  -0.0004   0.0052   0.0071   0.0106
  0.0225   0.0303   0.0318   0.0378   0.0627   0.0719   0.0729   0.0816
  0.0990   0.1058   0.1222   0.1236   0.1263   0.1432   0.1495   0.1666
  0.1706   0.1767   0.1801   0.1899   0.1971   0.2004   0.2037   0.2081
  0.2127   0.2213   0.2248   0.2276   0.2349   0.2428   0.2428   0.2483
  0.2591   0.2646   0.2693   0.2763   0.2777   0.2919   0.3004   0.3069
  0.3142   0.3242   0.3350   0.3378   0.3583   0.3748   0.3939   0.4038
  0.4208   0.4303   0.4452   0.4633   0.4681   0.4831   0.5004   0.5115
  0.5146   0.5397   0.5451   0.5607   0.5941   0.5995   0.6034   0.6161
  0.6377   0.6445   0.6466   0.6551   0.6665   0.6899   0.6968   0.7153
  0.7286   0.7411   0.7630   0.7692   0.7885   0.8056   0.8079   0.8361
  0.8548   0.8742   0.8921   0.9246   0.9337   0.9459   0.9557   0.9762
  0.9937   1.0040   1.0207   1.0351   1.0555   1.0727   1.0766   1.0968
  1.1027   1.1146   1.1307   1.1535   1.1744   1.2031   1.2088   1.2311
  1.2364   1.2422   1.2550   1.2668   1.3041   1.3137   1.3492   1.3601
  1.3642   1.3711   1.3810   1.3942   1.7600   1.7950   1.8085   1.8196
  1.8414   1.8535   1.8738   1.8804   1.9212   1.9485   1.9675   1.9755
  2.0157   2.0760   2.0939   2.1062   2.1255   2.1527   2.2008   2.2190
  2.2621   2.4642   2.5269   2.5463   2.5979   2.6641   2.6896   2.7296
  2.7382   2.8429   2.8624   2.9051   2.9142   3.0105   3.0374   3.0534
  3.1061   3.1219   3.1489   3.1541   3.1661   3.1804   3.2062   3.2169
  3.2414   3.2486   3.2566   3.2725   3.2876   3.2926   3.3031   3.3130
  3.3259   3.3434   3.3574   3.3846   3.3877   3.4021   3.4155   3.4564
  3.4607   3.5156   3.5754   3.6033   3.6249   3.7186   3.7772   3.7818
  3.8365   3.8713   3.8863   3.8981   3.9197   3.9443   3.9645   3.9791
  3.9970   4.0086   4.0161   4.0424   4.0454   4.0495   4.0662   4.0875
  4.0928   4.1011   4.1089   4.1192   4.1492   4.1567   4.1946   4.2087
  4.2381   4.5200   4.5474   4.5743   4.5958   4.6198   4.6712   4.7116
  4.7176   4.8032   4.8502   4.8927   4.9588   5.0095   5.0803   5.1372
  5.1785   5.4471   5.4966   5.5085   5.5615   5.9419   5.9724   6.1556
  6.1923   6.1952   6.2266   6.2483   6.2856   6.3271   6.3391   6.3523
  6.3697   6.4163   6.4527   6.4694   6.4940   6.4989   6.5179   6.5298
  6.5464   6.5613   6.5816   6.6129   6.6355   6.6445   6.6910   6.7024
  6.7103   6.7650   6.8099   6.8157   6.8436   6.8978   6.9561   7.0600
  7.3035   7.3340   7.3418   7.3740   7.4127   7.4564   7.5582   7.6070
  7.6230   7.6601   7.7122   7.8534  15.0468  44.1554  44.2183  44.2833
 44.3459
 --------------------------------------------------------------
 
          Ground-State Mulliken Net Atomic Charges

     Atom                 Charge (a.u.)
  ----------------------------------------
      1 Li                    0.828471
      2 O                    -0.343793
      3 H                     0.181384
      4 H                     0.205735
      5 O                    -0.332815
      6 H                     0.207526
      7 H                     0.166962
      8 O                    -0.422387
      9 H                     0.234978
     10 H                     0.232068
     11 O                    -0.319161
     12 H                     0.139135
     13 H                     0.221897
  ----------------------------------------
  Sum of atomic charges =     1.000000

 -----------------------------------------------------------------
                    Cartesian Multipole Moments
 -----------------------------------------------------------------
    Charge (ESU x 10^10)
                 4.8032
    Dipole Moment (Debye)
         X      -0.8413      Y       0.1808      Z      -1.0994
       Tot       1.3961
    Quadrupole Moments (Debye-Ang)
        XX      -7.7336     XY      -2.0893     YY      -8.2795
        XZ       0.7087     YZ       0.0943     ZZ     -25.2774
    Octopole Moments (Debye-Ang^2)
       XXX      -5.2378    XXY       9.7049    XYY      -3.6821
       YYY      -5.0121    XXZ       4.3581    XYZ      14.7869
       YYZ      -2.7352    XZZ      -6.7115    YZZ      -1.6027
       ZZZ     -11.1229
    Hexadecapole Moments (Debye-Ang^3)
      XXXX    -160.6807   XXXY     -24.5986   XXYY     -50.5238
      XYYY       9.8094   YYYY    -131.7037   XXXZ       6.5987
      XXYZ      -6.3242   XYYZ      -0.5113   YYYZ       2.8753
      XXZZ     -61.3706   XYZZ      -8.9183   YYZZ     -58.1916
      XZZZ       5.1893   YZZZ      -1.7899   ZZZZ    -171.9541
 -----------------------------------------------------------------
 Total job time:  898.39s(wall), 1912.74s(cpu) 
 Tue Jan  9 21:11:53 2024

        *************************************************************
        *                                                           *
        *  Thank you very much for using Q-Chem.  Have a nice day.  *
        *                                                           *
        *************************************************************


