
Running Job 1 of 1 118_Li-Water_Cls_002_almo.in
qchem 118_Li-Water_Cls_002_almo.in_674437.0 /scratch/qchem674437/ 6
/home/kchung25/qchem/5.4.0/exe/qcprog.exe_s 118_Li-Water_Cls_002_almo.in_674437.0 /scratch/qchem674437/
                  Welcome to Q-Chem
     A Quantum Leap Into The Future Of Chemistry


 Q-Chem 5.4, Q-Chem, Inc., Pleasanton, CA (2021)

 E. Epifanovsky,  A. T. B. Gilbert,  Xintian Feng,  Joonho Lee,  Yuezhi Mao,  
 N. Mardirossian,  P. Pokhilko,  A. White,  M. Wormit,  M. P. Coons,  
 A. L. Dempwolff,  Zhengting Gan,  D. Hait,  P. R. Horn,  L. D. Jacobson,  
 I. Kaliman,  J. Kussmann,  A. W. Lange,  Ka Un Lao,  D. S. Levine,  Jie Liu,  
 S. C. McKenzie,  A. F. Morrison,  K. Nanda,  F. Plasser,  D. R. Rehn,  
 M. L. Vidal,  Zhi-Qiang You,  Ying Zhu,  B. Alam,  B. Albrecht,  
 A. Aldossary,  E. Alguire,  J. H. Andersen,  D. Barton,  K. Begam,  A. Behn,  
 Y. A. Bernard,  E. J. Berquist,  H. Burton,  A. Carreras,  K. Carter-Fenk,  
 Romit Chakraborty,  A. D. Chien,  K. D. Closser,  V. Cofer-Shabica,  
 S. Dasgupta,  Jia Deng,  M. de Wergifosse,  M. Diedenhofen,  Hainam Do,  
 S. Ehlert,  Po-Tung Fang,  S. Fatehi,  Qingguo Feng,  T. Friedhoff,  
 J. Gayvert,  Qinghui Ge,  G. Gidofalvi,  M. Goldey,  J. Gomes,  
 C. Gonzalez-Espinoza,  S. Gulania,  A. Gunina,  M. W. D. Hanson-Heine,  
 P. H. P. Harbach,  A. W. Hauser,  M. F. Herbst,  M. Hernandez Vera,  
 M. Hodecker,  Z. C. Holden,  S. Houck,  Xunkun Huang,  Kerwin Hui,  
 B. C. Huynh,  M. Ivanov,  Hyunjun Ji,  Hanjie Jiang,  B. Kaduk,  S. Kaehler,  
 K. Khistyaev,  Jaehoon Kim,  P. Klunzinger,  Z. Koczor-Benda,  
 Joong Hoon Koh,  D. Kosenkov,  L. Koulias,  T. Kowalczyk,  C. M. Krauter,  
 K. Kue,  A. Kunitsa,  T. Kus,  A. Landau,  K. V. Lawler,  D. Lefrancois,  
 S. Lehtola,  Rain Li,  Yi-Pei Li,  Jiashu Liang,  M. Liebenthal,  
 Hung-Hsuan Lin,  You-Sheng Lin,  Fenglai Liu,  Kuan-Yu Liu,  
 M. Loipersberger,  A. Luenser,  A. Manjanath,  P. Manohar,  E. Mansoor,  
 S. F. Manzer,  Shan-Ping Mao,  A. V. Marenich,  T. Markovich,  S. Mason,  
 S. A. Maurer,  P. F. McLaughlin,  M. F. S. J. Menger,  J.-M. Mewes,  
 S. A. Mewes,  P. Morgante,  J. W. Mullinax,  K. J. Oosterbaan,  G. Paran,  
 Alexander C. Paul,  Suranjan K. Paul,  F. Pavosevic,  Zheng Pei,  S. Prager,  
 E. I. Proynov,  E. Ramos,  B. Rana,  A. E. Rask,  A. Rettig,  R. M. Richard,  
 F. Rob,  E. Rossomme,  T. Scheele,  M. Scheurer,  M. Schneider,  
 N. Sergueev,  S. M. Sharada,  W. Skomorowski,  D. W. Small,  C. J. Stein,  
 Yu-Chuan Su,  E. J. Sundstrom,  Zhen Tao,  J. Thirman,  T. Tsuchimochi,  
 N. M. Tubman,  S. P. Veccham,  O. Vydrov,  J. Wenzel,  J. Witte,  A. Yamada,  
 Kun Yao,  S. Yeganeh,  S. R. Yost,  A. Zech,  Igor Ying Zhang,  Xing Zhang,  
 Yu Zhang,  D. Zuev,  A. Aspuru-Guzik,  A. T. Bell,  N. A. Besley,  
 K. B. Bravaya,  B. R. Brooks,  D. Casanova,  Jeng-Da Chai,  S. Coriani,  
 C. J. Cramer,  A. E. DePrince, III,  R. A. DiStasio Jr.,  A. Dreuw,  
 B. D. Dunietz,  T. R. Furlani,  W. A. Goddard III,  S. Grimme,  
 S. Hammes-Schiffer,  T. Head-Gordon,  W. J. Hehre,  Chao-Ping Hsu,  
 T.-C. Jagau,  Yousung Jung,  A. Klamt,  Jing Kong,  D. S. Lambrecht,  
 WanZhen Liang,  N. J. Mayhall,  C. W. McCurdy,  J. B. Neaton,  T. Neudecker,  
 C. Ochsenfeld,  J. A. Parkhill,  R. Peverati,  V. A. Rassolov,  Yihan Shao,  
 L. V. Slipchenko,  R. P. Steele,  J. E. Subotnik,  A. J. W. Thom,  
 A. Tkatchenko,  D. G. Truhlar,  T. Van Voorhis,  T. A. Wesolowski,  
 K. B. Whaley,  H. L. Woodcock III,  P. M. Zimmerman,  S. Faraji,  
 P. M. W. Gill,  M. Head-Gordon,  J. M. Herbert,  A. I. Krylov

 Additional authors since Version 5.4.0: 
 Chandrima Chakravarty,  L. Cunha,  R. Kang,  Yongbin Kim,  S. Kotaru,  
 Shaozhi Li,  Xiangyuan Li,  F. Matz,  A. Molle,  V. Parravicini,  
 Haisheng Ren,  Hengyuan Shen,  Yingli Su,  Hung-Yi Tsai,  C. Utku,  
 Fang Wang,  Jeff Yang,  F. Zeller

 Contributors to earlier versions of Q-Chem not listed above: 
 R. D. Adamson,  B. Austin,  R. Baer,  J. Baker,  G. J. O. Beran,  
 K. Brandhorst,  S. T. Brown,  E. F. C. Byrd,  Arup K. Chakraborty,  
 G. K. L. Chan,  Chun-Min Chang,  Yunqing Chen,  C.-L. Cheng,  
 Siu Hung Chien,  D. M. Chipman,  D. L. Crittenden,  H. Dachsel,  
 R. J. Doerksen,  A. D. Dutoi,  R. G. Edgar,  J. Fosso-Tande,  
 L. Fusti-Molnar,  D. Ghosh,  A. Ghysels,  A. Golubeva-Zadorozhnaya,  
 J. Gonthier,  M. S. Gordon,  S. R. Gwaltney,  G. Hawkins,  J. E. Herr,  
 A. Heyden,  S. Hirata,  E. G. Hohenstein,  G. Kedziora,  F. J. Keil,  
 C. Kelley,  Jihan Kim,  R. A. King,  R. Z. Khaliullin,  P. P. Korambath,  
 W. Kurlancheek,  A. Laurent,  A. M. Lee,  M. S. Lee,  S. V. Levchenko,  
 Ching Yeh Lin,  D. Liotard,  E. Livshits,  R. C. Lochan,  I. Lotan,  
 L. A. Martinez-Martinez,  P. E. Maslen,  N. Nair,  D. P. O'Neill,  
 D. Neuhauser,  E. Neuscamman,  C. M. Oana,  R. Olivares-Amaya,  R. Olson,  
 T. M. Perrine,  B. Peters,  P. A. Pieniazek,  A. Prociuk,  Y. M. Rhee,  
 J. Ritchie,  M. A. Rohrdanz,  E. Rosta,  N. J. Russ,  H. F. Schaefer III,  
 M. W. Schmidt,  N. E. Schultz,  S. Sharma,  N. Shenvi,  C. D. Sherrill,  
 A. C. Simmonett,  A. Sodt,  T. Stein,  D. Stuck,  K. S. Thanthiriwatte,  
 V. Vanovschi,  L. Vogt,  Tao Wang,  A. Warshel,  M. A. Watson,  
 C. F. Williams,  Q. Wu,  X. Xu,  Jun Yang,  W. Zhang,  Yan Zhao

   Please cite Q-Chem as follows:
  "Software for the frontiers of quantum chemistry:
   An overview of developments in the Q-Chem 5 package"
   J. Chem. Phys. 155, 084801 (2021)
   https://doi.org/10.1063/5.0055522 (open access)

 Q-Chem 5.4.2 for Intel X86 EM64T Linux

 Parts of Q-Chem use Armadillo 9.900.5 (Nocturnal Misbehaviour).
 http://arma.sourceforge.net/

 Q-Chem begins on Tue Jan  9 10:09:20 2024  

 Host: 
0

     Scratch files written to /scratch/qchem674437//
 Dec1321 |scratch|qcdevops|jenkins|workspace|build_RNUM 5684   
 Processing $rem in /home/kchung25/qchem/5.4.0/config/preferences:
 Processing $rem in /home/kchung25/.qchemrc:

 Q-Chem warning in module libgen/rem_setup.C, line 3079:

 Neither GIA nor STOLL is specified by user. Use STOLL as the default


 Checking the input file for inconsistencies... 	...done.

--------------------------------------------------------------
User input:
--------------------------------------------------------------
$molecule
1 1
--
1 1
Li     0.000000     0.000000     0.000000
--
0 1
O      0.647883     0.164741    -1.949481
H      0.795272    -0.525507    -2.602115
H      0.457108     1.105193    -2.354509
O     -0.976045     1.405748     0.625342
H     -0.496767     2.104540     1.009624
H     -1.582079     1.799875     0.027250
O     -1.260034    -1.585226     0.021824
H     -0.751180    -2.408299    -0.156525
H     -2.038513    -1.751498    -0.490334
O      1.554816    -0.718133     0.753645
H      1.658146    -1.557676     1.200674
H      2.157510    -0.074449     1.263032
$end

$rem
JOBTYPE          eda
EDA2             1
METHOD           wB97M-V
BASIS            def2-TZVPPD
SYMMETRY         false
MEM_TOTAL        50000
MEM_STATIC       10000
THRESH           14
SCF_CONVERGENCE  8
XC_GRID          000099000590
NL_GRID          1
EDA_CLS_DISP     true
FD_MAT_VEC_PROD  FALSE
$end
--------------------------------------------------------------
 ----------------------------------------------------------------
             Standard Nuclear Orientation (Angstroms)
    I     Atom           X                Y                Z
 ----------------------------------------------------------------
    1      Li     -0.1404873404    -0.0178399400    -0.1747942109
    2      O       0.5931364488    -1.6034804243     0.9183245102
    3      H       1.2899678865    -1.6155318329     1.5804254600
    4      H      -0.0957958756    -2.3797843516     1.0056011431
    5      O      -1.9046359374    -0.1187843954    -0.6191294933
    6      H      -2.1070843144    -0.5568299432    -1.4146300080
    7      H      -2.4852725292    -0.4690366131     0.0293393757
    8      O       0.0204634767     1.5975840922     1.0358268982
    9      H       0.9718950026     1.7991468818     1.1852940044
   10      H      -0.3235969999     1.7435994631     1.9054726009
   11      O       1.3050944398     0.2135466400    -1.3400847982
   12      H       1.8555411377     0.9886415555    -1.4476987817
   13      H       1.2033402897    -0.1676126392    -2.2789180965
 ----------------------------------------------------------------
 Molecular Point Group                 C1    NOp =  1
 Largest Abelian Subgroup              C1    NOp =  1
 Nuclear Repulsion Energy =         163.14092474 hartrees
 There are       21 alpha and       21 beta electrons
 Requested basis set is def2-TZVPPD
 There are 122 shells and 318 basis functions

 Q-Chem warning in module libmdc/get_mega.C, line 171:

 Allowed MEM_STATIC has been capped at MEM_STATIC=8191.
 Reduce the value of MEM_STATIC to silence this warning.


 Total QAlloc Memory Limit  50000 MB
 Mega-Array Size      8007 MB
 MEM_STATIC part      8191 MB

                       Distance Matrix (Angstroms)
             Li(  1)   O (  2)   H (  3)   H (  4)   O (  5)   H (  6)
   O (  2)  2.060914
   H (  3)  2.771212  0.961300
   H (  4)  2.640854  1.041582  1.683700
   O (  5)  1.822044  3.287393  4.157378  3.320207
   H (  6)  2.386463  3.718783  4.650932  3.636752  0.930425
   H (  7)  2.396511  3.399097  4.239429  3.211486  0.938258  1.495253
   O (  8)  2.025118  3.254009  3.497477  3.979182  3.064443  3.895215
   H (  9)  2.527583  3.434036  3.452149  4.316911  3.899851  4.668013
   H ( 10)  2.731979  3.608020  3.740723  4.226577  3.513086  4.415414
   O ( 11)  1.871136  2.984775  3.446032  3.766975  3.306447  3.498857
   H ( 12)  2.572435  3.729722  4.033749  4.601379  4.006476  4.253466
   H ( 13)  2.501128  3.557587  4.122925  4.167676  3.523748  3.443457
             H (  7)   O (  8)   H (  9)   H ( 10)   O ( 11)   H ( 12)
   O (  8)  3.400390
   H (  9)  4.293355  0.983966
   H ( 10)  3.617800  0.946563  1.483254
   O ( 11)  4.087557  3.034929  3.000448  3.940475
   H ( 12)  4.811354  3.147415  2.893164  4.069688  0.956736
   H ( 13)  4.361740  3.937341  3.990298  4.846999  1.018354  1.566274

 
 A cutoff of  1.0D-14 yielded   6961 shell pairs
 There are     47427 function pairs (     57744 Cartesian)
 Smallest overlap matrix eigenvalue = 8.65E-05

 Scale SEOQF with 1.000000e-01/1.000000e-01/1.000000e-01

 Standard Electronic Orientation quadrupole field applied
 Nucleus-field energy     =     0.0000000010 hartrees

 -----------------------------------------------------------------------
  General SCF calculation program by
  Eric Jon Sundstrom, Paul Horn, Yuezhi Mao, Dmitri Zuev, Alec White,
  David Stuck, Shaama M.S., Shane Yost, Joonho Lee, David Small,
  Daniel Levine, Susi Lehtola, Hugh Burton, Evgeny Epifanovsky,
  Bang C. Huynh
 -----------------------------------------------------------------------
================================================================
                 ALMO-EDA with the EDA2 driver                  
================================================================
 The second-generation ALMO-EDA (for DFT):                      
 P. R. Horn, Y. Mao and M. Head-Gordon, PCCP, 18, 23067 (2016)  
 Y. Mao et al. Annu. Rev. Phys. Chem. 72, 641 (2021)            
 Decomposition of the frozen energy:                            
 P. R. Horn, Y. Mao and M. Head-Gordon, JCP, 144, 114107 (2016) 
 FERF model for polarization:                                   
 P. R. Horn and M. Head-Gordon, JCP, 143, 114111 (2015)         
================================================================
 Using eda2 option set 1
 Option set summary: Frozen orbital wavefunction, initial wavefunction decomposition, and nDQ polarization.
--------------------------------
Printing EDA Options
--------------------------------
eda_child_super_basis      0
fragmo_guess_mode          0
child_mp                   1
child_mp_orders            232
cls_elec                   1
cls_disp                   1
scfmi_mode                 1
scfmi_occs                 0
scfmi_virts                0
frz_relax                  0
frz_relax_method           0
dc_pen_start               0
dc_pen_conv                0
dc_pen_increment           0
dc_pen_steps               0
dc_pen_thresh_factor       0
dc_pen_pre_newton_thresh   0
frz_ortho_decomp           1
frz_ortho_decomp_conv      6
plot_mo_ortho_frz          0
frgm_method                2
scfmi_freeze_ss            0
separate_rehyb             0
plot_diff_den              0
eda_nocv                   0
eda_vct_relax              1
disp_free_x                0
disp_free_c                0
eda_bsse                   0
eda_pct_a                  0
eda_covp                   0
--------------------------------
Attempting to make child job directory: /scratch/qchem674437//Frg1/
Attempting to make child job directory: /scratch/qchem674437//Frg2/
Creating input file /scratch/qchem674437/Frg1.input
using default PutDataFrgm: nothing
calling putenv with: QCSCRATCH=/scratch/qchem674437/ 
Spawning Job For Fragment 0
Done Job For Fragment 0
calling putenv with: QCSCRATCH=/scratch 
calling putenv with: QCTHREADS=6 
Creating input file /scratch/qchem674437/Frg2.input
using default PutDataFrgm: nothing
calling putenv with: QCSCRATCH=/scratch/qchem674437/ 
Spawning Job For Fragment 1
Done Job For Fragment 1
calling putenv with: QCSCRATCH=/scratch 
calling putenv with: QCTHREADS=6 
Doing General SCFMI
 Exchange:     0.1500 Hartree-Fock + 1.0000 wB97M-V + LR-HF
 Correlation:  1.0000 wB97M-V
 Using Euler-Maclaurin-Lebedev (99,590) quadrature formula
 Nonlocal Correlation:  VV10 with C = 0.0100 and b = 6.00 and scale = 1.00000
 Grid used for NLC:  SG-1 standard quadrature
performing fock build before subrot guess so that all methods have access
Printing subrot_rss_gen Method Specification:
Occupied Subspace Method is 0
Virtual Subspace Method is 0
Energy of the unrelaxed supersystem initial determinant -313.095668063900
write pseudocanon occs and virts to disk
write pseudocanon orbital energies to disk
Tolerance of ortho_decomp_scf: 1.00e-06
GDM subspace size: 20
Beginning the Orthogonal Decomposition of the Initial Supersystem Wavefunction
    1    -312.9192114876      2.23e-01     ortho_decomp Preconditoned Steepest Descent
    2    -312.9216337316      2.47e-03     ortho_decomp BFGS Step
    3    -312.9216346036      8.25e-05     ortho_decomp BFGS Step
    4    -312.9216346051      3.27e-06     ortho_decomp BFGS Step
    5    -312.9216346051      5.71e-08     ortho_decomp 00000 Convergence criterion met
 Hartree-Fock
 Hartree-Fock
 Hartree-Fock
 Exchange:     0.1500 Hartree-Fock + 1.0000 wB97M-V + LR-HF
 Correlation:  1.0000 wB97M-V
 Using Euler-Maclaurin-Lebedev (99,590) quadrature formula
 Nonlocal Correlation:  VV10 with C = 0.0100 and b = 6.00 and scale = 1.00000
 Grid used for NLC:  SG-1 standard quadrature
 Long-range K will be added via erf
 Coulomb attenuation parameter = 0.3 bohr**(-1)
 Nonlocal correlation = 1.753756856487e-01
Doing General SCFMI
 Exchange:     0.1500 Hartree-Fock + 1.0000 wB97M-V + LR-HF
 Correlation:  1.0000 wB97M-V
 Using Euler-Maclaurin-Lebedev (99,590) quadrature formula
 Nonlocal Correlation:  VV10 with C = 0.0100 and b = 6.00 and scale = 1.00000
 Grid used for NLC:  SG-1 standard quadrature
performing fock build at end of subrot_r(subrot) constructor so that all methods have access
<S^2> of initial wavefunction before polarization iterations 0.0000000000
Beginning iterations for the determination of the polarized wavefunction
Energy prior to optimization (guess energy) = -313.095668063900
Begin Timing: Total SCF Calculation
begin iterations for algorithm: DIIS         
the SCF tolerance is set to 1.00e-08
    1    -313.0956680639      1.53e-03     00000 
    2    -313.1459041524      7.85e-04     00000 
    3    -313.1521341955      3.07e-04     00000 
    4    -313.1531250754      5.91e-05     00000 
    5    -313.1531806545      1.11e-05     00000 
    6    -313.1531839474      7.65e-06     00000 
    7    -313.1531847235      1.08e-06     00000 
    8    -313.1531847826      2.74e-07     00000 
    9    -313.1531847839      1.32e-07     00000 
   10    -313.1531847843      1.84e-08     00000 
   11    -313.1531847843      4.12e-09     00000 Convergence criterion met
write pseudocanon occs and virts to disk
write pseudocanon orbital energies to disk
Timing for Total SCF: 91.00s (wall), 548.40s (cpu)
<S^2> of polarized wavefunction after polarization iterations 0.0000000000
relaxing scfmi constraint to allow all rotations in the entire AO span
Doing General SCFMI
 Exchange:     0.1500 Hartree-Fock + 1.0000 wB97M-V + LR-HF
 Correlation:  1.0000 wB97M-V
 Using Euler-Maclaurin-Lebedev (99,590) quadrature formula
 Nonlocal Correlation:  VV10 with C = 0.0100 and b = 6.00 and scale = 1.00000
 Grid used for NLC:  SG-1 standard quadrature
performing fock build at end of subrot_r(subrot) constructor so that all methods have access
<S^2> of polarized wavefunction before ct-allowed iterations 0.0000000000
Beginning iterations for the determination of the CT-Allowed wavefunction
Energy prior to optimization (guess energy) = -313.153184784273
Begin Timing: Total SCF Calculation
begin iterations for algorithm: DIIS         
the SCF tolerance is set to 1.00e-08
    1    -313.1531847843      5.36e-04     00000 
    2    -313.1616147975      4.36e-05     00000 
    3    -313.1617226960      9.49e-06     00000 
    4    -313.1617246123      7.07e-06     00000 
    5    -313.1617261412      8.33e-07     00000 
    6    -313.1617261681      1.26e-07     00000 
    7    -313.1617261690      8.57e-08     00000 
    8    -313.1617261693      1.14e-08     00000 
    9    -313.1617261693      2.06e-09     00000 Convergence criterion met
write pseudocanon occs and virts to disk
write pseudocanon orbital energies to disk
Timing for Total SCF: 73.00s (wall), 434.99s (cpu)
<S^2> of ct_allowed wavefunction after ct-allowed iterations 0.0000000000

================================
        Results of EDA2         
================================
Basic EDA Quantities
--------------------
Fragment Energies (Ha):
1   -7.2758394982
2 -305.7146119124
--------------------
  E_prp (kJ/mol) = -0.0000
  E_frz (kJ/mol) = -276.2496
  E_pol (kJ/mol) = -151.0119
  E_vct (kJ/mol) = -22.4257
  E_int (kJ/mol) = -449.6872
--------------------


Decomposition of frozen interaction energy
--------------------
  --------------------
  Orthogonal Frozen Decomposition:
  --------------------
     E_elec   (ELEC)   (kJ/mol) = -422.8058
     E_pauli  (PAULI)  (kJ/mol) = 160.2379
     E_disp   (DISP)   (kJ/mol) = -13.6817
  --------------------
  Classical Frozen Decomposition:
  --------------------
     E_cls_elec  (CLS ELEC)  (kJ/mol) = -399.2348
     E_mod_pauli (MOD PAULI) (kJ/mol) = 134.8629 (FRZ - CLS ELEC - CLS DISP)
     E_cls_disp  (CLS DISP)  (kJ/mol) = -11.8777
  --------------------
--------------------

Simplified EDA Summary (kJ/mol)
--------------------
 PREPARATION      -0.0000
 FROZEN           -276.2496 (ELEC + PAULI + DISP)
[ELEC + PAULI = -264.3719, DISP = -11.8777]
 POLARIZATION    -151.0119
 CHARGE TRANSFER -22.4257
 TOTAL           -449.6872     (PRP + FRZ + POL + CT)
--------------------
 
 --------------------------------------------------------------
 
                    Orbital Energies (a.u.)
 --------------------------------------------------------------
 
 Alpha MOs
 -- Occupied --
-19.5248 -19.5233 -19.5116 -19.5114  -2.2052  -1.3495  -1.3196  -1.3170
 -1.2957  -0.8486  -0.8178  -0.8132  -0.8031  -0.7215  -0.7107  -0.6924
 -0.6701  -0.6311  -0.6149  -0.6104  -0.5931
 -- Virtual --
 -0.1315  -0.1053  -0.1024  -0.0884  -0.0533  -0.0496  -0.0442  -0.0419
 -0.0216  -0.0094  -0.0082  -0.0043   0.0014   0.0070   0.0098   0.0156
  0.0231   0.0316   0.0408   0.0479   0.0560   0.0590   0.0706   0.0947
  0.1066   0.1146   0.1185   0.1212   0.1368   0.1459   0.1524   0.1562
  0.1739   0.1783   0.1828   0.1855   0.1919   0.1948   0.1997   0.2070
  0.2087   0.2175   0.2246   0.2315   0.2404   0.2435   0.2474   0.2541
  0.2570   0.2684   0.2691   0.2739   0.2777   0.2837   0.2936   0.3094
  0.3127   0.3279   0.3434   0.3465   0.3711   0.3792   0.3944   0.4013
  0.4099   0.4481   0.4506   0.4634   0.4836   0.4881   0.4971   0.5114
  0.5159   0.5261   0.5333   0.5597   0.5647   0.5758   0.5875   0.5953
  0.6143   0.6278   0.6312   0.6380   0.6761   0.6941   0.7067   0.7203
  0.7383   0.7490   0.7676   0.7780   0.7920   0.7978   0.8116   0.8456
  0.8562   0.8924   0.9108   0.9341   0.9481   0.9514   0.9725   0.9801
  1.0176   1.0212   1.0391   1.0457   1.0646   1.0708   1.0769   1.0909
  1.1113   1.1154   1.1444   1.1719   1.1871   1.1880   1.2056   1.2107
  1.2381   1.2508   1.2741   1.2821   1.2900   1.3050   1.3308   1.3362
  1.3528   1.3717   1.3827   1.4082   1.7437   1.7904   1.8092   1.8247
  1.8322   1.8477   1.8692   1.8733   1.9085   1.9339   1.9614   2.0089
  2.0472   2.0649   2.0874   2.1112   2.1636   2.1649   2.1935   2.2022
  2.2531   2.4781   2.5595   2.6273   2.6768   2.7177   2.7210   2.7413
  2.7873   2.8285   2.8392   2.8765   2.8866   3.0229   3.0451   3.0503
  3.0698   3.1243   3.1444   3.1596   3.1753   3.2020   3.2086   3.2111
  3.2326   3.2464   3.2629   3.2816   3.2860   3.2936   3.3053   3.3244
  3.3359   3.3543   3.3660   3.3693   3.3786   3.3946   3.4140   3.4203
  3.4523   3.5171   3.5404   3.5916   3.6082   3.7503   3.7629   3.7714
  3.8118   3.8283   3.8393   3.8636   3.9172   3.9410   3.9553   3.9742
  4.0018   4.0072   4.0160   4.0336   4.0416   4.0539   4.0617   4.0884
  4.1024   4.1067   4.1105   4.1254   4.1409   4.1562   4.1981   4.2085
  4.2262   4.4763   4.5245   4.5819   4.5833   4.5947   4.6350   4.6834
  4.6887   4.8287   4.8548   4.8728   4.9442   5.0139   5.0678   5.1316
  5.1617   5.4036   5.4730   5.5382   5.5562   5.7764   5.9997   6.1680
  6.1830   6.1848   6.1912   6.1980   6.2154   6.2740   6.3236   6.4252
  6.4348   6.4408   6.4503   6.4667   6.4730   6.4924   6.5205   6.5273
  6.5467   6.5733   6.6150   6.6294   6.6432   6.6706   6.6777   6.6924
  6.7084   6.7235   6.7679   6.7923   6.8766   6.8990   6.9423   6.9883
  7.1288   7.2900   7.3270   7.3903   7.4228   7.4430   7.5700   7.5879
  7.6687   7.6828   7.7679   7.7948  15.0258  44.1653  44.1983  44.2455
 44.3414
 --------------------------------------------------------------
 
          Ground-State Mulliken Net Atomic Charges

     Atom                 Charge (a.u.)
  ----------------------------------------
      1 Li                    0.829465
      2 O                    -0.402877
      3 H                     0.165213
      4 H                     0.266855
      5 O                    -0.304819
      6 H                     0.175622
      7 H                     0.185591
      8 O                    -0.305444
      9 H                     0.197001
     10 H                     0.138584
     11 O                    -0.365680
     12 H                     0.177507
     13 H                     0.242981
  ----------------------------------------
  Sum of atomic charges =     1.000000

 -----------------------------------------------------------------
                    Cartesian Multipole Moments
 -----------------------------------------------------------------
    Charge (ESU x 10^10)
                 4.8032
    Dipole Moment (Debye)
         X      -0.0744      Y      -1.4046      Z       0.2374
       Tot       1.4265
    Quadrupole Moments (Debye-Ang)
        XX     -11.9820     XY       8.1295     YY     -16.5348
        XZ       0.0199     YZ       1.0696     ZZ      -8.4225
    Octopole Moments (Debye-Ang^2)
       XXX     -12.0822    XXY      -2.6245    XYY       4.7317
       YYY     -12.0643    XXZ      -3.9014    XYZ      -8.1143
       YYZ      16.5611    XZZ       9.2168    YZZ       1.7792
       ZZZ      -8.2862
    Hexadecapole Moments (Debye-Ang^3)
      XXXX    -179.7108   XXXY      36.4258   XXYY     -63.5924
      XYYY      20.1821   YYYY    -193.1632   XXXZ       3.3881
      XXYZ      -3.9630   XYYZ       3.1388   YYYZ      -9.8091
      XXZZ     -37.2381   XYZZ       0.9963   YYZZ     -37.1327
      XZZZ      -9.0490   YZZZ      19.4523   ZZZZ    -120.9833
 -----------------------------------------------------------------
 Total job time:  871.84s(wall), 1875.27s(cpu) 
 Tue Jan  9 10:23:52 2024

        *************************************************************
        *                                                           *
        *  Thank you very much for using Q-Chem.  Have a nice day.  *
        *                                                           *
        *************************************************************


