
Running Job 1 of 1 118_Li-Water_Cls_090_almo.in
qchem 118_Li-Water_Cls_090_almo.in_714581.0 /scratch/qchem714581/ 6
/home/kchung25/qchem/5.4.0/exe/qcprog.exe_s 118_Li-Water_Cls_090_almo.in_714581.0 /scratch/qchem714581/
                  Welcome to Q-Chem
     A Quantum Leap Into The Future Of Chemistry


 Q-Chem 5.4, Q-Chem, Inc., Pleasanton, CA (2021)

 E. Epifanovsky,  A. T. B. Gilbert,  Xintian Feng,  Joonho Lee,  Yuezhi Mao,  
 N. Mardirossian,  P. Pokhilko,  A. White,  M. Wormit,  M. P. Coons,  
 A. L. Dempwolff,  Zhengting Gan,  D. Hait,  P. R. Horn,  L. D. Jacobson,  
 I. Kaliman,  J. Kussmann,  A. W. Lange,  Ka Un Lao,  D. S. Levine,  Jie Liu,  
 S. C. McKenzie,  A. F. Morrison,  K. Nanda,  F. Plasser,  D. R. Rehn,  
 M. L. Vidal,  Zhi-Qiang You,  Ying Zhu,  B. Alam,  B. Albrecht,  
 A. Aldossary,  E. Alguire,  J. H. Andersen,  D. Barton,  K. Begam,  A. Behn,  
 Y. A. Bernard,  E. J. Berquist,  H. Burton,  A. Carreras,  K. Carter-Fenk,  
 Romit Chakraborty,  A. D. Chien,  K. D. Closser,  V. Cofer-Shabica,  
 S. Dasgupta,  Jia Deng,  M. de Wergifosse,  M. Diedenhofen,  Hainam Do,  
 S. Ehlert,  Po-Tung Fang,  S. Fatehi,  Qingguo Feng,  T. Friedhoff,  
 J. Gayvert,  Qinghui Ge,  G. Gidofalvi,  M. Goldey,  J. Gomes,  
 C. Gonzalez-Espinoza,  S. Gulania,  A. Gunina,  M. W. D. Hanson-Heine,  
 P. H. P. Harbach,  A. W. Hauser,  M. F. Herbst,  M. Hernandez Vera,  
 M. Hodecker,  Z. C. Holden,  S. Houck,  Xunkun Huang,  Kerwin Hui,  
 B. C. Huynh,  M. Ivanov,  Hyunjun Ji,  Hanjie Jiang,  B. Kaduk,  S. Kaehler,  
 K. Khistyaev,  Jaehoon Kim,  P. Klunzinger,  Z. Koczor-Benda,  
 Joong Hoon Koh,  D. Kosenkov,  L. Koulias,  T. Kowalczyk,  C. M. Krauter,  
 K. Kue,  A. Kunitsa,  T. Kus,  A. Landau,  K. V. Lawler,  D. Lefrancois,  
 S. Lehtola,  Rain Li,  Yi-Pei Li,  Jiashu Liang,  M. Liebenthal,  
 Hung-Hsuan Lin,  You-Sheng Lin,  Fenglai Liu,  Kuan-Yu Liu,  
 M. Loipersberger,  A. Luenser,  A. Manjanath,  P. Manohar,  E. Mansoor,  
 S. F. Manzer,  Shan-Ping Mao,  A. V. Marenich,  T. Markovich,  S. Mason,  
 S. A. Maurer,  P. F. McLaughlin,  M. F. S. J. Menger,  J.-M. Mewes,  
 S. A. Mewes,  P. Morgante,  J. W. Mullinax,  K. J. Oosterbaan,  G. Paran,  
 Alexander C. Paul,  Suranjan K. Paul,  F. Pavosevic,  Zheng Pei,  S. Prager,  
 E. I. Proynov,  E. Ramos,  B. Rana,  A. E. Rask,  A. Rettig,  R. M. Richard,  
 F. Rob,  E. Rossomme,  T. Scheele,  M. Scheurer,  M. Schneider,  
 N. Sergueev,  S. M. Sharada,  W. Skomorowski,  D. W. Small,  C. J. Stein,  
 Yu-Chuan Su,  E. J. Sundstrom,  Zhen Tao,  J. Thirman,  T. Tsuchimochi,  
 N. M. Tubman,  S. P. Veccham,  O. Vydrov,  J. Wenzel,  J. Witte,  A. Yamada,  
 Kun Yao,  S. Yeganeh,  S. R. Yost,  A. Zech,  Igor Ying Zhang,  Xing Zhang,  
 Yu Zhang,  D. Zuev,  A. Aspuru-Guzik,  A. T. Bell,  N. A. Besley,  
 K. B. Bravaya,  B. R. Brooks,  D. Casanova,  Jeng-Da Chai,  S. Coriani,  
 C. J. Cramer,  A. E. DePrince, III,  R. A. DiStasio Jr.,  A. Dreuw,  
 B. D. Dunietz,  T. R. Furlani,  W. A. Goddard III,  S. Grimme,  
 S. Hammes-Schiffer,  T. Head-Gordon,  W. J. Hehre,  Chao-Ping Hsu,  
 T.-C. Jagau,  Yousung Jung,  A. Klamt,  Jing Kong,  D. S. Lambrecht,  
 WanZhen Liang,  N. J. Mayhall,  C. W. McCurdy,  J. B. Neaton,  T. Neudecker,  
 C. Ochsenfeld,  J. A. Parkhill,  R. Peverati,  V. A. Rassolov,  Yihan Shao,  
 L. V. Slipchenko,  R. P. Steele,  J. E. Subotnik,  A. J. W. Thom,  
 A. Tkatchenko,  D. G. Truhlar,  T. Van Voorhis,  T. A. Wesolowski,  
 K. B. Whaley,  H. L. Woodcock III,  P. M. Zimmerman,  S. Faraji,  
 P. M. W. Gill,  M. Head-Gordon,  J. M. Herbert,  A. I. Krylov

 Additional authors since Version 5.4.0: 
 Chandrima Chakravarty,  L. Cunha,  R. Kang,  Yongbin Kim,  S. Kotaru,  
 Shaozhi Li,  Xiangyuan Li,  F. Matz,  A. Molle,  V. Parravicini,  
 Haisheng Ren,  Hengyuan Shen,  Yingli Su,  Hung-Yi Tsai,  C. Utku,  
 Fang Wang,  Jeff Yang,  F. Zeller

 Contributors to earlier versions of Q-Chem not listed above: 
 R. D. Adamson,  B. Austin,  R. Baer,  J. Baker,  G. J. O. Beran,  
 K. Brandhorst,  S. T. Brown,  E. F. C. Byrd,  Arup K. Chakraborty,  
 G. K. L. Chan,  Chun-Min Chang,  Yunqing Chen,  C.-L. Cheng,  
 Siu Hung Chien,  D. M. Chipman,  D. L. Crittenden,  H. Dachsel,  
 R. J. Doerksen,  A. D. Dutoi,  R. G. Edgar,  J. Fosso-Tande,  
 L. Fusti-Molnar,  D. Ghosh,  A. Ghysels,  A. Golubeva-Zadorozhnaya,  
 J. Gonthier,  M. S. Gordon,  S. R. Gwaltney,  G. Hawkins,  J. E. Herr,  
 A. Heyden,  S. Hirata,  E. G. Hohenstein,  G. Kedziora,  F. J. Keil,  
 C. Kelley,  Jihan Kim,  R. A. King,  R. Z. Khaliullin,  P. P. Korambath,  
 W. Kurlancheek,  A. Laurent,  A. M. Lee,  M. S. Lee,  S. V. Levchenko,  
 Ching Yeh Lin,  D. Liotard,  E. Livshits,  R. C. Lochan,  I. Lotan,  
 L. A. Martinez-Martinez,  P. E. Maslen,  N. Nair,  D. P. O'Neill,  
 D. Neuhauser,  E. Neuscamman,  C. M. Oana,  R. Olivares-Amaya,  R. Olson,  
 T. M. Perrine,  B. Peters,  P. A. Pieniazek,  A. Prociuk,  Y. M. Rhee,  
 J. Ritchie,  M. A. Rohrdanz,  E. Rosta,  N. J. Russ,  H. F. Schaefer III,  
 M. W. Schmidt,  N. E. Schultz,  S. Sharma,  N. Shenvi,  C. D. Sherrill,  
 A. C. Simmonett,  A. Sodt,  T. Stein,  D. Stuck,  K. S. Thanthiriwatte,  
 V. Vanovschi,  L. Vogt,  Tao Wang,  A. Warshel,  M. A. Watson,  
 C. F. Williams,  Q. Wu,  X. Xu,  Jun Yang,  W. Zhang,  Yan Zhao

   Please cite Q-Chem as follows:
  "Software for the frontiers of quantum chemistry:
   An overview of developments in the Q-Chem 5 package"
   J. Chem. Phys. 155, 084801 (2021)
   https://doi.org/10.1063/5.0055522 (open access)

 Q-Chem 5.4.2 for Intel X86 EM64T Linux

 Parts of Q-Chem use Armadillo 9.900.5 (Nocturnal Misbehaviour).
 http://arma.sourceforge.net/

 Q-Chem begins on Wed Jan 10 05:28:59 2024  

 Host: 
0

     Scratch files written to /scratch/qchem714581//
 Dec1321 |scratch|qcdevops|jenkins|workspace|build_RNUM 5684   
 Processing $rem in /home/kchung25/qchem/5.4.0/config/preferences:
 Processing $rem in /home/kchung25/.qchemrc:

 Q-Chem warning in module libgen/rem_setup.C, line 3079:

 Neither GIA nor STOLL is specified by user. Use STOLL as the default


 Checking the input file for inconsistencies... 	...done.

--------------------------------------------------------------
User input:
--------------------------------------------------------------
$molecule
1 1
--
1 1
Li     0.000000     0.000000     0.000000
--
0 1
O      1.865459    -0.354169     0.201545
H      2.093877    -0.548368     1.130116
H      2.178545    -1.139580    -0.260272
O      0.175866     1.813815     0.284345
H     -0.515507     2.243153     0.826268
H      0.889311     1.834078     0.952204
O     -0.923465    -0.274645    -1.649009
H     -0.830755     0.486977    -2.218102
H     -1.826401    -0.476768    -1.767965
O     -1.217772    -1.202794     1.092934
H     -1.879809    -1.607959     0.562364
H     -1.655044    -0.939992     1.956239
$end

$rem
JOBTYPE          eda
EDA2             1
METHOD           wB97M-V
BASIS            def2-TZVPPD
SYMMETRY         false
MEM_TOTAL        50000
MEM_STATIC       10000
THRESH           14
SCF_CONVERGENCE  8
XC_GRID          000099000590
NL_GRID          1
EDA_CLS_DISP     true
FD_MAT_VEC_PROD  FALSE
$end
--------------------------------------------------------------
 ----------------------------------------------------------------
             Standard Nuclear Orientation (Angstroms)
    I     Atom           X                Y                Z
 ----------------------------------------------------------------
    1      Li      0.0474482768    -0.0033820515     0.0310594298
    2      O       1.5288757941     0.7675373126     0.9568289441
    3      H       1.8125019006     1.6043710914     0.5428270182
    4      H       1.3424880464     1.0345620765     1.8635403683
    5      O       1.1035075470    -0.9869142785    -1.1174652585
    6      H       0.8121073873    -1.0362597973    -2.0494841682
    7      H       1.8560665310    -0.3781264890    -1.2534152643
    8      O      -1.1931422125    -1.1802620945     0.8815515030
    9      H      -0.8651413170    -2.0774280465     0.8753285783
   10      H      -2.0893437746    -1.3169478984     0.6614665006
   11      O      -1.3573804620     1.3274791065    -0.5849369757
   12      H      -2.2197128011     1.0860389405    -0.2985006396
   13      H      -1.4461961357     1.6712159093    -1.5227663859
 ----------------------------------------------------------------
 Molecular Point Group                 C1    NOp =  1
 Largest Abelian Subgroup              C1    NOp =  1
 Nuclear Repulsion Energy =         165.55055325 hartrees
 There are       21 alpha and       21 beta electrons
 Requested basis set is def2-TZVPPD
 There are 122 shells and 318 basis functions

 Q-Chem warning in module libmdc/get_mega.C, line 171:

 Allowed MEM_STATIC has been capped at MEM_STATIC=8191.
 Reduce the value of MEM_STATIC to silence this warning.


 Total QAlloc Memory Limit  50000 MB
 Mega-Array Size      8007 MB
 MEM_STATIC part      8191 MB

                       Distance Matrix (Angstroms)
             Li(  1)   O (  2)   H (  3)   H (  4)   O (  5)   H (  6)
   O (  2)  1.909448
   H (  3)  2.441760  0.975773
   H (  4)  2.472335  0.963415  1.513235
   O (  5)  1.844371  2.749861  3.158165  3.609692
   H (  6)  2.445445  3.578458  3.833249  4.458853  0.977757
   H (  7)  2.249757  2.510932  2.675571  3.460472  0.977471  1.468576
   O (  8)  1.909829  3.347980  4.111303  3.507017  3.050910  3.554256
   H (  9)  2.418114  3.719111  4.564644  3.941405  3.005998  3.528700
   H ( 10)  2.586262  4.186147  4.875713  4.330364  3.669853  3.980761
   O ( 11)  2.030809  3.319797  3.375896  3.656519  3.419938  3.526874
   H ( 12)  2.536822  3.966007  4.151537  4.167295  4.001454  4.094146
   H ( 13)  2.729400  3.976944  3.858790  4.432737  3.705525  3.564799
             H (  7)   O (  8)   H (  9)   H ( 10)   O ( 11)   H ( 12)
   O (  8)  3.807779
   H (  9)  3.850214  0.955264
   H ( 10)  4.484910  0.932897  1.456962
   O ( 11)  3.698945  2.909696  3.737388  3.013683
   H ( 12)  4.434819  2.753632  3.635968  2.590922  0.940189
   H ( 13)  3.895805  3.738410  4.487852  3.756812  1.002780  1.561918

 
 A cutoff of  1.0D-14 yielded   7012 shell pairs
 There are     47780 function pairs (     58147 Cartesian)
 Smallest overlap matrix eigenvalue = 1.06E-04

 Scale SEOQF with 1.000000e-01/1.000000e-01/1.000000e-01

 Standard Electronic Orientation quadrupole field applied
 Nucleus-field energy     =     0.0000000022 hartrees

 -----------------------------------------------------------------------
  General SCF calculation program by
  Eric Jon Sundstrom, Paul Horn, Yuezhi Mao, Dmitri Zuev, Alec White,
  David Stuck, Shaama M.S., Shane Yost, Joonho Lee, David Small,
  Daniel Levine, Susi Lehtola, Hugh Burton, Evgeny Epifanovsky,
  Bang C. Huynh
 -----------------------------------------------------------------------
================================================================
                 ALMO-EDA with the EDA2 driver                  
================================================================
 The second-generation ALMO-EDA (for DFT):                      
 P. R. Horn, Y. Mao and M. Head-Gordon, PCCP, 18, 23067 (2016)  
 Y. Mao et al. Annu. Rev. Phys. Chem. 72, 641 (2021)            
 Decomposition of the frozen energy:                            
 P. R. Horn, Y. Mao and M. Head-Gordon, JCP, 144, 114107 (2016) 
 FERF model for polarization:                                   
 P. R. Horn and M. Head-Gordon, JCP, 143, 114111 (2015)         
================================================================
 Using eda2 option set 1
 Option set summary: Frozen orbital wavefunction, initial wavefunction decomposition, and nDQ polarization.
--------------------------------
Printing EDA Options
--------------------------------
eda_child_super_basis      0
fragmo_guess_mode          0
child_mp                   1
child_mp_orders            232
cls_elec                   1
cls_disp                   1
scfmi_mode                 1
scfmi_occs                 0
scfmi_virts                0
frz_relax                  0
frz_relax_method           0
dc_pen_start               0
dc_pen_conv                0
dc_pen_increment           0
dc_pen_steps               0
dc_pen_thresh_factor       0
dc_pen_pre_newton_thresh   0
frz_ortho_decomp           1
frz_ortho_decomp_conv      6
plot_mo_ortho_frz          0
frgm_method                2
scfmi_freeze_ss            0
separate_rehyb             0
plot_diff_den              0
eda_nocv                   0
eda_vct_relax              1
disp_free_x                0
disp_free_c                0
eda_bsse                   0
eda_pct_a                  0
eda_covp                   0
--------------------------------
Attempting to make child job directory: /scratch/qchem714581//Frg1/
Attempting to make child job directory: /scratch/qchem714581//Frg2/
Creating input file /scratch/qchem714581/Frg1.input
using default PutDataFrgm: nothing
calling putenv with: QCSCRATCH=/scratch/qchem714581/ 
Spawning Job For Fragment 0
Done Job For Fragment 0
calling putenv with: QCSCRATCH=/scratch 
calling putenv with: QCTHREADS=6 
Creating input file /scratch/qchem714581/Frg2.input
using default PutDataFrgm: nothing
calling putenv with: QCSCRATCH=/scratch/qchem714581/ 
Spawning Job For Fragment 1
Done Job For Fragment 1
calling putenv with: QCSCRATCH=/scratch 
calling putenv with: QCTHREADS=6 
Doing General SCFMI
 Exchange:     0.1500 Hartree-Fock + 1.0000 wB97M-V + LR-HF
 Correlation:  1.0000 wB97M-V
 Using Euler-Maclaurin-Lebedev (99,590) quadrature formula
 Nonlocal Correlation:  VV10 with C = 0.0100 and b = 6.00 and scale = 1.00000
 Grid used for NLC:  SG-1 standard quadrature
performing fock build before subrot guess so that all methods have access
Printing subrot_rss_gen Method Specification:
Occupied Subspace Method is 0
Virtual Subspace Method is 0
Energy of the unrelaxed supersystem initial determinant -313.099002423959
write pseudocanon occs and virts to disk
write pseudocanon orbital energies to disk
Tolerance of ortho_decomp_scf: 1.00e-06
GDM subspace size: 20
Beginning the Orthogonal Decomposition of the Initial Supersystem Wavefunction
    1    -312.9257838288      2.11e-01     ortho_decomp Preconditoned Steepest Descent
    2    -312.9280174651      2.47e-03     ortho_decomp BFGS Step
    3    -312.9280184543      8.99e-05     ortho_decomp BFGS Step
    4    -312.9280184559      3.24e-06     ortho_decomp BFGS Step
    5    -312.9280184559      5.77e-08     ortho_decomp 00000 Convergence criterion met
 Hartree-Fock
 Hartree-Fock
 Hartree-Fock
 Exchange:     0.1500 Hartree-Fock + 1.0000 wB97M-V + LR-HF
 Correlation:  1.0000 wB97M-V
 Using Euler-Maclaurin-Lebedev (99,590) quadrature formula
 Nonlocal Correlation:  VV10 with C = 0.0100 and b = 6.00 and scale = 1.00000
 Grid used for NLC:  SG-1 standard quadrature
 Long-range K will be added via erf
 Coulomb attenuation parameter = 0.3 bohr**(-1)
 Nonlocal correlation = 1.750403377854e-01
Doing General SCFMI
 Exchange:     0.1500 Hartree-Fock + 1.0000 wB97M-V + LR-HF
 Correlation:  1.0000 wB97M-V
 Using Euler-Maclaurin-Lebedev (99,590) quadrature formula
 Nonlocal Correlation:  VV10 with C = 0.0100 and b = 6.00 and scale = 1.00000
 Grid used for NLC:  SG-1 standard quadrature
performing fock build at end of subrot_r(subrot) constructor so that all methods have access
<S^2> of initial wavefunction before polarization iterations 0.0000000000
Beginning iterations for the determination of the polarized wavefunction
Energy prior to optimization (guess energy) = -313.099002423959
Begin Timing: Total SCF Calculation
begin iterations for algorithm: DIIS         
the SCF tolerance is set to 1.00e-08
    1    -313.0990024240      1.55e-03     00000 
    2    -313.1507519683      7.50e-04     00000 
    3    -313.1564344446      2.96e-04     00000 
    4    -313.1573538863      6.04e-05     00000 
    5    -313.1574099023      8.99e-06     00000 
    6    -313.1574132543      4.13e-06     00000 
    7    -313.1574135382      1.36e-06     00000 
    8    -313.1574135972      1.39e-07     00000 
    9    -313.1574135983      5.60e-08     00000 
   10    -313.1574135984      2.57e-08     00000 
   11    -313.1574135984      4.73e-09     00000 Convergence criterion met
write pseudocanon occs and virts to disk
write pseudocanon orbital energies to disk
Timing for Total SCF: 93.00s (wall), 559.01s (cpu)
<S^2> of polarized wavefunction after polarization iterations 0.0000000000
relaxing scfmi constraint to allow all rotations in the entire AO span
Doing General SCFMI
 Exchange:     0.1500 Hartree-Fock + 1.0000 wB97M-V + LR-HF
 Correlation:  1.0000 wB97M-V
 Using Euler-Maclaurin-Lebedev (99,590) quadrature formula
 Nonlocal Correlation:  VV10 with C = 0.0100 and b = 6.00 and scale = 1.00000
 Grid used for NLC:  SG-1 standard quadrature
performing fock build at end of subrot_r(subrot) constructor so that all methods have access
<S^2> of polarized wavefunction before ct-allowed iterations 0.0000000000
Beginning iterations for the determination of the CT-Allowed wavefunction
Energy prior to optimization (guess energy) = -313.157413598412
Begin Timing: Total SCF Calculation
begin iterations for algorithm: DIIS         
the SCF tolerance is set to 1.00e-08
    1    -313.1574135984      5.54e-04     00000 
    2    -313.1661684499      4.46e-05     00000 
    3    -313.1662787972      1.06e-05     00000 
    4    -313.1662810858      7.90e-06     00000 
    5    -313.1662830210      8.34e-07     00000 
    6    -313.1662830497      1.14e-07     00000 
    7    -313.1662830509      6.17e-08     00000 
    8    -313.1662830511      1.68e-08     00000 
    9    -313.1662830511      2.26e-09     00000 Convergence criterion met
write pseudocanon occs and virts to disk
write pseudocanon orbital energies to disk
Timing for Total SCF: 74.00s (wall), 444.59s (cpu)
<S^2> of ct_allowed wavefunction after ct-allowed iterations 0.0000000000

================================
        Results of EDA2         
================================
Basic EDA Quantities
--------------------
Fragment Energies (Ha):
1   -7.2758394981
2 -305.7262790089
--------------------
  E_prp (kJ/mol) = 0.0000
  E_frz (kJ/mol) = -254.3717
  E_pol (kJ/mol) = -153.3604
  E_vct (kJ/mol) = -23.2870
  E_int (kJ/mol) = -431.0191
--------------------


Decomposition of frozen interaction energy
--------------------
  --------------------
  Orthogonal Frozen Decomposition:
  --------------------
     E_elec   (ELEC)   (kJ/mol) = -412.6034
     E_pauli  (PAULI)  (kJ/mol) = 172.5566
     E_disp   (DISP)   (kJ/mol) = -14.3249
  --------------------
  Classical Frozen Decomposition:
  --------------------
     E_cls_elec  (CLS ELEC)  (kJ/mol) = -388.0570
     E_mod_pauli (MOD PAULI) (kJ/mol) = 145.9552 (FRZ - CLS ELEC - CLS DISP)
     E_cls_disp  (CLS DISP)  (kJ/mol) = -12.2700
  --------------------
--------------------

Simplified EDA Summary (kJ/mol)
--------------------
 PREPARATION      0.0000
 FROZEN           -254.3717 (ELEC + PAULI + DISP)
[ELEC + PAULI = -242.1018, DISP = -12.2700]
 POLARIZATION    -153.3604
 CHARGE TRANSFER -23.2870
 TOTAL           -431.0191     (PRP + FRZ + POL + CT)
--------------------
 
 --------------------------------------------------------------
 
                    Orbital Energies (a.u.)
 --------------------------------------------------------------
 
 Alpha MOs
 -- Occupied --
-19.5294 -19.5257 -19.5243 -19.5217  -2.2093  -1.3420  -1.3348  -1.3291
 -1.3253  -0.8336  -0.8260  -0.8218  -0.8084  -0.7257  -0.7182  -0.7036
 -0.6988  -0.6345  -0.6274  -0.6200  -0.6118
 -- Virtual --
 -0.1353  -0.1074  -0.0982  -0.0936  -0.0529  -0.0490  -0.0446  -0.0383
 -0.0306  -0.0128  -0.0062  -0.0014   0.0007   0.0030   0.0102   0.0179
  0.0199   0.0244   0.0359   0.0374   0.0586   0.0678   0.0768   0.0909
  0.1005   0.1082   0.1089   0.1267   0.1396   0.1437   0.1486   0.1564
  0.1694   0.1780   0.1835   0.1882   0.1938   0.2031   0.2044   0.2077
  0.2169   0.2200   0.2228   0.2293   0.2336   0.2397   0.2434   0.2536
  0.2594   0.2605   0.2679   0.2765   0.2792   0.2862   0.2963   0.3170
  0.3261   0.3378   0.3470   0.3544   0.3672   0.3865   0.3900   0.4032
  0.4132   0.4283   0.4427   0.4510   0.4640   0.4725   0.4908   0.5041
  0.5106   0.5368   0.5567   0.5729   0.5808   0.5945   0.6031   0.6174
  0.6248   0.6326   0.6399   0.6600   0.6780   0.6875   0.6902   0.7157
  0.7344   0.7498   0.7556   0.7761   0.7845   0.7979   0.8181   0.8278
  0.8551   0.8721   0.8777   0.9116   0.9156   0.9438   0.9590   0.9787
  0.9880   1.0252   1.0335   1.0375   1.0614   1.0857   1.0982   1.1049
  1.1144   1.1287   1.1330   1.1534   1.1724   1.1891   1.2021   1.2167
  1.2362   1.2395   1.2699   1.2859   1.3024   1.3201   1.3397   1.3559
  1.3588   1.3712   1.3892   1.4072   1.7579   1.7648   1.7941   1.8171
  1.8383   1.8638   1.8806   1.9000   1.9239   1.9577   1.9775   1.9967
  2.0137   2.0639   2.0761   2.1099   2.1570   2.1653   2.2000   2.2419
  2.2808   2.5002   2.5234   2.5861   2.5885   2.6698   2.7060   2.7438
  2.7601   2.8376   2.8826   2.9100   2.9196   3.0103   3.0429   3.0776
  3.0818   3.1254   3.1381   3.1437   3.1501   3.1674   3.1791   3.1958
  3.2490   3.2584   3.2788   3.2890   3.2977   3.3030   3.3120   3.3304
  3.3323   3.3503   3.3595   3.3822   3.3896   3.4077   3.4132   3.4389
  3.4642   3.5329   3.5594   3.6355   3.6602   3.7460   3.7718   3.8018
  3.8203   3.8645   3.8816   3.9022   3.9281   3.9501   3.9762   3.9831
  3.9856   4.0083   4.0154   4.0287   4.0387   4.0496   4.0542   4.0768
  4.0849   4.0963   4.1019   4.1275   4.1322   4.1630   4.2006   4.2199
  4.2456   4.5525   4.5680   4.5713   4.6056   4.6098   4.6302   4.6923
  4.7243   4.8201   4.8527   4.8724   4.9110   5.0614   5.0922   5.1162
  5.1810   5.4911   5.5049   5.5101   5.5619   6.0229   6.1204   6.1643
  6.1693   6.2154   6.2373   6.2628   6.2854   6.3008   6.3065   6.3370
  6.3920   6.4120   6.4186   6.4445   6.4673   6.4783   6.4848   6.5153
  6.5534   6.5565   6.5876   6.5998   6.6428   6.6575   6.6779   6.6912
  6.7073   6.7383   6.7681   6.8271   6.8871   6.8967   6.9133   6.9442
  7.3371   7.3609   7.4104   7.4214   7.4549   7.5141   7.5430   7.5624
  7.6333   7.6795   7.7094   7.7420  15.1011  44.1945  44.2218  44.2531
 44.3247
 --------------------------------------------------------------
 
          Ground-State Mulliken Net Atomic Charges

     Atom                 Charge (a.u.)
  ----------------------------------------
      1 Li                    0.804388
      2 O                    -0.360535
      3 H                     0.233720
      4 H                     0.183180
      5 O                    -0.374834
      6 H                     0.212978
      7 H                     0.234801
      8 O                    -0.288592
      9 H                     0.196277
     10 H                     0.134227
     11 O                    -0.366884
     12 H                     0.165528
     13 H                     0.225745
  ----------------------------------------
  Sum of atomic charges =     1.000000

 -----------------------------------------------------------------
                    Cartesian Multipole Moments
 -----------------------------------------------------------------
    Charge (ESU x 10^10)
                 4.8032
    Dipole Moment (Debye)
         X      -1.3608      Y       1.0612      Z      -2.0813
       Tot       2.7036
    Quadrupole Moments (Debye-Ang)
        XX     -10.7583     XY       5.7338     YY     -16.1696
        XZ       0.4565     YZ      -0.8156     ZZ     -14.3954
    Octopole Moments (Debye-Ang^2)
       XXX     -21.5313    XXY       8.8459    XYY      -5.2040
       YYY      -4.9216    XXZ      -6.1572    XYZ      11.6025
       YYZ       2.5674    XZZ       8.0754    YZZ       6.1054
       ZZZ     -12.7555
    Hexadecapole Moments (Debye-Ang^3)
      XXXX    -217.3711   XXXY      15.2353   XXYY     -55.2386
      XYYY      32.4984   YYYY    -176.6962   XXXZ     -11.3976
      XXYZ      -6.8000   XYYZ      10.8405   YYYZ     -18.8515
      XXZZ     -59.3530   XYZZ      -5.0460   YYZZ     -39.1160
      XZZZ      11.8401   YZZZ      15.3052   ZZZZ    -106.8590
 -----------------------------------------------------------------
 Total job time:  889.39s(wall), 1911.11s(cpu) 
 Wed Jan 10 05:43:48 2024

        *************************************************************
        *                                                           *
        *  Thank you very much for using Q-Chem.  Have a nice day.  *
        *                                                           *
        *************************************************************


