
Running Job 1 of 1 118_Li-Water_Cls_096_almo.in
qchem 118_Li-Water_Cls_096_almo.in_718801.0 /scratch/qchem718801/ 6
/home/kchung25/qchem/5.4.0/exe/qcprog.exe_s 118_Li-Water_Cls_096_almo.in_718801.0 /scratch/qchem718801/
                  Welcome to Q-Chem
     A Quantum Leap Into The Future Of Chemistry


 Q-Chem 5.4, Q-Chem, Inc., Pleasanton, CA (2021)

 E. Epifanovsky,  A. T. B. Gilbert,  Xintian Feng,  Joonho Lee,  Yuezhi Mao,  
 N. Mardirossian,  P. Pokhilko,  A. White,  M. Wormit,  M. P. Coons,  
 A. L. Dempwolff,  Zhengting Gan,  D. Hait,  P. R. Horn,  L. D. Jacobson,  
 I. Kaliman,  J. Kussmann,  A. W. Lange,  Ka Un Lao,  D. S. Levine,  Jie Liu,  
 S. C. McKenzie,  A. F. Morrison,  K. Nanda,  F. Plasser,  D. R. Rehn,  
 M. L. Vidal,  Zhi-Qiang You,  Ying Zhu,  B. Alam,  B. Albrecht,  
 A. Aldossary,  E. Alguire,  J. H. Andersen,  D. Barton,  K. Begam,  A. Behn,  
 Y. A. Bernard,  E. J. Berquist,  H. Burton,  A. Carreras,  K. Carter-Fenk,  
 Romit Chakraborty,  A. D. Chien,  K. D. Closser,  V. Cofer-Shabica,  
 S. Dasgupta,  Jia Deng,  M. de Wergifosse,  M. Diedenhofen,  Hainam Do,  
 S. Ehlert,  Po-Tung Fang,  S. Fatehi,  Qingguo Feng,  T. Friedhoff,  
 J. Gayvert,  Qinghui Ge,  G. Gidofalvi,  M. Goldey,  J. Gomes,  
 C. Gonzalez-Espinoza,  S. Gulania,  A. Gunina,  M. W. D. Hanson-Heine,  
 P. H. P. Harbach,  A. W. Hauser,  M. F. Herbst,  M. Hernandez Vera,  
 M. Hodecker,  Z. C. Holden,  S. Houck,  Xunkun Huang,  Kerwin Hui,  
 B. C. Huynh,  M. Ivanov,  Hyunjun Ji,  Hanjie Jiang,  B. Kaduk,  S. Kaehler,  
 K. Khistyaev,  Jaehoon Kim,  P. Klunzinger,  Z. Koczor-Benda,  
 Joong Hoon Koh,  D. Kosenkov,  L. Koulias,  T. Kowalczyk,  C. M. Krauter,  
 K. Kue,  A. Kunitsa,  T. Kus,  A. Landau,  K. V. Lawler,  D. Lefrancois,  
 S. Lehtola,  Rain Li,  Yi-Pei Li,  Jiashu Liang,  M. Liebenthal,  
 Hung-Hsuan Lin,  You-Sheng Lin,  Fenglai Liu,  Kuan-Yu Liu,  
 M. Loipersberger,  A. Luenser,  A. Manjanath,  P. Manohar,  E. Mansoor,  
 S. F. Manzer,  Shan-Ping Mao,  A. V. Marenich,  T. Markovich,  S. Mason,  
 S. A. Maurer,  P. F. McLaughlin,  M. F. S. J. Menger,  J.-M. Mewes,  
 S. A. Mewes,  P. Morgante,  J. W. Mullinax,  K. J. Oosterbaan,  G. Paran,  
 Alexander C. Paul,  Suranjan K. Paul,  F. Pavosevic,  Zheng Pei,  S. Prager,  
 E. I. Proynov,  E. Ramos,  B. Rana,  A. E. Rask,  A. Rettig,  R. M. Richard,  
 F. Rob,  E. Rossomme,  T. Scheele,  M. Scheurer,  M. Schneider,  
 N. Sergueev,  S. M. Sharada,  W. Skomorowski,  D. W. Small,  C. J. Stein,  
 Yu-Chuan Su,  E. J. Sundstrom,  Zhen Tao,  J. Thirman,  T. Tsuchimochi,  
 N. M. Tubman,  S. P. Veccham,  O. Vydrov,  J. Wenzel,  J. Witte,  A. Yamada,  
 Kun Yao,  S. Yeganeh,  S. R. Yost,  A. Zech,  Igor Ying Zhang,  Xing Zhang,  
 Yu Zhang,  D. Zuev,  A. Aspuru-Guzik,  A. T. Bell,  N. A. Besley,  
 K. B. Bravaya,  B. R. Brooks,  D. Casanova,  Jeng-Da Chai,  S. Coriani,  
 C. J. Cramer,  A. E. DePrince, III,  R. A. DiStasio Jr.,  A. Dreuw,  
 B. D. Dunietz,  T. R. Furlani,  W. A. Goddard III,  S. Grimme,  
 S. Hammes-Schiffer,  T. Head-Gordon,  W. J. Hehre,  Chao-Ping Hsu,  
 T.-C. Jagau,  Yousung Jung,  A. Klamt,  Jing Kong,  D. S. Lambrecht,  
 WanZhen Liang,  N. J. Mayhall,  C. W. McCurdy,  J. B. Neaton,  T. Neudecker,  
 C. Ochsenfeld,  J. A. Parkhill,  R. Peverati,  V. A. Rassolov,  Yihan Shao,  
 L. V. Slipchenko,  R. P. Steele,  J. E. Subotnik,  A. J. W. Thom,  
 A. Tkatchenko,  D. G. Truhlar,  T. Van Voorhis,  T. A. Wesolowski,  
 K. B. Whaley,  H. L. Woodcock III,  P. M. Zimmerman,  S. Faraji,  
 P. M. W. Gill,  M. Head-Gordon,  J. M. Herbert,  A. I. Krylov

 Additional authors since Version 5.4.0: 
 Chandrima Chakravarty,  L. Cunha,  R. Kang,  Yongbin Kim,  S. Kotaru,  
 Shaozhi Li,  Xiangyuan Li,  F. Matz,  A. Molle,  V. Parravicini,  
 Haisheng Ren,  Hengyuan Shen,  Yingli Su,  Hung-Yi Tsai,  C. Utku,  
 Fang Wang,  Jeff Yang,  F. Zeller

 Contributors to earlier versions of Q-Chem not listed above: 
 R. D. Adamson,  B. Austin,  R. Baer,  J. Baker,  G. J. O. Beran,  
 K. Brandhorst,  S. T. Brown,  E. F. C. Byrd,  Arup K. Chakraborty,  
 G. K. L. Chan,  Chun-Min Chang,  Yunqing Chen,  C.-L. Cheng,  
 Siu Hung Chien,  D. M. Chipman,  D. L. Crittenden,  H. Dachsel,  
 R. J. Doerksen,  A. D. Dutoi,  R. G. Edgar,  J. Fosso-Tande,  
 L. Fusti-Molnar,  D. Ghosh,  A. Ghysels,  A. Golubeva-Zadorozhnaya,  
 J. Gonthier,  M. S. Gordon,  S. R. Gwaltney,  G. Hawkins,  J. E. Herr,  
 A. Heyden,  S. Hirata,  E. G. Hohenstein,  G. Kedziora,  F. J. Keil,  
 C. Kelley,  Jihan Kim,  R. A. King,  R. Z. Khaliullin,  P. P. Korambath,  
 W. Kurlancheek,  A. Laurent,  A. M. Lee,  M. S. Lee,  S. V. Levchenko,  
 Ching Yeh Lin,  D. Liotard,  E. Livshits,  R. C. Lochan,  I. Lotan,  
 L. A. Martinez-Martinez,  P. E. Maslen,  N. Nair,  D. P. O'Neill,  
 D. Neuhauser,  E. Neuscamman,  C. M. Oana,  R. Olivares-Amaya,  R. Olson,  
 T. M. Perrine,  B. Peters,  P. A. Pieniazek,  A. Prociuk,  Y. M. Rhee,  
 J. Ritchie,  M. A. Rohrdanz,  E. Rosta,  N. J. Russ,  H. F. Schaefer III,  
 M. W. Schmidt,  N. E. Schultz,  S. Sharma,  N. Shenvi,  C. D. Sherrill,  
 A. C. Simmonett,  A. Sodt,  T. Stein,  D. Stuck,  K. S. Thanthiriwatte,  
 V. Vanovschi,  L. Vogt,  Tao Wang,  A. Warshel,  M. A. Watson,  
 C. F. Williams,  Q. Wu,  X. Xu,  Jun Yang,  W. Zhang,  Yan Zhao

   Please cite Q-Chem as follows:
  "Software for the frontiers of quantum chemistry:
   An overview of developments in the Q-Chem 5 package"
   J. Chem. Phys. 155, 084801 (2021)
   https://doi.org/10.1063/5.0055522 (open access)

 Q-Chem 5.4.2 for Intel X86 EM64T Linux

 Parts of Q-Chem use Armadillo 9.900.5 (Nocturnal Misbehaviour).
 http://arma.sourceforge.net/

 Q-Chem begins on Wed Jan 10 06:56:55 2024  

 Host: 
0

     Scratch files written to /scratch/qchem718801//
 Dec1321 |scratch|qcdevops|jenkins|workspace|build_RNUM 5684   
 Processing $rem in /home/kchung25/qchem/5.4.0/config/preferences:
 Processing $rem in /home/kchung25/.qchemrc:

 Q-Chem warning in module libgen/rem_setup.C, line 3079:

 Neither GIA nor STOLL is specified by user. Use STOLL as the default


 Checking the input file for inconsistencies... 	...done.

--------------------------------------------------------------
User input:
--------------------------------------------------------------
$molecule
1 1
--
1 1
Li     0.000000     0.000000     0.000000
--
0 1
O     -0.409388    -1.172788    -1.653677
H     -0.592719    -0.863963    -2.571183
H     -1.165044    -1.724467    -1.443699
O      0.581959    -1.470160     1.232372
H      0.948783    -1.556174     2.097776
H      0.995278    -2.238232     0.765158
O     -1.695527     0.711563    -0.176134
H     -2.191824     1.057173    -0.930725
H     -2.102533     1.149660     0.537971
O      1.307265     1.309986     0.356041
H      1.967290     1.087218     1.057477
H      1.846449     1.401655    -0.489010
$end

$rem
JOBTYPE          eda
EDA2             1
METHOD           wB97M-V
BASIS            def2-TZVPPD
SYMMETRY         false
MEM_TOTAL        50000
MEM_STATIC       10000
THRESH           14
SCF_CONVERGENCE  8
XC_GRID          000099000590
NL_GRID          1
EDA_CLS_DISP     true
FD_MAT_VEC_PROD  FALSE
$end
--------------------------------------------------------------
 ----------------------------------------------------------------
             Standard Nuclear Orientation (Angstroms)
    I     Atom           X                Y                Z
 ----------------------------------------------------------------
    1      Li     -0.0919668039     0.1490535620    -0.0089561082
    2      O       1.3759028112    -0.9880388869     0.9021187534
    3      H       2.0774220242    -0.6713912692     1.5172654645
    4      H       1.8646162140    -1.4438212167     0.2144573922
    5      O      -1.2033913789    -1.3638104160    -0.7123517635
    6      H      -2.0302245770    -1.4815774458    -1.1520790968
    7      H      -1.1567157816    -2.1812251233    -0.1567343595
    8      O       1.2573566498     1.0537405042    -0.8881743123
    9      H       2.0907357317     1.4459739672    -0.5935613835
   10      H       1.0752147620     1.5459106583    -1.6576687493
   11      O      -1.4270522556     1.2997577934     0.6582746636
   12      H      -2.3616947324     1.0094676202     0.5188253886
   13      H      -1.3059798415     1.3163101653     1.6574249393
 ----------------------------------------------------------------
 Molecular Point Group                 C1    NOp =  1
 Largest Abelian Subgroup              C1    NOp =  1
 Nuclear Repulsion Energy =         163.68982636 hartrees
 There are       21 alpha and       21 beta electrons
 Requested basis set is def2-TZVPPD
 There are 122 shells and 318 basis functions

 Q-Chem warning in module libmdc/get_mega.C, line 171:

 Allowed MEM_STATIC has been capped at MEM_STATIC=8191.
 Reduce the value of MEM_STATIC to silence this warning.


 Total QAlloc Memory Limit  50000 MB
 Mega-Array Size      8007 MB
 MEM_STATIC part      8191 MB

                       Distance Matrix (Angstroms)
             Li(  1)   O (  2)   H (  3)   H (  4)   O (  5)   H (  6)
   O (  2)  2.068255
   H (  3)  2.776460  0.985292
   H (  4)  2.532860  0.958883  1.529458
   O (  5)  2.004691  3.066020  4.026708  3.205939
   H (  6)  2.778944  4.008118  4.965336  4.127788  0.943866
   H (  7)  2.566267  2.993162  3.942274  3.132091  0.989473  1.497744
   O (  8)  1.847202  2.718100  3.071600  2.796851  3.454091  4.160009
   H (  9)  2.605371  2.944905  2.989817  3.009143  4.331313  5.085746
   H ( 10)  2.455967  3.614391  4.000132  3.614762  3.814728  4.366355
   O ( 11)  1.884614  3.626297  4.111525  4.308048  3.003870  3.372984
   H ( 12)  2.484055  4.255183  4.850559  4.896220  2.913745  3.017797
   H ( 13)  2.369207  3.615661  3.926577  4.444453  3.579024  4.030635
             H (  7)   O (  8)   H (  9)   H ( 10)   O ( 11)   H ( 12)
   O (  8)  4.102164
   H (  9)  4.888081  0.967039
   H ( 10)  4.596288  0.931412  1.474312
   O ( 11)  3.585326  3.107745  3.736751  3.418410
   H ( 12)  3.476906  3.883187  4.609998  4.103321  0.988570
   H ( 13)  3.942868  3.622114  4.076939  4.088111  1.006595  1.582749

 
 A cutoff of  1.0D-14 yielded   6968 shell pairs
 There are     47322 function pairs (     57496 Cartesian)
 Smallest overlap matrix eigenvalue = 1.02E-04

 Scale SEOQF with 1.000000e-01/1.000000e-01/1.000000e-01

 Standard Electronic Orientation quadrupole field applied
 Nucleus-field energy     =     0.0000000041 hartrees

 -----------------------------------------------------------------------
  General SCF calculation program by
  Eric Jon Sundstrom, Paul Horn, Yuezhi Mao, Dmitri Zuev, Alec White,
  David Stuck, Shaama M.S., Shane Yost, Joonho Lee, David Small,
  Daniel Levine, Susi Lehtola, Hugh Burton, Evgeny Epifanovsky,
  Bang C. Huynh
 -----------------------------------------------------------------------
================================================================
                 ALMO-EDA with the EDA2 driver                  
================================================================
 The second-generation ALMO-EDA (for DFT):                      
 P. R. Horn, Y. Mao and M. Head-Gordon, PCCP, 18, 23067 (2016)  
 Y. Mao et al. Annu. Rev. Phys. Chem. 72, 641 (2021)            
 Decomposition of the frozen energy:                            
 P. R. Horn, Y. Mao and M. Head-Gordon, JCP, 144, 114107 (2016) 
 FERF model for polarization:                                   
 P. R. Horn and M. Head-Gordon, JCP, 143, 114111 (2015)         
================================================================
 Using eda2 option set 1
 Option set summary: Frozen orbital wavefunction, initial wavefunction decomposition, and nDQ polarization.
--------------------------------
Printing EDA Options
--------------------------------
eda_child_super_basis      0
fragmo_guess_mode          0
child_mp                   1
child_mp_orders            232
cls_elec                   1
cls_disp                   1
scfmi_mode                 1
scfmi_occs                 0
scfmi_virts                0
frz_relax                  0
frz_relax_method           0
dc_pen_start               0
dc_pen_conv                0
dc_pen_increment           0
dc_pen_steps               0
dc_pen_thresh_factor       0
dc_pen_pre_newton_thresh   0
frz_ortho_decomp           1
frz_ortho_decomp_conv      6
plot_mo_ortho_frz          0
frgm_method                2
scfmi_freeze_ss            0
separate_rehyb             0
plot_diff_den              0
eda_nocv                   0
eda_vct_relax              1
disp_free_x                0
disp_free_c                0
eda_bsse                   0
eda_pct_a                  0
eda_covp                   0
--------------------------------
Attempting to make child job directory: /scratch/qchem718801//Frg1/
Attempting to make child job directory: /scratch/qchem718801//Frg2/
Creating input file /scratch/qchem718801/Frg1.input
using default PutDataFrgm: nothing
calling putenv with: QCSCRATCH=/scratch/qchem718801/ 
Spawning Job For Fragment 0
Done Job For Fragment 0
calling putenv with: QCSCRATCH=/scratch 
calling putenv with: QCTHREADS=6 
Creating input file /scratch/qchem718801/Frg2.input
using default PutDataFrgm: nothing
calling putenv with: QCSCRATCH=/scratch/qchem718801/ 
Spawning Job For Fragment 1
Done Job For Fragment 1
calling putenv with: QCSCRATCH=/scratch 
calling putenv with: QCTHREADS=6 
Doing General SCFMI
 Exchange:     0.1500 Hartree-Fock + 1.0000 wB97M-V + LR-HF
 Correlation:  1.0000 wB97M-V
 Using Euler-Maclaurin-Lebedev (99,590) quadrature formula
 Nonlocal Correlation:  VV10 with C = 0.0100 and b = 6.00 and scale = 1.00000
 Grid used for NLC:  SG-1 standard quadrature
performing fock build before subrot guess so that all methods have access
Printing subrot_rss_gen Method Specification:
Occupied Subspace Method is 0
Virtual Subspace Method is 0
Energy of the unrelaxed supersystem initial determinant -313.103755221176
write pseudocanon occs and virts to disk
write pseudocanon orbital energies to disk
Tolerance of ortho_decomp_scf: 1.00e-06
GDM subspace size: 20
Beginning the Orthogonal Decomposition of the Initial Supersystem Wavefunction
    1    -312.9341352723      2.16e-01     ortho_decomp Preconditoned Steepest Descent
    2    -312.9364227335      2.40e-03     ortho_decomp BFGS Step
    3    -312.9364235651      8.11e-05     ortho_decomp BFGS Step
    4    -312.9364235665      3.18e-06     ortho_decomp BFGS Step
    5    -312.9364235665      5.43e-08     ortho_decomp 00000 Convergence criterion met
 Hartree-Fock
 Hartree-Fock
 Hartree-Fock
 Exchange:     0.1500 Hartree-Fock + 1.0000 wB97M-V + LR-HF
 Correlation:  1.0000 wB97M-V
 Using Euler-Maclaurin-Lebedev (99,590) quadrature formula
 Nonlocal Correlation:  VV10 with C = 0.0100 and b = 6.00 and scale = 1.00000
 Grid used for NLC:  SG-1 standard quadrature
 Long-range K will be added via erf
 Coulomb attenuation parameter = 0.3 bohr**(-1)
 Nonlocal correlation = 1.751780687974e-01
Doing General SCFMI
 Exchange:     0.1500 Hartree-Fock + 1.0000 wB97M-V + LR-HF
 Correlation:  1.0000 wB97M-V
 Using Euler-Maclaurin-Lebedev (99,590) quadrature formula
 Nonlocal Correlation:  VV10 with C = 0.0100 and b = 6.00 and scale = 1.00000
 Grid used for NLC:  SG-1 standard quadrature
performing fock build at end of subrot_r(subrot) constructor so that all methods have access
<S^2> of initial wavefunction before polarization iterations 0.0000000000
Beginning iterations for the determination of the polarized wavefunction
Energy prior to optimization (guess energy) = -313.103755221176
Begin Timing: Total SCF Calculation
begin iterations for algorithm: DIIS         
the SCF tolerance is set to 1.00e-08
    1    -313.1037552212      1.52e-03     00000 
    2    -313.1533032819      7.84e-04     00000 
    3    -313.1595811472      3.01e-04     00000 
    4    -313.1605298699      5.69e-05     00000 
    5    -313.1605822819      9.64e-06     00000 
    6    -313.1605854133      5.86e-06     00000 
    7    -313.1605858925      1.20e-06     00000 
    8    -313.1605859515      1.61e-07     00000 
    9    -313.1605859527      9.78e-08     00000 
   10    -313.1605859529      3.04e-08     00000 
   11    -313.1605859529      6.94e-09     00000 Convergence criterion met
write pseudocanon occs and virts to disk
write pseudocanon orbital energies to disk
Timing for Total SCF: 92.00s (wall), 552.93s (cpu)
<S^2> of polarized wavefunction after polarization iterations 0.0000000000
relaxing scfmi constraint to allow all rotations in the entire AO span
Doing General SCFMI
 Exchange:     0.1500 Hartree-Fock + 1.0000 wB97M-V + LR-HF
 Correlation:  1.0000 wB97M-V
 Using Euler-Maclaurin-Lebedev (99,590) quadrature formula
 Nonlocal Correlation:  VV10 with C = 0.0100 and b = 6.00 and scale = 1.00000
 Grid used for NLC:  SG-1 standard quadrature
performing fock build at end of subrot_r(subrot) constructor so that all methods have access
<S^2> of polarized wavefunction before ct-allowed iterations 0.0000000000
Beginning iterations for the determination of the CT-Allowed wavefunction
Energy prior to optimization (guess energy) = -313.160585952883
Begin Timing: Total SCF Calculation
begin iterations for algorithm: DIIS         
the SCF tolerance is set to 1.00e-08
    1    -313.1605859529      5.20e-04     00000 
    2    -313.1685115489      4.21e-05     00000 
    3    -313.1686133161      8.47e-06     00000 
    4    -313.1686148678      6.53e-06     00000 
    5    -313.1686161763      8.28e-07     00000 
    6    -313.1686162031      1.11e-07     00000 
    7    -313.1686162040      6.86e-08     00000 
    8    -313.1686162042      1.30e-08     00000 
    9    -313.1686162042      1.79e-09     00000 Convergence criterion met
write pseudocanon occs and virts to disk
write pseudocanon orbital energies to disk
Timing for Total SCF: 73.00s (wall), 438.13s (cpu)
<S^2> of ct_allowed wavefunction after ct-allowed iterations 0.0000000000

================================
        Results of EDA2         
================================
Basic EDA Quantities
--------------------
Fragment Energies (Ha):
1   -7.2758394981
2 -305.7250251635
--------------------
  E_prp (kJ/mol) = -0.0000
  E_frz (kJ/mol) = -270.1424
  E_pol (kJ/mol) = -149.2109
  E_vct (kJ/mol) = -21.0837
  E_int (kJ/mol) = -440.4369
--------------------


Decomposition of frozen interaction energy
--------------------
  --------------------
  Orthogonal Frozen Decomposition:
  --------------------
     E_elec   (ELEC)   (kJ/mol) = -406.6851
     E_pauli  (PAULI)  (kJ/mol) = 149.7965
     E_disp   (DISP)   (kJ/mol) = -13.2539
  --------------------
  Classical Frozen Decomposition:
  --------------------
     E_cls_elec  (CLS ELEC)  (kJ/mol) = -384.5409
     E_mod_pauli (MOD PAULI) (kJ/mol) = 125.8500 (FRZ - CLS ELEC - CLS DISP)
     E_cls_disp  (CLS DISP)  (kJ/mol) = -11.4514
  --------------------
--------------------

Simplified EDA Summary (kJ/mol)
--------------------
 PREPARATION      -0.0000
 FROZEN           -270.1424 (ELEC + PAULI + DISP)
[ELEC + PAULI = -258.6910, DISP = -11.4514]
 POLARIZATION    -149.2109
 CHARGE TRANSFER -21.0837
 TOTAL           -440.4369     (PRP + FRZ + POL + CT)
--------------------
 
 --------------------------------------------------------------
 
                    Orbital Energies (a.u.)
 --------------------------------------------------------------
 
 Alpha MOs
 -- Occupied --
-19.5232 -19.5191 -19.5184 -19.5144  -2.2117  -1.3366  -1.3248  -1.3159
 -1.3127  -0.8254  -0.8168  -0.8109  -0.8071  -0.7256  -0.7105  -0.6974
 -0.6910  -0.6269  -0.6195  -0.6033  -0.6027
 -- Virtual --
 -0.1292  -0.1059  -0.0946  -0.0925  -0.0536  -0.0508  -0.0435  -0.0366
 -0.0312  -0.0069  -0.0034  -0.0017  -0.0001   0.0036   0.0096   0.0150
  0.0165   0.0241   0.0368   0.0483   0.0647   0.0671   0.0750   0.0900
  0.0961   0.1194   0.1266   0.1293   0.1439   0.1491   0.1517   0.1574
  0.1609   0.1733   0.1799   0.1877   0.1903   0.1946   0.2015   0.2065
  0.2111   0.2156   0.2211   0.2279   0.2324   0.2439   0.2468   0.2477
  0.2598   0.2652   0.2774   0.2870   0.2889   0.2938   0.3022   0.3089
  0.3199   0.3223   0.3409   0.3582   0.3727   0.3745   0.3974   0.4099
  0.4233   0.4328   0.4481   0.4580   0.4668   0.4779   0.4838   0.5068
  0.5179   0.5232   0.5354   0.5525   0.5669   0.5814   0.6045   0.6133
  0.6204   0.6298   0.6443   0.6487   0.6546   0.6749   0.6960   0.7103
  0.7367   0.7630   0.7747   0.7814   0.7991   0.8108   0.8356   0.8535
  0.8669   0.8854   0.8963   0.9248   0.9374   0.9544   0.9837   0.9979
  1.0139   1.0152   1.0357   1.0465   1.0592   1.0667   1.0721   1.0894
  1.0974   1.1197   1.1363   1.1655   1.1850   1.2034   1.2160   1.2264
  1.2429   1.2490   1.2746   1.2913   1.3005   1.3097   1.3345   1.3386
  1.3431   1.3629   1.3856   1.4018   1.7450   1.7928   1.8090   1.8292
  1.8382   1.8578   1.8610   1.8750   1.8979   1.9383   1.9880   2.0024
  2.0281   2.0438   2.0609   2.1381   2.1511   2.1763   2.1977   2.2399
  2.2560   2.5487   2.5850   2.6106   2.6362   2.6976   2.7187   2.7917
  2.7993   2.8194   2.8455   2.8887   2.9117   3.0483   3.0714   3.0792
  3.0999   3.1200   3.1316   3.1607   3.1689   3.1797   3.2191   3.2252
  3.2301   3.2579   3.2737   3.2867   3.2955   3.3037   3.3163   3.3282
  3.3341   3.3580   3.3662   3.3724   3.3796   3.4038   3.4346   3.4471
  3.4569   3.5274   3.5719   3.5858   3.6233   3.7470   3.7609   3.7760
  3.7869   3.8201   3.8422   3.8798   3.9195   3.9396   3.9589   3.9687
  3.9898   4.0037   4.0205   4.0403   4.0436   4.0576   4.0645   4.0726
  4.0844   4.0933   4.1092   4.1187   4.1536   4.1576   4.1792   4.2220
  4.2701   4.5229   4.5386   4.5751   4.5865   4.6229   4.6260   4.6721
  4.7082   4.8088   4.8323   4.8609   4.8837   5.0067   5.0978   5.1332
  5.2039   5.4553   5.5178   5.5272   5.5550   5.9720   6.1019   6.1304
  6.1482   6.1880   6.2061   6.2522   6.2898   6.2999   6.3332   6.3614
  6.3777   6.4232   6.4314   6.4377   6.4581   6.4728   6.4821   6.4916
  6.5237   6.5336   6.5574   6.6028   6.6539   6.6643   6.6736   6.6966
  6.7137   6.7235   6.7475   6.7904   6.8665   6.8853   6.9193   6.9579
  7.3056   7.3435   7.3607   7.3980   7.4213   7.4986   7.5410   7.6165
  7.6362   7.6835   7.7231   7.7665  15.0732  44.1244  44.2151  44.2571
 44.3862
 --------------------------------------------------------------
 
          Ground-State Mulliken Net Atomic Charges

     Atom                 Charge (a.u.)
  ----------------------------------------
      1 Li                    0.847420
      2 O                    -0.373964
      3 H                     0.176963
      4 H                     0.210799
      5 O                    -0.344636
      6 H                     0.130443
      7 H                     0.228892
      8 O                    -0.253343
      9 H                     0.172451
     10 H                     0.135592
     11 O                    -0.426447
     12 H                     0.231221
     13 H                     0.264609
  ----------------------------------------
  Sum of atomic charges =     1.000000

 -----------------------------------------------------------------
                    Cartesian Multipole Moments
 -----------------------------------------------------------------
    Charge (ESU x 10^10)
                 4.8032
    Dipole Moment (Debye)
         X       0.0901      Y      -0.1385      Z       0.5196
       Tot       0.5453
    Quadrupole Moments (Debye-Ang)
        XX      -2.6933     XY       4.6771     YY     -16.5447
        XZ       0.5378     YZ       0.0551     ZZ     -18.0056
    Octopole Moments (Debye-Ang^2)
       XXX       0.2294    XXY      -2.2361    XYY       1.5343
       YYY     -13.7387    XXZ       3.3795    XYZ     -12.2034
       YYZ      -7.1263    XZZ      -0.1645    YZZ      12.2352
       ZZZ       4.3079
    Hexadecapole Moments (Debye-Ang^3)
      XXXX    -177.0571   XXXY       9.5568   XXYY     -48.9922
      XYYY      38.2707   YYYY    -217.1051   XXXZ      20.8689
      XXYZ       5.2573   XYYZ      -8.1376   YYYZ      -4.5461
      XXZZ     -43.4884   XYZZ       4.0078   YYZZ     -48.9025
      XZZZ       0.3712   YZZZ      -1.0875   ZZZZ     -98.2911
 -----------------------------------------------------------------
 Total job time:  886.78s(wall), 1886.51s(cpu) 
 Wed Jan 10 07:11:42 2024

        *************************************************************
        *                                                           *
        *  Thank you very much for using Q-Chem.  Have a nice day.  *
        *                                                           *
        *************************************************************


