
Running Job 1 of 1 118_Li-Water_Cls_073_almo.in
qchem 118_Li-Water_Cls_073_almo.in_706844.0 /scratch/qchem706844/ 6
/home/kchung25/qchem/5.4.0/exe/qcprog.exe_s 118_Li-Water_Cls_073_almo.in_706844.0 /scratch/qchem706844/
                  Welcome to Q-Chem
     A Quantum Leap Into The Future Of Chemistry


 Q-Chem 5.4, Q-Chem, Inc., Pleasanton, CA (2021)

 E. Epifanovsky,  A. T. B. Gilbert,  Xintian Feng,  Joonho Lee,  Yuezhi Mao,  
 N. Mardirossian,  P. Pokhilko,  A. White,  M. Wormit,  M. P. Coons,  
 A. L. Dempwolff,  Zhengting Gan,  D. Hait,  P. R. Horn,  L. D. Jacobson,  
 I. Kaliman,  J. Kussmann,  A. W. Lange,  Ka Un Lao,  D. S. Levine,  Jie Liu,  
 S. C. McKenzie,  A. F. Morrison,  K. Nanda,  F. Plasser,  D. R. Rehn,  
 M. L. Vidal,  Zhi-Qiang You,  Ying Zhu,  B. Alam,  B. Albrecht,  
 A. Aldossary,  E. Alguire,  J. H. Andersen,  D. Barton,  K. Begam,  A. Behn,  
 Y. A. Bernard,  E. J. Berquist,  H. Burton,  A. Carreras,  K. Carter-Fenk,  
 Romit Chakraborty,  A. D. Chien,  K. D. Closser,  V. Cofer-Shabica,  
 S. Dasgupta,  Jia Deng,  M. de Wergifosse,  M. Diedenhofen,  Hainam Do,  
 S. Ehlert,  Po-Tung Fang,  S. Fatehi,  Qingguo Feng,  T. Friedhoff,  
 J. Gayvert,  Qinghui Ge,  G. Gidofalvi,  M. Goldey,  J. Gomes,  
 C. Gonzalez-Espinoza,  S. Gulania,  A. Gunina,  M. W. D. Hanson-Heine,  
 P. H. P. Harbach,  A. W. Hauser,  M. F. Herbst,  M. Hernandez Vera,  
 M. Hodecker,  Z. C. Holden,  S. Houck,  Xunkun Huang,  Kerwin Hui,  
 B. C. Huynh,  M. Ivanov,  Hyunjun Ji,  Hanjie Jiang,  B. Kaduk,  S. Kaehler,  
 K. Khistyaev,  Jaehoon Kim,  P. Klunzinger,  Z. Koczor-Benda,  
 Joong Hoon Koh,  D. Kosenkov,  L. Koulias,  T. Kowalczyk,  C. M. Krauter,  
 K. Kue,  A. Kunitsa,  T. Kus,  A. Landau,  K. V. Lawler,  D. Lefrancois,  
 S. Lehtola,  Rain Li,  Yi-Pei Li,  Jiashu Liang,  M. Liebenthal,  
 Hung-Hsuan Lin,  You-Sheng Lin,  Fenglai Liu,  Kuan-Yu Liu,  
 M. Loipersberger,  A. Luenser,  A. Manjanath,  P. Manohar,  E. Mansoor,  
 S. F. Manzer,  Shan-Ping Mao,  A. V. Marenich,  T. Markovich,  S. Mason,  
 S. A. Maurer,  P. F. McLaughlin,  M. F. S. J. Menger,  J.-M. Mewes,  
 S. A. Mewes,  P. Morgante,  J. W. Mullinax,  K. J. Oosterbaan,  G. Paran,  
 Alexander C. Paul,  Suranjan K. Paul,  F. Pavosevic,  Zheng Pei,  S. Prager,  
 E. I. Proynov,  E. Ramos,  B. Rana,  A. E. Rask,  A. Rettig,  R. M. Richard,  
 F. Rob,  E. Rossomme,  T. Scheele,  M. Scheurer,  M. Schneider,  
 N. Sergueev,  S. M. Sharada,  W. Skomorowski,  D. W. Small,  C. J. Stein,  
 Yu-Chuan Su,  E. J. Sundstrom,  Zhen Tao,  J. Thirman,  T. Tsuchimochi,  
 N. M. Tubman,  S. P. Veccham,  O. Vydrov,  J. Wenzel,  J. Witte,  A. Yamada,  
 Kun Yao,  S. Yeganeh,  S. R. Yost,  A. Zech,  Igor Ying Zhang,  Xing Zhang,  
 Yu Zhang,  D. Zuev,  A. Aspuru-Guzik,  A. T. Bell,  N. A. Besley,  
 K. B. Bravaya,  B. R. Brooks,  D. Casanova,  Jeng-Da Chai,  S. Coriani,  
 C. J. Cramer,  A. E. DePrince, III,  R. A. DiStasio Jr.,  A. Dreuw,  
 B. D. Dunietz,  T. R. Furlani,  W. A. Goddard III,  S. Grimme,  
 S. Hammes-Schiffer,  T. Head-Gordon,  W. J. Hehre,  Chao-Ping Hsu,  
 T.-C. Jagau,  Yousung Jung,  A. Klamt,  Jing Kong,  D. S. Lambrecht,  
 WanZhen Liang,  N. J. Mayhall,  C. W. McCurdy,  J. B. Neaton,  T. Neudecker,  
 C. Ochsenfeld,  J. A. Parkhill,  R. Peverati,  V. A. Rassolov,  Yihan Shao,  
 L. V. Slipchenko,  R. P. Steele,  J. E. Subotnik,  A. J. W. Thom,  
 A. Tkatchenko,  D. G. Truhlar,  T. Van Voorhis,  T. A. Wesolowski,  
 K. B. Whaley,  H. L. Woodcock III,  P. M. Zimmerman,  S. Faraji,  
 P. M. W. Gill,  M. Head-Gordon,  J. M. Herbert,  A. I. Krylov

 Additional authors since Version 5.4.0: 
 Chandrima Chakravarty,  L. Cunha,  R. Kang,  Yongbin Kim,  S. Kotaru,  
 Shaozhi Li,  Xiangyuan Li,  F. Matz,  A. Molle,  V. Parravicini,  
 Haisheng Ren,  Hengyuan Shen,  Yingli Su,  Hung-Yi Tsai,  C. Utku,  
 Fang Wang,  Jeff Yang,  F. Zeller

 Contributors to earlier versions of Q-Chem not listed above: 
 R. D. Adamson,  B. Austin,  R. Baer,  J. Baker,  G. J. O. Beran,  
 K. Brandhorst,  S. T. Brown,  E. F. C. Byrd,  Arup K. Chakraborty,  
 G. K. L. Chan,  Chun-Min Chang,  Yunqing Chen,  C.-L. Cheng,  
 Siu Hung Chien,  D. M. Chipman,  D. L. Crittenden,  H. Dachsel,  
 R. J. Doerksen,  A. D. Dutoi,  R. G. Edgar,  J. Fosso-Tande,  
 L. Fusti-Molnar,  D. Ghosh,  A. Ghysels,  A. Golubeva-Zadorozhnaya,  
 J. Gonthier,  M. S. Gordon,  S. R. Gwaltney,  G. Hawkins,  J. E. Herr,  
 A. Heyden,  S. Hirata,  E. G. Hohenstein,  G. Kedziora,  F. J. Keil,  
 C. Kelley,  Jihan Kim,  R. A. King,  R. Z. Khaliullin,  P. P. Korambath,  
 W. Kurlancheek,  A. Laurent,  A. M. Lee,  M. S. Lee,  S. V. Levchenko,  
 Ching Yeh Lin,  D. Liotard,  E. Livshits,  R. C. Lochan,  I. Lotan,  
 L. A. Martinez-Martinez,  P. E. Maslen,  N. Nair,  D. P. O'Neill,  
 D. Neuhauser,  E. Neuscamman,  C. M. Oana,  R. Olivares-Amaya,  R. Olson,  
 T. M. Perrine,  B. Peters,  P. A. Pieniazek,  A. Prociuk,  Y. M. Rhee,  
 J. Ritchie,  M. A. Rohrdanz,  E. Rosta,  N. J. Russ,  H. F. Schaefer III,  
 M. W. Schmidt,  N. E. Schultz,  S. Sharma,  N. Shenvi,  C. D. Sherrill,  
 A. C. Simmonett,  A. Sodt,  T. Stein,  D. Stuck,  K. S. Thanthiriwatte,  
 V. Vanovschi,  L. Vogt,  Tao Wang,  A. Warshel,  M. A. Watson,  
 C. F. Williams,  Q. Wu,  X. Xu,  Jun Yang,  W. Zhang,  Yan Zhao

   Please cite Q-Chem as follows:
  "Software for the frontiers of quantum chemistry:
   An overview of developments in the Q-Chem 5 package"
   J. Chem. Phys. 155, 084801 (2021)
   https://doi.org/10.1063/5.0055522 (open access)

 Q-Chem 5.4.2 for Intel X86 EM64T Linux

 Parts of Q-Chem use Armadillo 9.900.5 (Nocturnal Misbehaviour).
 http://arma.sourceforge.net/

 Q-Chem begins on Wed Jan 10 01:44:38 2024  

 Host: 
0

     Scratch files written to /scratch/qchem706844//
 Dec1321 |scratch|qcdevops|jenkins|workspace|build_RNUM 5684   
 Processing $rem in /home/kchung25/qchem/5.4.0/config/preferences:
 Processing $rem in /home/kchung25/.qchemrc:

 Q-Chem warning in module libgen/rem_setup.C, line 3079:

 Neither GIA nor STOLL is specified by user. Use STOLL as the default


 Checking the input file for inconsistencies... 	...done.

--------------------------------------------------------------
User input:
--------------------------------------------------------------
$molecule
1 1
--
1 1
Li     0.000000     0.000000     0.000000
--
0 1
O      1.718350     0.176551     0.544897
H      2.140398     0.825322    -0.025747
H      1.574066     0.694093     1.420858
O     -0.618594     1.178660    -1.431382
H     -1.462932     1.491536    -1.765382
H     -0.007693     1.643578    -2.053149
O     -0.276860    -1.382086    -1.514478
H     -0.026138    -2.301828    -1.619613
H     -0.080953    -0.943301    -2.378795
O     -1.025451    -0.316730     1.697479
H     -1.827661    -0.788100     1.402480
H     -0.931749    -0.447840     2.626507
$end

$rem
JOBTYPE          eda
EDA2             1
METHOD           wB97M-V
BASIS            def2-TZVPPD
SYMMETRY         false
MEM_TOTAL        50000
MEM_STATIC       10000
THRESH           14
SCF_CONVERGENCE  8
XC_GRID          000099000590
NL_GRID          1
EDA_CLS_DISP     true
FD_MAT_VEC_PROD  FALSE
$end
--------------------------------------------------------------
 ----------------------------------------------------------------
             Standard Nuclear Orientation (Angstroms)
    I     Atom           X                Y                Z
 ----------------------------------------------------------------
    1      Li      0.1882360214     0.0596188198     0.0459770831
    2      O       0.8834296486     1.6499222904    -0.4721449207
    3      H       0.3309575587     2.3445333756    -0.1020734009
    4      H       1.7225875323     1.6778046074     0.1203176441
    5      O      -1.3367602423     0.0964639958     1.2681804994
    6      H      -1.7589755906    -0.5116841671     1.8799354024
    7      H      -1.9158078955     0.8876714850     1.3891660571
    8      O      -1.2935495836    -0.6700545610    -1.1999542800
    9      H      -1.3410624870    -0.8245080787    -2.1453255674
   10      H      -2.1514974709    -0.2483231805    -0.9469250904
   11      O       1.7936885358    -1.1176649956     0.3102262901
   12      H       1.4430297878    -2.0215151566     0.1968759481
   13      H       2.7315936333    -1.1521691815     0.2196370473
 ----------------------------------------------------------------
 Molecular Point Group                 C1    NOp =  1
 Largest Abelian Subgroup              C1    NOp =  1
 Nuclear Repulsion Energy =         163.45702843 hartrees
 There are       21 alpha and       21 beta electrons
 Requested basis set is def2-TZVPPD
 There are 122 shells and 318 basis functions

 Q-Chem warning in module libmdc/get_mega.C, line 171:

 Allowed MEM_STATIC has been capped at MEM_STATIC=8191.
 Reduce the value of MEM_STATIC to silence this warning.


 Total QAlloc Memory Limit  50000 MB
 Mega-Array Size      8007 MB
 MEM_STATIC part      8191 MB

                       Distance Matrix (Angstroms)
             Li(  1)   O (  2)   H (  3)   H (  4)   O (  5)   H (  6)
   O (  2)  1.811301
   H (  3)  2.294150  0.961594
   H (  4)  2.231207  1.027607  1.559044
   O (  5)  1.954674  3.220436  3.116520  3.630129
   H (  6)  2.735219  4.145736  4.056373  4.473410  0.960393
   H (  7)  2.629986  3.446917  3.064995  3.933473  0.987898  1.491190
   O (  8)  2.068926  3.263623  3.596124  4.043840  2.584784  3.118882
   H (  9)  2.814648  3.724339  4.124725  4.558581  3.535567  4.058970
   H ( 10)  2.560280  3.611030  3.687718  4.456177  2.385240  2.866108
   O ( 11)  2.008308  3.016656  3.781057  2.802815  3.491632  3.930982
   H ( 12)  2.434830  3.773618  4.515358  3.710658  3.655238  3.919836
   H ( 13)  2.822633  3.427242  4.253643  3.006112  4.382925  4.830323
             H (  7)   O (  8)   H (  9)   H ( 10)   O ( 11)   H ( 12)
   O (  8)  3.085006
   H (  9)  3.969197  0.959083
   H ( 10)  2.608324  0.988916  1.557228
   O ( 11)  4.352683  3.465839  3.992786  4.230919
   H ( 12)  4.600730  3.356553  3.830131  4.168107  0.976092
   H ( 13)  5.208367  4.295283  4.720904  5.101214  0.942901  1.554567

 
 A cutoff of  1.0D-14 yielded   6971 shell pairs
 There are     47361 function pairs (     57570 Cartesian)
 Smallest overlap matrix eigenvalue = 8.80E-05

 Scale SEOQF with 1.000000e-01/1.000000e-01/1.000000e-01

 Standard Electronic Orientation quadrupole field applied
 Nucleus-field energy     =     0.0000000026 hartrees

 -----------------------------------------------------------------------
  General SCF calculation program by
  Eric Jon Sundstrom, Paul Horn, Yuezhi Mao, Dmitri Zuev, Alec White,
  David Stuck, Shaama M.S., Shane Yost, Joonho Lee, David Small,
  Daniel Levine, Susi Lehtola, Hugh Burton, Evgeny Epifanovsky,
  Bang C. Huynh
 -----------------------------------------------------------------------
================================================================
                 ALMO-EDA with the EDA2 driver                  
================================================================
 The second-generation ALMO-EDA (for DFT):                      
 P. R. Horn, Y. Mao and M. Head-Gordon, PCCP, 18, 23067 (2016)  
 Y. Mao et al. Annu. Rev. Phys. Chem. 72, 641 (2021)            
 Decomposition of the frozen energy:                            
 P. R. Horn, Y. Mao and M. Head-Gordon, JCP, 144, 114107 (2016) 
 FERF model for polarization:                                   
 P. R. Horn and M. Head-Gordon, JCP, 143, 114111 (2015)         
================================================================
 Using eda2 option set 1
 Option set summary: Frozen orbital wavefunction, initial wavefunction decomposition, and nDQ polarization.
--------------------------------
Printing EDA Options
--------------------------------
eda_child_super_basis      0
fragmo_guess_mode          0
child_mp                   1
child_mp_orders            232
cls_elec                   1
cls_disp                   1
scfmi_mode                 1
scfmi_occs                 0
scfmi_virts                0
frz_relax                  0
frz_relax_method           0
dc_pen_start               0
dc_pen_conv                0
dc_pen_increment           0
dc_pen_steps               0
dc_pen_thresh_factor       0
dc_pen_pre_newton_thresh   0
frz_ortho_decomp           1
frz_ortho_decomp_conv      6
plot_mo_ortho_frz          0
frgm_method                2
scfmi_freeze_ss            0
separate_rehyb             0
plot_diff_den              0
eda_nocv                   0
eda_vct_relax              1
disp_free_x                0
disp_free_c                0
eda_bsse                   0
eda_pct_a                  0
eda_covp                   0
--------------------------------
Attempting to make child job directory: /scratch/qchem706844//Frg1/
Attempting to make child job directory: /scratch/qchem706844//Frg2/
Creating input file /scratch/qchem706844/Frg1.input
using default PutDataFrgm: nothing
calling putenv with: QCSCRATCH=/scratch/qchem706844/ 
Spawning Job For Fragment 0
Done Job For Fragment 0
calling putenv with: QCSCRATCH=/scratch 
calling putenv with: QCTHREADS=6 
Creating input file /scratch/qchem706844/Frg2.input
using default PutDataFrgm: nothing
calling putenv with: QCSCRATCH=/scratch/qchem706844/ 
Spawning Job For Fragment 1
Done Job For Fragment 1
calling putenv with: QCSCRATCH=/scratch 
calling putenv with: QCTHREADS=6 
Doing General SCFMI
 Exchange:     0.1500 Hartree-Fock + 1.0000 wB97M-V + LR-HF
 Correlation:  1.0000 wB97M-V
 Using Euler-Maclaurin-Lebedev (99,590) quadrature formula
 Nonlocal Correlation:  VV10 with C = 0.0100 and b = 6.00 and scale = 1.00000
 Grid used for NLC:  SG-1 standard quadrature
performing fock build before subrot guess so that all methods have access
Printing subrot_rss_gen Method Specification:
Occupied Subspace Method is 0
Virtual Subspace Method is 0
Energy of the unrelaxed supersystem initial determinant -313.098357865315
write pseudocanon occs and virts to disk
write pseudocanon orbital energies to disk
Tolerance of ortho_decomp_scf: 1.00e-06
GDM subspace size: 20
Beginning the Orthogonal Decomposition of the Initial Supersystem Wavefunction
    1    -312.9331927919      2.06e-01     ortho_decomp Preconditoned Steepest Descent
    2    -312.9353081059      2.36e-03     ortho_decomp BFGS Step
    3    -312.9353089804      8.34e-05     ortho_decomp BFGS Step
    4    -312.9353089818      3.04e-06     ortho_decomp BFGS Step
    5    -312.9353089818      5.42e-08     ortho_decomp 00000 Convergence criterion met
 Hartree-Fock
 Hartree-Fock
 Hartree-Fock
 Exchange:     0.1500 Hartree-Fock + 1.0000 wB97M-V + LR-HF
 Correlation:  1.0000 wB97M-V
 Using Euler-Maclaurin-Lebedev (99,590) quadrature formula
 Nonlocal Correlation:  VV10 with C = 0.0100 and b = 6.00 and scale = 1.00000
 Grid used for NLC:  SG-1 standard quadrature
 Long-range K will be added via erf
 Coulomb attenuation parameter = 0.3 bohr**(-1)
 Nonlocal correlation = 1.751086288305e-01
Doing General SCFMI
 Exchange:     0.1500 Hartree-Fock + 1.0000 wB97M-V + LR-HF
 Correlation:  1.0000 wB97M-V
 Using Euler-Maclaurin-Lebedev (99,590) quadrature formula
 Nonlocal Correlation:  VV10 with C = 0.0100 and b = 6.00 and scale = 1.00000
 Grid used for NLC:  SG-1 standard quadrature
performing fock build at end of subrot_r(subrot) constructor so that all methods have access
<S^2> of initial wavefunction before polarization iterations 0.0000000000
Beginning iterations for the determination of the polarized wavefunction
Energy prior to optimization (guess energy) = -313.098357865315
Begin Timing: Total SCF Calculation
begin iterations for algorithm: DIIS         
the SCF tolerance is set to 1.00e-08
    1    -313.0983578653      1.51e-03     00000 
    2    -313.1477924110      7.69e-04     00000 
    3    -313.1538058386      3.00e-04     00000 
    4    -313.1547530252      5.86e-05     00000 
    5    -313.1548080405      8.84e-06     00000 
    6    -313.1548112534      3.71e-06     00000 
    7    -313.1548114890      1.45e-06     00000 
    8    -313.1548115420      1.44e-07     00000 
    9    -313.1548115431      5.51e-08     00000 
   10    -313.1548115432      2.80e-08     00000 
   11    -313.1548115432      6.48e-09     00000 Convergence criterion met
write pseudocanon occs and virts to disk
write pseudocanon orbital energies to disk
Timing for Total SCF: 92.00s (wall), 552.96s (cpu)
<S^2> of polarized wavefunction after polarization iterations 0.0000000000
relaxing scfmi constraint to allow all rotations in the entire AO span
Doing General SCFMI
 Exchange:     0.1500 Hartree-Fock + 1.0000 wB97M-V + LR-HF
 Correlation:  1.0000 wB97M-V
 Using Euler-Maclaurin-Lebedev (99,590) quadrature formula
 Nonlocal Correlation:  VV10 with C = 0.0100 and b = 6.00 and scale = 1.00000
 Grid used for NLC:  SG-1 standard quadrature
performing fock build at end of subrot_r(subrot) constructor so that all methods have access
<S^2> of polarized wavefunction before ct-allowed iterations 0.0000000000
Beginning iterations for the determination of the CT-Allowed wavefunction
Energy prior to optimization (guess energy) = -313.154811543224
Begin Timing: Total SCF Calculation
begin iterations for algorithm: DIIS         
the SCF tolerance is set to 1.00e-08
    1    -313.1548115432      5.23e-04     00000 
    2    -313.1627728975      4.28e-05     00000 
    3    -313.1628746325      1.17e-05     00000 
    4    -313.1628773832      8.36e-06     00000 
    5    -313.1628795869      6.88e-07     00000 
    6    -313.1628796079      1.12e-07     00000 
    7    -313.1628796091      6.27e-08     00000 
    8    -313.1628796092      1.55e-08     00000 
    9    -313.1628796092      2.24e-09     00000 Convergence criterion met
write pseudocanon occs and virts to disk
write pseudocanon orbital energies to disk
Timing for Total SCF: 73.00s (wall), 440.43s (cpu)
<S^2> of ct_allowed wavefunction after ct-allowed iterations 0.0000000000

================================
        Results of EDA2         
================================
Basic EDA Quantities
--------------------
Fragment Energies (Ha):
1   -7.2758394981
2 -305.7245083940
--------------------
  E_prp (kJ/mol) = 0.0000
  E_frz (kJ/mol) = -257.3282
  E_pol (kJ/mol) = -148.2209
  E_vct (kJ/mol) = -21.1830
  E_int (kJ/mol) = -426.7321
--------------------


Decomposition of frozen interaction energy
--------------------
  --------------------
  Orthogonal Frozen Decomposition:
  --------------------
     E_elec   (ELEC)   (kJ/mol) = -395.5486
     E_pauli  (PAULI)  (kJ/mol) = 151.3774
     E_disp   (DISP)   (kJ/mol) = -13.1570
  --------------------
  Classical Frozen Decomposition:
  --------------------
     E_cls_elec  (CLS ELEC)  (kJ/mol) = -373.7521
     E_mod_pauli (MOD PAULI) (kJ/mol) = 127.8280 (FRZ - CLS ELEC - CLS DISP)
     E_cls_disp  (CLS DISP)  (kJ/mol) = -11.4041
  --------------------
--------------------

Simplified EDA Summary (kJ/mol)
--------------------
 PREPARATION      0.0000
 FROZEN           -257.3282 (ELEC + PAULI + DISP)
[ELEC + PAULI = -245.9241, DISP = -11.4041]
 POLARIZATION    -148.2209
 CHARGE TRANSFER -21.1830
 TOTAL           -426.7321     (PRP + FRZ + POL + CT)
--------------------
 
 --------------------------------------------------------------
 
                    Orbital Energies (a.u.)
 --------------------------------------------------------------
 
 Alpha MOs
 -- Occupied --
-19.5319 -19.5302 -19.5177 -19.5058  -2.2174  -1.3362  -1.3258  -1.3234
 -1.3046  -0.8314  -0.8229  -0.8145  -0.8083  -0.7297  -0.7054  -0.6978
 -0.6808  -0.6295  -0.6205  -0.6123  -0.5988
 -- Virtual --
 -0.1335  -0.1053  -0.0996  -0.0891  -0.0541  -0.0506  -0.0448  -0.0373
 -0.0274  -0.0120  -0.0100  -0.0052   0.0015   0.0071   0.0075   0.0105
  0.0209   0.0345   0.0402   0.0487   0.0614   0.0650   0.0713   0.0856
  0.0986   0.1115   0.1249   0.1278   0.1344   0.1458   0.1526   0.1589
  0.1691   0.1718   0.1789   0.1805   0.1893   0.1939   0.1972   0.2026
  0.2121   0.2165   0.2243   0.2299   0.2371   0.2419   0.2473   0.2520
  0.2636   0.2664   0.2820   0.2840   0.2883   0.2928   0.2992   0.3027
  0.3101   0.3353   0.3401   0.3515   0.3652   0.3813   0.3893   0.4080
  0.4201   0.4356   0.4494   0.4576   0.4682   0.4707   0.4756   0.4938
  0.5302   0.5386   0.5455   0.5478   0.5742   0.5904   0.5985   0.6030
  0.6076   0.6300   0.6466   0.6570   0.6780   0.6879   0.7004   0.7190
  0.7248   0.7263   0.7537   0.7720   0.7867   0.8089   0.8297   0.8475
  0.8727   0.8760   0.8991   0.9200   0.9305   0.9438   0.9628   0.9808
  0.9991   1.0139   1.0247   1.0530   1.0602   1.0741   1.0875   1.0911
  1.1233   1.1279   1.1556   1.1645   1.1794   1.2000   1.2042   1.2312
  1.2403   1.2462   1.2677   1.2808   1.2969   1.3296   1.3359   1.3414
  1.3544   1.3664   1.3779   1.4028   1.7739   1.7891   1.7994   1.8161
  1.8270   1.8339   1.8468   1.8708   1.9100   1.9423   1.9775   1.9968
  2.0362   2.0715   2.0999   2.1118   2.1522   2.1571   2.1725   2.2153
  2.2602   2.5722   2.5821   2.6231   2.6605   2.7189   2.7464   2.7561
  2.8004   2.8437   2.8596   2.8755   2.8884   3.0254   3.0505   3.0736
  3.0874   3.1155   3.1229   3.1549   3.1829   3.1878   3.2006   3.2339
  3.2554   3.2672   3.2785   3.2900   3.2973   3.3010   3.3057   3.3114
  3.3238   3.3465   3.3541   3.3786   3.3839   3.4051   3.4153   3.4222
  3.4475   3.5282   3.5685   3.5824   3.6126   3.7229   3.7454   3.7688
  3.7931   3.8306   3.8414   3.8841   3.8932   3.9209   3.9437   3.9715
  3.9762   3.9830   4.0152   4.0298   4.0475   4.0635   4.0760   4.0885
  4.1011   4.1065   4.1227   4.1337   4.1367   4.1634   4.1898   4.2174
  4.2259   4.5092   4.5687   4.5755   4.5895   4.6031   4.6195   4.6332
  4.6583   4.8008   4.8224   4.8777   4.8868   5.0261   5.0868   5.1088
  5.1332   5.4671   5.5037   5.5104   5.5117   5.9846   6.0495   6.0601
  6.1116   6.1605   6.1746   6.2482   6.2821   6.2894   6.3249   6.3607
  6.3635   6.4039   6.4130   6.4262   6.4549   6.4741   6.4998   6.5175
  6.5460   6.5578   6.5785   6.5942   6.6209   6.6424   6.6652   6.6904
  6.7005   6.7110   6.7360   6.8082   6.8593   6.8992   6.9424   6.9607
  7.3224   7.3425   7.3526   7.3752   7.4031   7.4677   7.4822   7.5460
  7.6059   7.6458   7.7484   7.7915  15.1225  44.1597  44.1934  44.2966
 44.3250
 --------------------------------------------------------------
 
          Ground-State Mulliken Net Atomic Charges

     Atom                 Charge (a.u.)
  ----------------------------------------
      1 Li                    0.864778
      2 O                    -0.439064
      3 H                     0.214478
      4 H                     0.295414
      5 O                    -0.331539
      6 H                     0.144747
      7 H                     0.208808
      8 O                    -0.349558
      9 H                     0.159367
     10 H                     0.220881
     11 O                    -0.350082
     12 H                     0.214385
     13 H                     0.147384
  ----------------------------------------
  Sum of atomic charges =     1.000000

 -----------------------------------------------------------------
                    Cartesian Multipole Moments
 -----------------------------------------------------------------
    Charge (ESU x 10^10)
                 4.8032
    Dipole Moment (Debye)
         X      -0.9065      Y       0.4608      Z       1.4611
       Tot       1.7801
    Quadrupole Moments (Debye-Ang)
        XX      -4.1770     XY      -3.8072     YY     -13.8851
        XZ      -0.5849     YZ       3.2595     ZZ     -19.6740
    Octopole Moments (Debye-Ang^2)
       XXX       6.9367    XXY      -4.0413    XYY      10.4761
       YYY       5.7066    XXZ       8.4360    XYZ       0.5540
       YYZ       7.0653    XZZ     -22.9585    YZZ      -7.7136
       ZZZ      -5.1039
    Hexadecapole Moments (Debye-Ang^3)
      XXXX    -177.8959   XXXY     -29.0007   XXYY     -59.5721
      XYYY     -20.7739   YYYY    -141.3801   XXXZ      -4.6443
      XXYZ       7.6437   XYYZ       0.3877   YYYZ       6.6697
      XXZZ     -51.0273   XYZZ       8.4715   YYZZ     -59.8294
      XZZZ      -2.9474   YZZZ      12.2265   ZZZZ    -116.0798
 -----------------------------------------------------------------
 Total job time:  891.70s(wall), 1888.69s(cpu) 
 Wed Jan 10 01:59:29 2024

        *************************************************************
        *                                                           *
        *  Thank you very much for using Q-Chem.  Have a nice day.  *
        *                                                           *
        *************************************************************


