
Running Job 1 of 1 119_Na-Water_Cls_017_almo.in
qchem 119_Na-Water_Cls_017_almo.in_735213.0 /scratch/qchem735213/ 6
/home/kchung25/qchem/5.4.0/exe/qcprog.exe_s 119_Na-Water_Cls_017_almo.in_735213.0 /scratch/qchem735213/
                  Welcome to Q-Chem
     A Quantum Leap Into The Future Of Chemistry


 Q-Chem 5.4, Q-Chem, Inc., Pleasanton, CA (2021)

 E. Epifanovsky,  A. T. B. Gilbert,  Xintian Feng,  Joonho Lee,  Yuezhi Mao,  
 N. Mardirossian,  P. Pokhilko,  A. White,  M. Wormit,  M. P. Coons,  
 A. L. Dempwolff,  Zhengting Gan,  D. Hait,  P. R. Horn,  L. D. Jacobson,  
 I. Kaliman,  J. Kussmann,  A. W. Lange,  Ka Un Lao,  D. S. Levine,  Jie Liu,  
 S. C. McKenzie,  A. F. Morrison,  K. Nanda,  F. Plasser,  D. R. Rehn,  
 M. L. Vidal,  Zhi-Qiang You,  Ying Zhu,  B. Alam,  B. Albrecht,  
 A. Aldossary,  E. Alguire,  J. H. Andersen,  D. Barton,  K. Begam,  A. Behn,  
 Y. A. Bernard,  E. J. Berquist,  H. Burton,  A. Carreras,  K. Carter-Fenk,  
 Romit Chakraborty,  A. D. Chien,  K. D. Closser,  V. Cofer-Shabica,  
 S. Dasgupta,  Jia Deng,  M. de Wergifosse,  M. Diedenhofen,  Hainam Do,  
 S. Ehlert,  Po-Tung Fang,  S. Fatehi,  Qingguo Feng,  T. Friedhoff,  
 J. Gayvert,  Qinghui Ge,  G. Gidofalvi,  M. Goldey,  J. Gomes,  
 C. Gonzalez-Espinoza,  S. Gulania,  A. Gunina,  M. W. D. Hanson-Heine,  
 P. H. P. Harbach,  A. W. Hauser,  M. F. Herbst,  M. Hernandez Vera,  
 M. Hodecker,  Z. C. Holden,  S. Houck,  Xunkun Huang,  Kerwin Hui,  
 B. C. Huynh,  M. Ivanov,  Hyunjun Ji,  Hanjie Jiang,  B. Kaduk,  S. Kaehler,  
 K. Khistyaev,  Jaehoon Kim,  P. Klunzinger,  Z. Koczor-Benda,  
 Joong Hoon Koh,  D. Kosenkov,  L. Koulias,  T. Kowalczyk,  C. M. Krauter,  
 K. Kue,  A. Kunitsa,  T. Kus,  A. Landau,  K. V. Lawler,  D. Lefrancois,  
 S. Lehtola,  Rain Li,  Yi-Pei Li,  Jiashu Liang,  M. Liebenthal,  
 Hung-Hsuan Lin,  You-Sheng Lin,  Fenglai Liu,  Kuan-Yu Liu,  
 M. Loipersberger,  A. Luenser,  A. Manjanath,  P. Manohar,  E. Mansoor,  
 S. F. Manzer,  Shan-Ping Mao,  A. V. Marenich,  T. Markovich,  S. Mason,  
 S. A. Maurer,  P. F. McLaughlin,  M. F. S. J. Menger,  J.-M. Mewes,  
 S. A. Mewes,  P. Morgante,  J. W. Mullinax,  K. J. Oosterbaan,  G. Paran,  
 Alexander C. Paul,  Suranjan K. Paul,  F. Pavosevic,  Zheng Pei,  S. Prager,  
 E. I. Proynov,  E. Ramos,  B. Rana,  A. E. Rask,  A. Rettig,  R. M. Richard,  
 F. Rob,  E. Rossomme,  T. Scheele,  M. Scheurer,  M. Schneider,  
 N. Sergueev,  S. M. Sharada,  W. Skomorowski,  D. W. Small,  C. J. Stein,  
 Yu-Chuan Su,  E. J. Sundstrom,  Zhen Tao,  J. Thirman,  T. Tsuchimochi,  
 N. M. Tubman,  S. P. Veccham,  O. Vydrov,  J. Wenzel,  J. Witte,  A. Yamada,  
 Kun Yao,  S. Yeganeh,  S. R. Yost,  A. Zech,  Igor Ying Zhang,  Xing Zhang,  
 Yu Zhang,  D. Zuev,  A. Aspuru-Guzik,  A. T. Bell,  N. A. Besley,  
 K. B. Bravaya,  B. R. Brooks,  D. Casanova,  Jeng-Da Chai,  S. Coriani,  
 C. J. Cramer,  A. E. DePrince, III,  R. A. DiStasio Jr.,  A. Dreuw,  
 B. D. Dunietz,  T. R. Furlani,  W. A. Goddard III,  S. Grimme,  
 S. Hammes-Schiffer,  T. Head-Gordon,  W. J. Hehre,  Chao-Ping Hsu,  
 T.-C. Jagau,  Yousung Jung,  A. Klamt,  Jing Kong,  D. S. Lambrecht,  
 WanZhen Liang,  N. J. Mayhall,  C. W. McCurdy,  J. B. Neaton,  T. Neudecker,  
 C. Ochsenfeld,  J. A. Parkhill,  R. Peverati,  V. A. Rassolov,  Yihan Shao,  
 L. V. Slipchenko,  R. P. Steele,  J. E. Subotnik,  A. J. W. Thom,  
 A. Tkatchenko,  D. G. Truhlar,  T. Van Voorhis,  T. A. Wesolowski,  
 K. B. Whaley,  H. L. Woodcock III,  P. M. Zimmerman,  S. Faraji,  
 P. M. W. Gill,  M. Head-Gordon,  J. M. Herbert,  A. I. Krylov

 Additional authors since Version 5.4.0: 
 Chandrima Chakravarty,  L. Cunha,  R. Kang,  Yongbin Kim,  S. Kotaru,  
 Shaozhi Li,  Xiangyuan Li,  F. Matz,  A. Molle,  V. Parravicini,  
 Haisheng Ren,  Hengyuan Shen,  Yingli Su,  Hung-Yi Tsai,  C. Utku,  
 Fang Wang,  Jeff Yang,  F. Zeller

 Contributors to earlier versions of Q-Chem not listed above: 
 R. D. Adamson,  B. Austin,  R. Baer,  J. Baker,  G. J. O. Beran,  
 K. Brandhorst,  S. T. Brown,  E. F. C. Byrd,  Arup K. Chakraborty,  
 G. K. L. Chan,  Chun-Min Chang,  Yunqing Chen,  C.-L. Cheng,  
 Siu Hung Chien,  D. M. Chipman,  D. L. Crittenden,  H. Dachsel,  
 R. J. Doerksen,  A. D. Dutoi,  R. G. Edgar,  J. Fosso-Tande,  
 L. Fusti-Molnar,  D. Ghosh,  A. Ghysels,  A. Golubeva-Zadorozhnaya,  
 J. Gonthier,  M. S. Gordon,  S. R. Gwaltney,  G. Hawkins,  J. E. Herr,  
 A. Heyden,  S. Hirata,  E. G. Hohenstein,  G. Kedziora,  F. J. Keil,  
 C. Kelley,  Jihan Kim,  R. A. King,  R. Z. Khaliullin,  P. P. Korambath,  
 W. Kurlancheek,  A. Laurent,  A. M. Lee,  M. S. Lee,  S. V. Levchenko,  
 Ching Yeh Lin,  D. Liotard,  E. Livshits,  R. C. Lochan,  I. Lotan,  
 L. A. Martinez-Martinez,  P. E. Maslen,  N. Nair,  D. P. O'Neill,  
 D. Neuhauser,  E. Neuscamman,  C. M. Oana,  R. Olivares-Amaya,  R. Olson,  
 T. M. Perrine,  B. Peters,  P. A. Pieniazek,  A. Prociuk,  Y. M. Rhee,  
 J. Ritchie,  M. A. Rohrdanz,  E. Rosta,  N. J. Russ,  H. F. Schaefer III,  
 M. W. Schmidt,  N. E. Schultz,  S. Sharma,  N. Shenvi,  C. D. Sherrill,  
 A. C. Simmonett,  A. Sodt,  T. Stein,  D. Stuck,  K. S. Thanthiriwatte,  
 V. Vanovschi,  L. Vogt,  Tao Wang,  A. Warshel,  M. A. Watson,  
 C. F. Williams,  Q. Wu,  X. Xu,  Jun Yang,  W. Zhang,  Yan Zhao

   Please cite Q-Chem as follows:
  "Software for the frontiers of quantum chemistry:
   An overview of developments in the Q-Chem 5 package"
   J. Chem. Phys. 155, 084801 (2021)
   https://doi.org/10.1063/5.0055522 (open access)

 Q-Chem 5.4.2 for Intel X86 EM64T Linux

 Parts of Q-Chem use Armadillo 9.900.5 (Nocturnal Misbehaviour).
 http://arma.sourceforge.net/

 Q-Chem begins on Wed Jan 10 14:27:26 2024  

 Host: 
0

     Scratch files written to /scratch/qchem735213//
 Dec1321 |scratch|qcdevops|jenkins|workspace|build_RNUM 5684   
 Processing $rem in /home/kchung25/qchem/5.4.0/config/preferences:
 Processing $rem in /home/kchung25/.qchemrc:

 Q-Chem warning in module libgen/rem_setup.C, line 3079:

 Neither GIA nor STOLL is specified by user. Use STOLL as the default


 Checking the input file for inconsistencies... 	...done.

--------------------------------------------------------------
User input:
--------------------------------------------------------------
$molecule
1 1
--
1 1
Na     0.000000     0.000000     0.000000
--
0 1
O      0.750555     2.441534    -0.170757
H      0.148617     2.870969    -0.807058
H      0.358211     2.667139     0.740228
O      1.251321     0.152119     2.082513
H      1.280918    -0.781132     2.220682
H      0.570564     0.591799     2.711229
O     -0.302086    -0.400122    -2.302121
H     -0.982672    -0.980944    -2.721235
H      0.585698    -0.559537    -2.600255
O     -1.803909     0.577099     1.492035
H     -2.609777     1.083098     1.230541
H     -1.668404     0.630768     2.471206
O      0.447066    -2.192510    -0.124007
H      0.847688    -2.383423    -0.929975
H     -0.452703    -2.381137    -0.326958
$end

$rem
JOBTYPE          eda
EDA2             1
METHOD           wB97M-V
BASIS            def2-TZVPPD
SYMMETRY         false
MEM_TOTAL        50000
MEM_STATIC       10000
THRESH           14
SCF_CONVERGENCE  8
XC_GRID          000099000590
NL_GRID          1
EDA_CLS_DISP     true
FD_MAT_VEC_PROD  FALSE
$end
--------------------------------------------------------------
 ----------------------------------------------------------------
             Standard Nuclear Orientation (Angstroms)
    I     Atom           X                Y                Z
 ----------------------------------------------------------------
    1      Na      0.1801161598     0.0349000029    -0.0130045660
    2      O      -1.2317893471     1.9767837351     0.8753587856
    3      H      -1.0188907302     2.7493108733     0.3190326786
    4      H      -2.0823544713     1.5973884001     0.4663071385
    5      O      -1.5129022823    -1.2481364379     1.1758229558
    6      H      -1.0265085595    -2.0566308861     1.1497086386
    7      H      -2.2842011228    -1.2653205411     0.4999270988
    8      O       2.2092825718     1.2062825058    -0.2609186022
    9      H       2.8954388696     1.0676916815    -0.9581919794
   10      H       2.5492180234     1.2165752262     0.6260962812
   11      O      -1.3558593740    -0.3532408222    -1.8305372994
   12      H      -1.4829862683     0.2533509245    -2.5984712413
   13      H      -2.1448534283    -0.9416760244    -1.7244702972
   14      O       1.6728494126    -1.6037318997     0.3171147582
   15      H       2.4203541756    -1.2647599927     0.7328849508
   16      H       1.9408579065    -1.5634863426    -0.5844978245
 ----------------------------------------------------------------
 Molecular Point Group                 C1    NOp =  1
 Largest Abelian Subgroup              C1    NOp =  1
 Nuclear Repulsion Energy =         304.66538574 hartrees
 There are       30 alpha and       30 beta electrons
 Requested basis set is def2-TZVPPD
 There are 153 shells and 405 basis functions

 Q-Chem warning in module libmdc/get_mega.C, line 171:

 Allowed MEM_STATIC has been capped at MEM_STATIC=8191.
 Reduce the value of MEM_STATIC to silence this warning.


 Total QAlloc Memory Limit  50000 MB
 Mega-Array Size      8007 MB
 MEM_STATIC part      8191 MB
 A cutoff of  1.0D-14 yielded  10558 shell pairs
 There are     72738 function pairs (     88059 Cartesian)
 Smallest overlap matrix eigenvalue = 1.49E-04

 Scale SEOQF with 1.000000e-01/1.000000e-01/1.000000e-01

 Standard Electronic Orientation quadrupole field applied
 Nucleus-field energy     =     0.0000000062 hartrees

 -----------------------------------------------------------------------
  General SCF calculation program by
  Eric Jon Sundstrom, Paul Horn, Yuezhi Mao, Dmitri Zuev, Alec White,
  David Stuck, Shaama M.S., Shane Yost, Joonho Lee, David Small,
  Daniel Levine, Susi Lehtola, Hugh Burton, Evgeny Epifanovsky,
  Bang C. Huynh
 -----------------------------------------------------------------------
================================================================
                 ALMO-EDA with the EDA2 driver                  
================================================================
 The second-generation ALMO-EDA (for DFT):                      
 P. R. Horn, Y. Mao and M. Head-Gordon, PCCP, 18, 23067 (2016)  
 Y. Mao et al. Annu. Rev. Phys. Chem. 72, 641 (2021)            
 Decomposition of the frozen energy:                            
 P. R. Horn, Y. Mao and M. Head-Gordon, JCP, 144, 114107 (2016) 
 FERF model for polarization:                                   
 P. R. Horn and M. Head-Gordon, JCP, 143, 114111 (2015)         
================================================================
 Using eda2 option set 1
 Option set summary: Frozen orbital wavefunction, initial wavefunction decomposition, and nDQ polarization.
--------------------------------
Printing EDA Options
--------------------------------
eda_child_super_basis      0
fragmo_guess_mode          0
child_mp                   1
child_mp_orders            232
cls_elec                   1
cls_disp                   1
scfmi_mode                 1
scfmi_occs                 0
scfmi_virts                0
frz_relax                  0
frz_relax_method           0
dc_pen_start               0
dc_pen_conv                0
dc_pen_increment           0
dc_pen_steps               0
dc_pen_thresh_factor       0
dc_pen_pre_newton_thresh   0
frz_ortho_decomp           1
frz_ortho_decomp_conv      6
plot_mo_ortho_frz          0
frgm_method                2
scfmi_freeze_ss            0
separate_rehyb             0
plot_diff_den              0
eda_nocv                   0
eda_vct_relax              1
disp_free_x                0
disp_free_c                0
eda_bsse                   0
eda_pct_a                  0
eda_covp                   0
--------------------------------
Attempting to make child job directory: /scratch/qchem735213//Frg1/
Attempting to make child job directory: /scratch/qchem735213//Frg2/
Creating input file /scratch/qchem735213/Frg1.input
using default PutDataFrgm: nothing
calling putenv with: QCSCRATCH=/scratch/qchem735213/ 
Spawning Job For Fragment 0
Done Job For Fragment 0
calling putenv with: QCSCRATCH=/scratch 
calling putenv with: QCTHREADS=6 
Creating input file /scratch/qchem735213/Frg2.input
using default PutDataFrgm: nothing
calling putenv with: QCSCRATCH=/scratch/qchem735213/ 
Spawning Job For Fragment 1
Done Job For Fragment 1
calling putenv with: QCSCRATCH=/scratch 
calling putenv with: QCTHREADS=6 
Doing General SCFMI
 Exchange:     0.1500 Hartree-Fock + 1.0000 wB97M-V + LR-HF
 Correlation:  1.0000 wB97M-V
 Using Euler-Maclaurin-Lebedev (99,590) quadrature formula
 Nonlocal Correlation:  VV10 with C = 0.0100 and b = 6.00 and scale = 1.00000
 Grid used for NLC:  SG-1 standard quadrature
performing fock build before subrot guess so that all methods have access
Printing subrot_rss_gen Method Specification:
Occupied Subspace Method is 0
Virtual Subspace Method is 0
Energy of the unrelaxed supersystem initial determinant -544.308059878186
write pseudocanon occs and virts to disk
write pseudocanon orbital energies to disk
Tolerance of ortho_decomp_scf: 1.00e-06
GDM subspace size: 20
Beginning the Orthogonal Decomposition of the Initial Supersystem Wavefunction
    1    -544.1372268778      2.48e-01     ortho_decomp Preconditoned Steepest Descent
    2    -544.1533811155      3.13e-03     ortho_decomp BFGS Step
    3    -544.1533954451      1.39e-04     ortho_decomp BFGS Step
    4    -544.1533954522      2.54e-06     ortho_decomp BFGS Step
    5    -544.1533954522      3.23e-08     ortho_decomp 00000 Convergence criterion met
 Hartree-Fock
 Hartree-Fock
 Hartree-Fock
 Exchange:     0.1500 Hartree-Fock + 1.0000 wB97M-V + LR-HF
 Correlation:  1.0000 wB97M-V
 Using Euler-Maclaurin-Lebedev (99,590) quadrature formula
 Nonlocal Correlation:  VV10 with C = 0.0100 and b = 6.00 and scale = 1.00000
 Grid used for NLC:  SG-1 standard quadrature
 Long-range K will be added via erf
 Coulomb attenuation parameter = 0.3 bohr**(-1)
 Nonlocal correlation = 2.508486491646e-01
Doing General SCFMI
 Exchange:     0.1500 Hartree-Fock + 1.0000 wB97M-V + LR-HF
 Correlation:  1.0000 wB97M-V
 Using Euler-Maclaurin-Lebedev (99,590) quadrature formula
 Nonlocal Correlation:  VV10 with C = 0.0100 and b = 6.00 and scale = 1.00000
 Grid used for NLC:  SG-1 standard quadrature
performing fock build at end of subrot_r(subrot) constructor so that all methods have access
<S^2> of initial wavefunction before polarization iterations 0.0000000000
Beginning iterations for the determination of the polarized wavefunction
Energy prior to optimization (guess energy) = -544.308059878186
Begin Timing: Total SCF Calculation
begin iterations for algorithm: DIIS         
the SCF tolerance is set to 1.00e-08
    1    -544.3080598782      9.16e-04     00000 
    2    -544.3415727519      3.87e-04     00000 
    3    -544.3442152852      1.71e-04     00000 
    4    -544.3447586411      4.76e-05     00000 
    5    -544.3448361597      1.13e-05     00000 
    6    -544.3448442058      4.83e-06     00000 
    7    -544.3448448472      1.96e-06     00000 
    8    -544.3448450011      3.98e-07     00000 
    9    -544.3448450096      1.85e-07     00000 
   10    -544.3448450109      8.56e-08     00000 
   11    -544.3448450112      3.30e-08     00000 
   12    -544.3448450112      8.40e-09     00000 Convergence criterion met
write pseudocanon occs and virts to disk
write pseudocanon orbital energies to disk
Timing for Total SCF: 191.00s (wall), 1147.60s (cpu)
<S^2> of polarized wavefunction after polarization iterations 0.0000000000
relaxing scfmi constraint to allow all rotations in the entire AO span
Doing General SCFMI
 Exchange:     0.1500 Hartree-Fock + 1.0000 wB97M-V + LR-HF
 Correlation:  1.0000 wB97M-V
 Using Euler-Maclaurin-Lebedev (99,590) quadrature formula
 Nonlocal Correlation:  VV10 with C = 0.0100 and b = 6.00 and scale = 1.00000
 Grid used for NLC:  SG-1 standard quadrature
performing fock build at end of subrot_r(subrot) constructor so that all methods have access
<S^2> of polarized wavefunction before ct-allowed iterations 0.0000000000
Beginning iterations for the determination of the CT-Allowed wavefunction
Energy prior to optimization (guess energy) = -544.344845011205
Begin Timing: Total SCF Calculation
begin iterations for algorithm: DIIS         
the SCF tolerance is set to 1.00e-08
    1    -544.3448450112      2.35e-04     00000 
    2    -544.3466806866      1.42e-05     00000 
    3    -544.3466997677      1.71e-06     00000 
    4    -544.3466999511      1.20e-06     00000 
    5    -544.3467000222      1.98e-07     00000 
    6    -544.3467000245      3.89e-08     00000 
    7    -544.3467000247      1.54e-08     00000 
    8    -544.3467000247      4.70e-09     00000 Convergence criterion met
write pseudocanon occs and virts to disk
write pseudocanon orbital energies to disk
Timing for Total SCF: 121.00s (wall), 721.67s (cpu)
<S^2> of ct_allowed wavefunction after ct-allowed iterations 0.0000000000

================================
        Results of EDA2         
================================
Basic EDA Quantities
--------------------
Fragment Energies (Ha):
1 -162.0687155489
2 -382.1548863816
--------------------
  E_prp (kJ/mol) = -0.0000
  E_frz (kJ/mol) = -221.7470
  E_pol (kJ/mol) = -96.5805
  E_vct (kJ/mol) = -4.8704
  E_int (kJ/mol) = -323.1979
--------------------


Decomposition of frozen interaction energy
--------------------
  --------------------
  Orthogonal Frozen Decomposition:
  --------------------
     E_elec   (ELEC)   (kJ/mol) = -356.2254
     E_pauli  (PAULI)  (kJ/mol) = 154.4761
     E_disp   (DISP)   (kJ/mol) = -19.9977
  --------------------
  Classical Frozen Decomposition:
  --------------------
     E_cls_elec  (CLS ELEC)  (kJ/mol) = -312.4693
     E_mod_pauli (MOD PAULI) (kJ/mol) = 107.2475 (FRZ - CLS ELEC - CLS DISP)
     E_cls_disp  (CLS DISP)  (kJ/mol) = -16.5251
  --------------------
--------------------

Simplified EDA Summary (kJ/mol)
--------------------
 PREPARATION      -0.0000
 FROZEN           -221.7470 (ELEC + PAULI + DISP)
[ELEC + PAULI = -205.2219, DISP = -16.5251]
 POLARIZATION    -96.5805
 CHARGE TRANSFER -4.8704
 TOTAL           -323.1979     (PRP + FRZ + POL + CT)
--------------------
 
 --------------------------------------------------------------
 
                    Orbital Energies (a.u.)
 --------------------------------------------------------------
 
 Alpha MOs
 -- Occupied --
-38.8237 -19.5188 -19.5126 -19.5068 -19.4938 -19.4882  -2.4693  -1.3755
 -1.3734  -1.3728  -1.3334  -1.3125  -1.3080  -1.2868  -1.2740  -0.8337
 -0.8215  -0.8205  -0.7969  -0.7706  -0.6966  -0.6844  -0.6748  -0.6520
 -0.6434  -0.6290  -0.6094  -0.5918  -0.5847  -0.5737
 -- Virtual --
 -0.1354  -0.1145  -0.0934  -0.0892  -0.0583  -0.0550  -0.0479  -0.0413
 -0.0360  -0.0333  -0.0274  -0.0229  -0.0214  -0.0117  -0.0073   0.0015
  0.0038   0.0125   0.0198   0.0281   0.0407   0.0419   0.0515   0.0531
  0.0548   0.0626   0.0694   0.0797   0.0831   0.0872   0.0929   0.0980
  0.1055   0.1140   0.1238   0.1315   0.1354   0.1435   0.1514   0.1672
  0.1683   0.1748   0.1841   0.1888   0.1914   0.1980   0.2015   0.2136
  0.2207   0.2255   0.2308   0.2380   0.2426   0.2449   0.2492   0.2529
  0.2636   0.2653   0.2726   0.2746   0.2758   0.2786   0.2851   0.2916
  0.2951   0.2957   0.3024   0.3128   0.3171   0.3206   0.3278   0.3398
  0.3431   0.3584   0.3628   0.3722   0.3769   0.3910   0.3966   0.4011
  0.4331   0.4411   0.4462   0.4525   0.4615   0.4674   0.4747   0.4806
  0.5074   0.5130   0.5176   0.5235   0.5362   0.5396   0.5501   0.5549
  0.5736   0.6070   0.6117   0.6162   0.6287   0.6407   0.6487   0.6708
  0.6879   0.7072   0.7088   0.7134   0.7202   0.7349   0.7510   0.7644
  0.7785   0.7921   0.8094   0.8227   0.8320   0.8411   0.8523   0.8615
  0.8837   0.8847   0.8961   0.9194   0.9238   0.9349   0.9468   0.9601
  0.9938   1.0054   1.0109   1.0179   1.0242   1.0422   1.0563   1.0639
  1.0677   1.0779   1.0885   1.1029   1.1073   1.1181   1.1251   1.1356
  1.1626   1.1805   1.1868   1.1968   1.2102   1.2192   1.2315   1.2489
  1.2713   1.2836   1.3005   1.3093   1.3150   1.3286   1.3458   1.3545
  1.3827   1.3899   1.3982   1.4273   1.4733   1.5419   1.5895   1.6268
  1.7115   1.8164   1.8249   1.8335   1.8433   1.8641   1.8727   1.8932
  1.9015   1.9176   1.9217   1.9498   1.9607   1.9654   1.9959   2.0092
  2.0963   2.1139   2.1189   2.1341   2.1366   2.1566   2.1764   2.1985
  2.2025   2.2697   2.5077   2.5768   2.6002   2.6337   2.6380   2.6933
  2.7090   2.7348   2.7643   2.7726   2.8258   2.8527   2.9167   2.9522
  2.9643   3.0563   3.0732   3.0834   3.0973   3.1175   3.1446   3.1612
  3.1732   3.1773   3.1875   3.1919   3.2127   3.2205   3.2237   3.2427
  3.2474   3.2545   3.2596   3.2765   3.2835   3.2951   3.2960   3.3000
  3.3170   3.3199   3.3329   3.3385   3.3529   3.3811   3.4102   3.4318
  3.4515   3.4610   3.4806   3.5001   3.5257   3.5429   3.5625   3.5692
  3.6646   3.7628   3.7907   3.8000   3.8154   3.8515   3.8701   3.8904
  3.8954   3.9084   3.9367   3.9421   3.9649   3.9716   3.9724   3.9957
  4.0091   4.0146   4.0200   4.0293   4.0425   4.0506   4.0679   4.0878
  4.0936   4.0947   4.1027   4.1072   4.1272   4.1424   4.1499   4.1559
  4.1665   4.1703   4.1790   4.2494   4.5061   4.5308   4.5479   4.5541
  4.5628   4.5892   4.6082   4.6252   4.6409   4.7656   4.8194   4.8336
  4.8778   4.9117   4.9298   5.0079   5.0088   5.0363   5.0475   5.1013
  5.2448   5.4504   5.4576   5.4853   5.5075   5.6185   5.7857   5.7975
  5.8492   5.8665   5.8917   5.9121   5.9234   5.9806   6.0182   6.2514
  6.2586   6.3220   6.3370   6.3637   6.3666   6.4259   6.4524   6.4625
  6.4664   6.5058   6.5146   6.5229   6.5306   6.5385   6.5518   6.5587
  6.5775   6.5864   6.5928   6.6254   6.6335   6.6628   6.6669   6.6705
  6.6796   6.6985   6.7332   6.7490   6.7509   6.8247   6.8846   6.9288
  6.9506   6.9715   7.0103   7.2275   7.2302   7.2886   7.3370   7.3512
  7.3603   7.3782   7.4085   7.4920   7.6510   7.6941   7.7102   7.7588
  7.7820   7.7886  44.1838  44.2097  44.2611  44.3328  44.4328
 --------------------------------------------------------------
 
          Ground-State Mulliken Net Atomic Charges

     Atom                 Charge (a.u.)
  ----------------------------------------
      1 Na                    0.923811
      2 O                    -0.426562
      3 H                     0.209184
      4 H                     0.249602
      5 O                    -0.421004
      6 H                     0.201572
      7 H                     0.247133
      8 O                    -0.402286
      9 H                     0.209209
     10 H                     0.208543
     11 O                    -0.365568
     12 H                     0.192626
     13 H                     0.186798
     14 O                    -0.366630
     15 H                     0.155918
     16 H                     0.197654
  ----------------------------------------
  Sum of atomic charges =     1.000000

 -----------------------------------------------------------------
                    Cartesian Multipole Moments
 -----------------------------------------------------------------
    Charge (ESU x 10^10)
                 4.8032
    Dipole Moment (Debye)
         X       1.3258      Y      -0.0723      Z      -4.2503
       Tot       4.4529
    Quadrupole Moments (Debye-Ang)
        XX      -5.4330     XY       2.3185     YY     -28.1166
        XZ       7.6460     YZ      -2.0426     ZZ     -30.2960
    Octopole Moments (Debye-Ang^2)
       XXX      26.3100    XXY      -1.6946    XYY     -11.2368
       YYY       8.3665    XXZ     -19.0899    XYZ       2.5663
       YYZ      -4.6283    XZZ       4.4276    YZZ       0.4684
       ZZZ     -29.1480
    Hexadecapole Moments (Debye-Ang^3)
      XXXX    -340.9779   XXXY      29.9976   XXYY    -134.9078
      XYYY       1.4809   YYYY    -357.4038   XXXZ      23.8944
      XXYZ       6.3659   XYYZ       8.4623   YYYZ     -11.2481
      XXZZ     -95.8535   XYZZ       5.4349   YYZZ    -112.5185
      XZZZ      50.7048   YZZZ     -20.1354   ZZZZ    -206.9600
 -----------------------------------------------------------------
 Total job time:  1616.56s(wall), 3611.42s(cpu) 
 Wed Jan 10 14:54:23 2024

        *************************************************************
        *                                                           *
        *  Thank you very much for using Q-Chem.  Have a nice day.  *
        *                                                           *
        *************************************************************


