
Running Job 1 of 1 119_Na-Water_Cls_037_almo.in
qchem 119_Na-Water_Cls_037_almo.in_751294.0 /scratch/qchem751294/ 6
/home/kchung25/qchem/5.4.0/exe/qcprog.exe_s 119_Na-Water_Cls_037_almo.in_751294.0 /scratch/qchem751294/
                  Welcome to Q-Chem
     A Quantum Leap Into The Future Of Chemistry


 Q-Chem 5.4, Q-Chem, Inc., Pleasanton, CA (2021)

 E. Epifanovsky,  A. T. B. Gilbert,  Xintian Feng,  Joonho Lee,  Yuezhi Mao,  
 N. Mardirossian,  P. Pokhilko,  A. White,  M. Wormit,  M. P. Coons,  
 A. L. Dempwolff,  Zhengting Gan,  D. Hait,  P. R. Horn,  L. D. Jacobson,  
 I. Kaliman,  J. Kussmann,  A. W. Lange,  Ka Un Lao,  D. S. Levine,  Jie Liu,  
 S. C. McKenzie,  A. F. Morrison,  K. Nanda,  F. Plasser,  D. R. Rehn,  
 M. L. Vidal,  Zhi-Qiang You,  Ying Zhu,  B. Alam,  B. Albrecht,  
 A. Aldossary,  E. Alguire,  J. H. Andersen,  D. Barton,  K. Begam,  A. Behn,  
 Y. A. Bernard,  E. J. Berquist,  H. Burton,  A. Carreras,  K. Carter-Fenk,  
 Romit Chakraborty,  A. D. Chien,  K. D. Closser,  V. Cofer-Shabica,  
 S. Dasgupta,  Jia Deng,  M. de Wergifosse,  M. Diedenhofen,  Hainam Do,  
 S. Ehlert,  Po-Tung Fang,  S. Fatehi,  Qingguo Feng,  T. Friedhoff,  
 J. Gayvert,  Qinghui Ge,  G. Gidofalvi,  M. Goldey,  J. Gomes,  
 C. Gonzalez-Espinoza,  S. Gulania,  A. Gunina,  M. W. D. Hanson-Heine,  
 P. H. P. Harbach,  A. W. Hauser,  M. F. Herbst,  M. Hernandez Vera,  
 M. Hodecker,  Z. C. Holden,  S. Houck,  Xunkun Huang,  Kerwin Hui,  
 B. C. Huynh,  M. Ivanov,  Hyunjun Ji,  Hanjie Jiang,  B. Kaduk,  S. Kaehler,  
 K. Khistyaev,  Jaehoon Kim,  P. Klunzinger,  Z. Koczor-Benda,  
 Joong Hoon Koh,  D. Kosenkov,  L. Koulias,  T. Kowalczyk,  C. M. Krauter,  
 K. Kue,  A. Kunitsa,  T. Kus,  A. Landau,  K. V. Lawler,  D. Lefrancois,  
 S. Lehtola,  Rain Li,  Yi-Pei Li,  Jiashu Liang,  M. Liebenthal,  
 Hung-Hsuan Lin,  You-Sheng Lin,  Fenglai Liu,  Kuan-Yu Liu,  
 M. Loipersberger,  A. Luenser,  A. Manjanath,  P. Manohar,  E. Mansoor,  
 S. F. Manzer,  Shan-Ping Mao,  A. V. Marenich,  T. Markovich,  S. Mason,  
 S. A. Maurer,  P. F. McLaughlin,  M. F. S. J. Menger,  J.-M. Mewes,  
 S. A. Mewes,  P. Morgante,  J. W. Mullinax,  K. J. Oosterbaan,  G. Paran,  
 Alexander C. Paul,  Suranjan K. Paul,  F. Pavosevic,  Zheng Pei,  S. Prager,  
 E. I. Proynov,  E. Ramos,  B. Rana,  A. E. Rask,  A. Rettig,  R. M. Richard,  
 F. Rob,  E. Rossomme,  T. Scheele,  M. Scheurer,  M. Schneider,  
 N. Sergueev,  S. M. Sharada,  W. Skomorowski,  D. W. Small,  C. J. Stein,  
 Yu-Chuan Su,  E. J. Sundstrom,  Zhen Tao,  J. Thirman,  T. Tsuchimochi,  
 N. M. Tubman,  S. P. Veccham,  O. Vydrov,  J. Wenzel,  J. Witte,  A. Yamada,  
 Kun Yao,  S. Yeganeh,  S. R. Yost,  A. Zech,  Igor Ying Zhang,  Xing Zhang,  
 Yu Zhang,  D. Zuev,  A. Aspuru-Guzik,  A. T. Bell,  N. A. Besley,  
 K. B. Bravaya,  B. R. Brooks,  D. Casanova,  Jeng-Da Chai,  S. Coriani,  
 C. J. Cramer,  A. E. DePrince, III,  R. A. DiStasio Jr.,  A. Dreuw,  
 B. D. Dunietz,  T. R. Furlani,  W. A. Goddard III,  S. Grimme,  
 S. Hammes-Schiffer,  T. Head-Gordon,  W. J. Hehre,  Chao-Ping Hsu,  
 T.-C. Jagau,  Yousung Jung,  A. Klamt,  Jing Kong,  D. S. Lambrecht,  
 WanZhen Liang,  N. J. Mayhall,  C. W. McCurdy,  J. B. Neaton,  T. Neudecker,  
 C. Ochsenfeld,  J. A. Parkhill,  R. Peverati,  V. A. Rassolov,  Yihan Shao,  
 L. V. Slipchenko,  R. P. Steele,  J. E. Subotnik,  A. J. W. Thom,  
 A. Tkatchenko,  D. G. Truhlar,  T. Van Voorhis,  T. A. Wesolowski,  
 K. B. Whaley,  H. L. Woodcock III,  P. M. Zimmerman,  S. Faraji,  
 P. M. W. Gill,  M. Head-Gordon,  J. M. Herbert,  A. I. Krylov

 Additional authors since Version 5.4.0: 
 Chandrima Chakravarty,  L. Cunha,  R. Kang,  Yongbin Kim,  S. Kotaru,  
 Shaozhi Li,  Xiangyuan Li,  F. Matz,  A. Molle,  V. Parravicini,  
 Haisheng Ren,  Hengyuan Shen,  Yingli Su,  Hung-Yi Tsai,  C. Utku,  
 Fang Wang,  Jeff Yang,  F. Zeller

 Contributors to earlier versions of Q-Chem not listed above: 
 R. D. Adamson,  B. Austin,  R. Baer,  J. Baker,  G. J. O. Beran,  
 K. Brandhorst,  S. T. Brown,  E. F. C. Byrd,  Arup K. Chakraborty,  
 G. K. L. Chan,  Chun-Min Chang,  Yunqing Chen,  C.-L. Cheng,  
 Siu Hung Chien,  D. M. Chipman,  D. L. Crittenden,  H. Dachsel,  
 R. J. Doerksen,  A. D. Dutoi,  R. G. Edgar,  J. Fosso-Tande,  
 L. Fusti-Molnar,  D. Ghosh,  A. Ghysels,  A. Golubeva-Zadorozhnaya,  
 J. Gonthier,  M. S. Gordon,  S. R. Gwaltney,  G. Hawkins,  J. E. Herr,  
 A. Heyden,  S. Hirata,  E. G. Hohenstein,  G. Kedziora,  F. J. Keil,  
 C. Kelley,  Jihan Kim,  R. A. King,  R. Z. Khaliullin,  P. P. Korambath,  
 W. Kurlancheek,  A. Laurent,  A. M. Lee,  M. S. Lee,  S. V. Levchenko,  
 Ching Yeh Lin,  D. Liotard,  E. Livshits,  R. C. Lochan,  I. Lotan,  
 L. A. Martinez-Martinez,  P. E. Maslen,  N. Nair,  D. P. O'Neill,  
 D. Neuhauser,  E. Neuscamman,  C. M. Oana,  R. Olivares-Amaya,  R. Olson,  
 T. M. Perrine,  B. Peters,  P. A. Pieniazek,  A. Prociuk,  Y. M. Rhee,  
 J. Ritchie,  M. A. Rohrdanz,  E. Rosta,  N. J. Russ,  H. F. Schaefer III,  
 M. W. Schmidt,  N. E. Schultz,  S. Sharma,  N. Shenvi,  C. D. Sherrill,  
 A. C. Simmonett,  A. Sodt,  T. Stein,  D. Stuck,  K. S. Thanthiriwatte,  
 V. Vanovschi,  L. Vogt,  Tao Wang,  A. Warshel,  M. A. Watson,  
 C. F. Williams,  Q. Wu,  X. Xu,  Jun Yang,  W. Zhang,  Yan Zhao

   Please cite Q-Chem as follows:
  "Software for the frontiers of quantum chemistry:
   An overview of developments in the Q-Chem 5 package"
   J. Chem. Phys. 155, 084801 (2021)
   https://doi.org/10.1063/5.0055522 (open access)

 Q-Chem 5.4.2 for Intel X86 EM64T Linux

 Parts of Q-Chem use Armadillo 9.900.5 (Nocturnal Misbehaviour).
 http://arma.sourceforge.net/

 Q-Chem begins on Wed Jan 10 22:39:10 2024  

 Host: 
0

     Scratch files written to /scratch/qchem751294//
 Dec1321 |scratch|qcdevops|jenkins|workspace|build_RNUM 5684   
 Processing $rem in /home/kchung25/qchem/5.4.0/config/preferences:
 Processing $rem in /home/kchung25/.qchemrc:

 Q-Chem warning in module libgen/rem_setup.C, line 3079:

 Neither GIA nor STOLL is specified by user. Use STOLL as the default


 Checking the input file for inconsistencies... 	...done.

--------------------------------------------------------------
User input:
--------------------------------------------------------------
$molecule
1 1
--
1 1
Na     0.000000     0.000000     0.000000
--
0 1
O     -1.116986    -1.262600     1.452823
H     -1.933314    -0.949816     1.831289
H     -1.388892    -2.089831     1.067611
O     -2.064765    -0.369848    -1.354204
H     -2.208321     0.074992    -2.228213
H     -2.865148    -0.793867    -1.087041
O     -0.752363     1.854057     1.354572
H     -1.096528     1.642435     2.231559
H     -1.447594     2.380144     0.877744
O      2.350808     0.315241     0.892599
H      3.010726     0.173134     0.141394
H      2.495966     1.172138     1.167830
O      1.084462     1.438589    -1.573635
H      1.544269     0.800080    -2.144693
H      1.595583     2.266747    -1.520243
$end

$rem
JOBTYPE          eda
EDA2             1
METHOD           wB97M-V
BASIS            def2-TZVPPD
SYMMETRY         false
MEM_TOTAL        50000
MEM_STATIC       10000
THRESH           14
SCF_CONVERGENCE  8
XC_GRID          000099000590
NL_GRID          1
EDA_CLS_DISP     true
FD_MAT_VEC_PROD  FALSE
$end
--------------------------------------------------------------
 ----------------------------------------------------------------
             Standard Nuclear Orientation (Angstroms)
    I     Atom           X                Y                Z
 ----------------------------------------------------------------
    1      Na     -0.0341201321     0.0232859118    -0.3647289926
    2      O      -1.6066577741    -1.5068492769    -0.7366467553
    3      H      -2.2458654608    -1.7114085293    -0.0606062292
    4      H      -2.1694561539    -1.2664852468    -1.4661091614
    5      O      -2.0305486488     1.5171755928    -0.2363649758
    6      H      -1.9575737460     2.4739269767     0.0119979355
    7      H      -2.9417813056     1.2698662230    -0.2529254205
    8      O      -0.0399846315    -0.8259836979     1.8973827385
    9      H      -0.4690658696    -1.6787645156     2.0422750587
   10      H      -0.4550502288    -0.1711874903     2.5190266019
   11      O       2.2190606634    -1.0681394524    -0.7576349519
   12      H       2.7944651847    -0.4477467231    -1.3090128772
   13      H       2.6808539373    -1.1801217370     0.0203768457
   14      O       1.5819905555     1.7103696129     0.1489421905
   15      H       1.7718680524     2.0798718067    -0.7300561740
   16      H       2.3760457262     1.7633219791     0.7116263719
 ----------------------------------------------------------------
 Molecular Point Group                 C1    NOp =  1
 Largest Abelian Subgroup              C1    NOp =  1
 Nuclear Repulsion Energy =         303.18795042 hartrees
 There are       30 alpha and       30 beta electrons
 Requested basis set is def2-TZVPPD
 There are 153 shells and 405 basis functions

 Q-Chem warning in module libmdc/get_mega.C, line 171:

 Allowed MEM_STATIC has been capped at MEM_STATIC=8191.
 Reduce the value of MEM_STATIC to silence this warning.


 Total QAlloc Memory Limit  50000 MB
 Mega-Array Size      8007 MB
 MEM_STATIC part      8191 MB
 A cutoff of  1.0D-14 yielded  10450 shell pairs
 There are     72154 function pairs (     87418 Cartesian)
 Smallest overlap matrix eigenvalue = 1.22E-04

 Scale SEOQF with 1.000000e-01/1.000000e-01/1.000000e-01

 Standard Electronic Orientation quadrupole field applied
 Nucleus-field energy     =     0.0000000068 hartrees

 -----------------------------------------------------------------------
  General SCF calculation program by
  Eric Jon Sundstrom, Paul Horn, Yuezhi Mao, Dmitri Zuev, Alec White,
  David Stuck, Shaama M.S., Shane Yost, Joonho Lee, David Small,
  Daniel Levine, Susi Lehtola, Hugh Burton, Evgeny Epifanovsky,
  Bang C. Huynh
 -----------------------------------------------------------------------
================================================================
                 ALMO-EDA with the EDA2 driver                  
================================================================
 The second-generation ALMO-EDA (for DFT):                      
 P. R. Horn, Y. Mao and M. Head-Gordon, PCCP, 18, 23067 (2016)  
 Y. Mao et al. Annu. Rev. Phys. Chem. 72, 641 (2021)            
 Decomposition of the frozen energy:                            
 P. R. Horn, Y. Mao and M. Head-Gordon, JCP, 144, 114107 (2016) 
 FERF model for polarization:                                   
 P. R. Horn and M. Head-Gordon, JCP, 143, 114111 (2015)         
================================================================
 Using eda2 option set 1
 Option set summary: Frozen orbital wavefunction, initial wavefunction decomposition, and nDQ polarization.
--------------------------------
Printing EDA Options
--------------------------------
eda_child_super_basis      0
fragmo_guess_mode          0
child_mp                   1
child_mp_orders            232
cls_elec                   1
cls_disp                   1
scfmi_mode                 1
scfmi_occs                 0
scfmi_virts                0
frz_relax                  0
frz_relax_method           0
dc_pen_start               0
dc_pen_conv                0
dc_pen_increment           0
dc_pen_steps               0
dc_pen_thresh_factor       0
dc_pen_pre_newton_thresh   0
frz_ortho_decomp           1
frz_ortho_decomp_conv      6
plot_mo_ortho_frz          0
frgm_method                2
scfmi_freeze_ss            0
separate_rehyb             0
plot_diff_den              0
eda_nocv                   0
eda_vct_relax              1
disp_free_x                0
disp_free_c                0
eda_bsse                   0
eda_pct_a                  0
eda_covp                   0
--------------------------------
Attempting to make child job directory: /scratch/qchem751294//Frg1/
Attempting to make child job directory: /scratch/qchem751294//Frg2/
Creating input file /scratch/qchem751294/Frg1.input
using default PutDataFrgm: nothing
calling putenv with: QCSCRATCH=/scratch/qchem751294/ 
Spawning Job For Fragment 0
Done Job For Fragment 0
calling putenv with: QCSCRATCH=/scratch 
calling putenv with: QCTHREADS=6 
Creating input file /scratch/qchem751294/Frg2.input
using default PutDataFrgm: nothing
calling putenv with: QCSCRATCH=/scratch/qchem751294/ 
Spawning Job For Fragment 1
Done Job For Fragment 1
calling putenv with: QCSCRATCH=/scratch 
calling putenv with: QCTHREADS=6 
Doing General SCFMI
 Exchange:     0.1500 Hartree-Fock + 1.0000 wB97M-V + LR-HF
 Correlation:  1.0000 wB97M-V
 Using Euler-Maclaurin-Lebedev (99,590) quadrature formula
 Nonlocal Correlation:  VV10 with C = 0.0100 and b = 6.00 and scale = 1.00000
 Grid used for NLC:  SG-1 standard quadrature
performing fock build before subrot guess so that all methods have access
Printing subrot_rss_gen Method Specification:
Occupied Subspace Method is 0
Virtual Subspace Method is 0
Energy of the unrelaxed supersystem initial determinant -544.327547772979
write pseudocanon occs and virts to disk
write pseudocanon orbital energies to disk
Tolerance of ortho_decomp_scf: 1.00e-06
GDM subspace size: 20
Beginning the Orthogonal Decomposition of the Initial Supersystem Wavefunction
    1    -544.1494494277      2.32e-01     ortho_decomp Preconditoned Steepest Descent
    2    -544.1638566082      2.97e-03     ortho_decomp BFGS Step
    3    -544.1638694967      1.30e-04     ortho_decomp BFGS Step
    4    -544.1638695029      2.44e-06     ortho_decomp BFGS Step
    5    -544.1638695029      3.60e-08     ortho_decomp 00000 Convergence criterion met
 Hartree-Fock
 Hartree-Fock
 Hartree-Fock
 Exchange:     0.1500 Hartree-Fock + 1.0000 wB97M-V + LR-HF
 Correlation:  1.0000 wB97M-V
 Using Euler-Maclaurin-Lebedev (99,590) quadrature formula
 Nonlocal Correlation:  VV10 with C = 0.0100 and b = 6.00 and scale = 1.00000
 Grid used for NLC:  SG-1 standard quadrature
 Long-range K will be added via erf
 Coulomb attenuation parameter = 0.3 bohr**(-1)
 Nonlocal correlation = 2.512189482553e-01
Doing General SCFMI
 Exchange:     0.1500 Hartree-Fock + 1.0000 wB97M-V + LR-HF
 Correlation:  1.0000 wB97M-V
 Using Euler-Maclaurin-Lebedev (99,590) quadrature formula
 Nonlocal Correlation:  VV10 with C = 0.0100 and b = 6.00 and scale = 1.00000
 Grid used for NLC:  SG-1 standard quadrature
performing fock build at end of subrot_r(subrot) constructor so that all methods have access
<S^2> of initial wavefunction before polarization iterations 0.0000000000
Beginning iterations for the determination of the polarized wavefunction
Energy prior to optimization (guess energy) = -544.327547772979
Begin Timing: Total SCF Calculation
begin iterations for algorithm: DIIS         
the SCF tolerance is set to 1.00e-08
    1    -544.3275477730      9.05e-04     00000 
    2    -544.3596320895      4.37e-04     00000 
    3    -544.3628662172      1.90e-04     00000 
    4    -544.3635280629      4.25e-05     00000 
    5    -544.3635956107      1.01e-05     00000 
    6    -544.3636020917      3.52e-06     00000 
    7    -544.3636024618      1.86e-06     00000 
    8    -544.3636025592      3.07e-07     00000 
    9    -544.3636025627      1.30e-07     00000 
   10    -544.3636025632      5.10e-08     00000 
   11    -544.3636025633      2.67e-08     00000 
   12    -544.3636025633      6.81e-09     00000 Convergence criterion met
write pseudocanon occs and virts to disk
write pseudocanon orbital energies to disk
Timing for Total SCF: 187.00s (wall), 1118.54s (cpu)
<S^2> of polarized wavefunction after polarization iterations 0.0000000000
relaxing scfmi constraint to allow all rotations in the entire AO span
Doing General SCFMI
 Exchange:     0.1500 Hartree-Fock + 1.0000 wB97M-V + LR-HF
 Correlation:  1.0000 wB97M-V
 Using Euler-Maclaurin-Lebedev (99,590) quadrature formula
 Nonlocal Correlation:  VV10 with C = 0.0100 and b = 6.00 and scale = 1.00000
 Grid used for NLC:  SG-1 standard quadrature
performing fock build at end of subrot_r(subrot) constructor so that all methods have access
<S^2> of polarized wavefunction before ct-allowed iterations 0.0000000000
Beginning iterations for the determination of the CT-Allowed wavefunction
Energy prior to optimization (guess energy) = -544.363602563271
Begin Timing: Total SCF Calculation
begin iterations for algorithm: DIIS         
the SCF tolerance is set to 1.00e-08
    1    -544.3636025633      2.32e-04     00000 
    2    -544.3653550457      1.40e-05     00000 
    3    -544.3653736018      1.52e-06     00000 
    4    -544.3653738043      6.99e-07     00000 
    5    -544.3653738260      2.04e-07     00000 
    6    -544.3653738283      4.82e-08     00000 
    7    -544.3653738285      9.24e-09     00000 Convergence criterion met
write pseudocanon occs and virts to disk
write pseudocanon orbital energies to disk
Timing for Total SCF: 102.00s (wall), 612.23s (cpu)
<S^2> of ct_allowed wavefunction after ct-allowed iterations 0.0000000000

================================
        Results of EDA2         
================================
Basic EDA Quantities
--------------------
Fragment Energies (Ha):
1 -162.0687155489
2 -382.1566934465
--------------------
  E_prp (kJ/mol) = 0.0000
  E_frz (kJ/mol) = -268.1685
  E_pol (kJ/mol) = -94.6630
  E_vct (kJ/mol) = -4.6505
  E_int (kJ/mol) = -367.4820
--------------------


Decomposition of frozen interaction energy
--------------------
  --------------------
  Orthogonal Frozen Decomposition:
  --------------------
     E_elec   (ELEC)   (kJ/mol) = -385.1026
     E_pauli  (PAULI)  (kJ/mol) = 135.3843
     E_disp   (DISP)   (kJ/mol) = -18.4503
  --------------------
  Classical Frozen Decomposition:
  --------------------
     E_cls_elec  (CLS ELEC)  (kJ/mol) = -343.8691
     E_mod_pauli (MOD PAULI) (kJ/mol) = 91.0472 (FRZ - CLS ELEC - CLS DISP)
     E_cls_disp  (CLS DISP)  (kJ/mol) = -15.3466
  --------------------
--------------------

Simplified EDA Summary (kJ/mol)
--------------------
 PREPARATION      0.0000
 FROZEN           -268.1685 (ELEC + PAULI + DISP)
[ELEC + PAULI = -252.8219, DISP = -15.3466]
 POLARIZATION    -94.6630
 CHARGE TRANSFER -4.6505
 TOTAL           -367.4820     (PRP + FRZ + POL + CT)
--------------------
 
 --------------------------------------------------------------
 
                    Orbital Energies (a.u.)
 --------------------------------------------------------------
 
 Alpha MOs
 -- Occupied --
-38.8116 -19.4983 -19.4973 -19.4952 -19.4908 -19.4764  -2.4565  -1.3618
 -1.3607  -1.3590  -1.3111  -1.2961  -1.2955  -1.2855  -1.2844  -0.8075
 -0.8047  -0.8029  -0.7893  -0.7812  -0.6859  -0.6702  -0.6633  -0.6543
 -0.6486  -0.6008  -0.5976  -0.5877  -0.5791  -0.5605
 -- Virtual --
 -0.1257  -0.1059  -0.0920  -0.0859  -0.0562  -0.0512  -0.0445  -0.0371
 -0.0357  -0.0301  -0.0261  -0.0223  -0.0094  -0.0058  -0.0026  -0.0014
  0.0067   0.0131   0.0206   0.0263   0.0454   0.0492   0.0552   0.0565
  0.0620   0.0737   0.0768   0.0803   0.0869   0.0957   0.0963   0.1012
  0.1155   0.1241   0.1356   0.1380   0.1437   0.1518   0.1564   0.1622
  0.1657   0.1763   0.1815   0.1893   0.1937   0.2032   0.2075   0.2098
  0.2216   0.2226   0.2354   0.2376   0.2434   0.2450   0.2502   0.2537
  0.2594   0.2614   0.2647   0.2691   0.2760   0.2850   0.2870   0.2902
  0.2930   0.2978   0.3018   0.3044   0.3166   0.3257   0.3333   0.3359
  0.3426   0.3532   0.3740   0.3820   0.3843   0.3911   0.4030   0.4243
  0.4308   0.4441   0.4523   0.4599   0.4661   0.4755   0.4803   0.4967
  0.5079   0.5176   0.5280   0.5316   0.5332   0.5441   0.5560   0.5738
  0.5830   0.5999   0.6145   0.6187   0.6294   0.6426   0.6534   0.6761
  0.6910   0.7041   0.7078   0.7142   0.7267   0.7315   0.7489   0.7593
  0.7678   0.7939   0.8062   0.8203   0.8311   0.8399   0.8590   0.8651
  0.8855   0.9201   0.9228   0.9383   0.9451   0.9653   0.9852   0.9877
  1.0031   1.0137   1.0209   1.0346   1.0410   1.0618   1.0719   1.0808
  1.0861   1.1016   1.1044   1.1302   1.1349   1.1397   1.1447   1.1635
  1.1738   1.1950   1.2017   1.2098   1.2195   1.2342   1.2438   1.2580
  1.2813   1.2854   1.2989   1.3140   1.3186   1.3563   1.3673   1.3731
  1.3820   1.3917   1.4081   1.4238   1.4429   1.5365   1.5949   1.6570
  1.6954   1.8197   1.8370   1.8475   1.8516   1.8604   1.8830   1.8979
  1.9009   1.9154   1.9341   1.9507   1.9851   1.9890   2.0082   2.0141
  2.0711   2.1105   2.1239   2.1288   2.1532   2.1576   2.1829   2.1970
  2.2183   2.2663   2.5262   2.5474   2.6118   2.6479   2.6766   2.6891
  2.7321   2.7478   2.7677   2.8025   2.8273   2.8704   2.9140   2.9452
  2.9551   3.0357   3.0597   3.0898   3.1146   3.1330   3.1467   3.1555
  3.1636   3.1691   3.1799   3.2059   3.2385   3.2535   3.2671   3.2711
  3.2764   3.2913   3.2967   3.3075   3.3149   3.3213   3.3248   3.3287
  3.3429   3.3520   3.3665   3.3717   3.3747   3.3893   3.3939   3.4085
  3.4390   3.4549   3.4831   3.5217   3.5390   3.5714   3.5929   3.6047
  3.6131   3.7831   3.8000   3.8073   3.8260   3.8480   3.8635   3.8761
  3.9106   3.9265   3.9393   3.9537   3.9633   3.9784   3.9907   4.0024
  4.0239   4.0347   4.0401   4.0575   4.0636   4.0672   4.0765   4.0813
  4.0986   4.1064   4.1193   4.1325   4.1360   4.1395   4.1507   4.1575
  4.1596   4.1809   4.1993   4.2035   4.5641   4.5766   4.5821   4.5864
  4.5993   4.6119   4.6201   4.6271   4.7001   4.7109   4.8546   4.8591
  4.8749   4.9023   4.9081   4.9765   5.0617   5.0819   5.1151   5.1605
  5.2023   5.5013   5.5135   5.5170   5.5748   5.5875   5.7968   5.8167
  5.8281   5.8670   5.9498   5.9886   6.0207   6.0403   6.1369   6.2397
  6.2909   6.3393   6.3443   6.3933   6.4213   6.4289   6.4422   6.4652
  6.4711   6.4876   6.5219   6.5283   6.5473   6.5571   6.5751   6.5841
  6.5966   6.6079   6.6168   6.6304   6.6479   6.6520   6.6601   6.6765
  6.7001   6.7100   6.7143   6.7246   6.7562   6.8160   6.9314   6.9349
  6.9506   6.9635   6.9706   7.2972   7.3278   7.3517   7.3856   7.4120
  7.4296   7.4456   7.4591   7.5237   7.6007   7.7032   7.7267   7.7662
  7.7955   7.8088  44.2300  44.2743  44.2870  44.3394  44.4422
 --------------------------------------------------------------
 
          Ground-State Mulliken Net Atomic Charges

     Atom                 Charge (a.u.)
  ----------------------------------------
      1 Na                    0.906413
      2 O                    -0.323326
      3 H                     0.159683
      4 H                     0.167367
      5 O                    -0.287268
      6 H                     0.182651
      7 H                     0.122472
      8 O                    -0.370487
      9 H                     0.166220
     10 H                     0.224079
     11 O                    -0.318692
     12 H                     0.218241
     13 H                     0.135932
     14 O                    -0.358926
     15 H                     0.207587
     16 H                     0.168052
  ----------------------------------------
  Sum of atomic charges =     1.000000

 -----------------------------------------------------------------
                    Cartesian Multipole Moments
 -----------------------------------------------------------------
    Charge (ESU x 10^10)
                 4.8032
    Dipole Moment (Debye)
         X      -1.5626      Y       2.4657      Z       0.2879
       Tot       2.9333
    Quadrupole Moments (Debye-Ang)
        XX      -3.1057     XY       5.7208     YY     -25.6260
        XZ      -1.8744     YZ      -4.4778     ZZ     -25.4117
    Octopole Moments (Debye-Ang^2)
       XXX      -2.6385    XXY      13.8227    XYY     -12.8921
       YYY      22.5114    XXZ      -8.9431    XYZ      -4.1413
       YYZ       9.2797    XZZ      -4.5781    YZZ      -1.6115
       ZZZ       8.0057
    Hexadecapole Moments (Debye-Ang^3)
      XXXX    -321.8799   XXXY      18.8367   XXYY     -95.2701
      XYYY      -1.8268   YYYY    -343.2003   XXXZ      15.9318
      XXYZ       1.1534   XYYZ      -4.8006   YYYZ     -34.4203
      XXZZ    -111.0855   XYZZ      28.0891   YYZZ     -93.9101
      XZZZ     -18.8174   YZZZ      -2.8235   ZZZZ    -176.2273
 -----------------------------------------------------------------
 Total job time:  1549.99s(wall), 3431.11s(cpu) 
 Wed Jan 10 23:05:00 2024

        *************************************************************
        *                                                           *
        *  Thank you very much for using Q-Chem.  Have a nice day.  *
        *                                                           *
        *************************************************************


