
Running Job 1 of 1 119_Na-Water_Cls_026_almo.in
qchem 119_Na-Water_Cls_026_almo.in_743066.0 /scratch/qchem743066/ 6
/home/kchung25/qchem/5.4.0/exe/qcprog.exe_s 119_Na-Water_Cls_026_almo.in_743066.0 /scratch/qchem743066/
                  Welcome to Q-Chem
     A Quantum Leap Into The Future Of Chemistry


 Q-Chem 5.4, Q-Chem, Inc., Pleasanton, CA (2021)

 E. Epifanovsky,  A. T. B. Gilbert,  Xintian Feng,  Joonho Lee,  Yuezhi Mao,  
 N. Mardirossian,  P. Pokhilko,  A. White,  M. Wormit,  M. P. Coons,  
 A. L. Dempwolff,  Zhengting Gan,  D. Hait,  P. R. Horn,  L. D. Jacobson,  
 I. Kaliman,  J. Kussmann,  A. W. Lange,  Ka Un Lao,  D. S. Levine,  Jie Liu,  
 S. C. McKenzie,  A. F. Morrison,  K. Nanda,  F. Plasser,  D. R. Rehn,  
 M. L. Vidal,  Zhi-Qiang You,  Ying Zhu,  B. Alam,  B. Albrecht,  
 A. Aldossary,  E. Alguire,  J. H. Andersen,  D. Barton,  K. Begam,  A. Behn,  
 Y. A. Bernard,  E. J. Berquist,  H. Burton,  A. Carreras,  K. Carter-Fenk,  
 Romit Chakraborty,  A. D. Chien,  K. D. Closser,  V. Cofer-Shabica,  
 S. Dasgupta,  Jia Deng,  M. de Wergifosse,  M. Diedenhofen,  Hainam Do,  
 S. Ehlert,  Po-Tung Fang,  S. Fatehi,  Qingguo Feng,  T. Friedhoff,  
 J. Gayvert,  Qinghui Ge,  G. Gidofalvi,  M. Goldey,  J. Gomes,  
 C. Gonzalez-Espinoza,  S. Gulania,  A. Gunina,  M. W. D. Hanson-Heine,  
 P. H. P. Harbach,  A. W. Hauser,  M. F. Herbst,  M. Hernandez Vera,  
 M. Hodecker,  Z. C. Holden,  S. Houck,  Xunkun Huang,  Kerwin Hui,  
 B. C. Huynh,  M. Ivanov,  Hyunjun Ji,  Hanjie Jiang,  B. Kaduk,  S. Kaehler,  
 K. Khistyaev,  Jaehoon Kim,  P. Klunzinger,  Z. Koczor-Benda,  
 Joong Hoon Koh,  D. Kosenkov,  L. Koulias,  T. Kowalczyk,  C. M. Krauter,  
 K. Kue,  A. Kunitsa,  T. Kus,  A. Landau,  K. V. Lawler,  D. Lefrancois,  
 S. Lehtola,  Rain Li,  Yi-Pei Li,  Jiashu Liang,  M. Liebenthal,  
 Hung-Hsuan Lin,  You-Sheng Lin,  Fenglai Liu,  Kuan-Yu Liu,  
 M. Loipersberger,  A. Luenser,  A. Manjanath,  P. Manohar,  E. Mansoor,  
 S. F. Manzer,  Shan-Ping Mao,  A. V. Marenich,  T. Markovich,  S. Mason,  
 S. A. Maurer,  P. F. McLaughlin,  M. F. S. J. Menger,  J.-M. Mewes,  
 S. A. Mewes,  P. Morgante,  J. W. Mullinax,  K. J. Oosterbaan,  G. Paran,  
 Alexander C. Paul,  Suranjan K. Paul,  F. Pavosevic,  Zheng Pei,  S. Prager,  
 E. I. Proynov,  E. Ramos,  B. Rana,  A. E. Rask,  A. Rettig,  R. M. Richard,  
 F. Rob,  E. Rossomme,  T. Scheele,  M. Scheurer,  M. Schneider,  
 N. Sergueev,  S. M. Sharada,  W. Skomorowski,  D. W. Small,  C. J. Stein,  
 Yu-Chuan Su,  E. J. Sundstrom,  Zhen Tao,  J. Thirman,  T. Tsuchimochi,  
 N. M. Tubman,  S. P. Veccham,  O. Vydrov,  J. Wenzel,  J. Witte,  A. Yamada,  
 Kun Yao,  S. Yeganeh,  S. R. Yost,  A. Zech,  Igor Ying Zhang,  Xing Zhang,  
 Yu Zhang,  D. Zuev,  A. Aspuru-Guzik,  A. T. Bell,  N. A. Besley,  
 K. B. Bravaya,  B. R. Brooks,  D. Casanova,  Jeng-Da Chai,  S. Coriani,  
 C. J. Cramer,  A. E. DePrince, III,  R. A. DiStasio Jr.,  A. Dreuw,  
 B. D. Dunietz,  T. R. Furlani,  W. A. Goddard III,  S. Grimme,  
 S. Hammes-Schiffer,  T. Head-Gordon,  W. J. Hehre,  Chao-Ping Hsu,  
 T.-C. Jagau,  Yousung Jung,  A. Klamt,  Jing Kong,  D. S. Lambrecht,  
 WanZhen Liang,  N. J. Mayhall,  C. W. McCurdy,  J. B. Neaton,  T. Neudecker,  
 C. Ochsenfeld,  J. A. Parkhill,  R. Peverati,  V. A. Rassolov,  Yihan Shao,  
 L. V. Slipchenko,  R. P. Steele,  J. E. Subotnik,  A. J. W. Thom,  
 A. Tkatchenko,  D. G. Truhlar,  T. Van Voorhis,  T. A. Wesolowski,  
 K. B. Whaley,  H. L. Woodcock III,  P. M. Zimmerman,  S. Faraji,  
 P. M. W. Gill,  M. Head-Gordon,  J. M. Herbert,  A. I. Krylov

 Additional authors since Version 5.4.0: 
 Chandrima Chakravarty,  L. Cunha,  R. Kang,  Yongbin Kim,  S. Kotaru,  
 Shaozhi Li,  Xiangyuan Li,  F. Matz,  A. Molle,  V. Parravicini,  
 Haisheng Ren,  Hengyuan Shen,  Yingli Su,  Hung-Yi Tsai,  C. Utku,  
 Fang Wang,  Jeff Yang,  F. Zeller

 Contributors to earlier versions of Q-Chem not listed above: 
 R. D. Adamson,  B. Austin,  R. Baer,  J. Baker,  G. J. O. Beran,  
 K. Brandhorst,  S. T. Brown,  E. F. C. Byrd,  Arup K. Chakraborty,  
 G. K. L. Chan,  Chun-Min Chang,  Yunqing Chen,  C.-L. Cheng,  
 Siu Hung Chien,  D. M. Chipman,  D. L. Crittenden,  H. Dachsel,  
 R. J. Doerksen,  A. D. Dutoi,  R. G. Edgar,  J. Fosso-Tande,  
 L. Fusti-Molnar,  D. Ghosh,  A. Ghysels,  A. Golubeva-Zadorozhnaya,  
 J. Gonthier,  M. S. Gordon,  S. R. Gwaltney,  G. Hawkins,  J. E. Herr,  
 A. Heyden,  S. Hirata,  E. G. Hohenstein,  G. Kedziora,  F. J. Keil,  
 C. Kelley,  Jihan Kim,  R. A. King,  R. Z. Khaliullin,  P. P. Korambath,  
 W. Kurlancheek,  A. Laurent,  A. M. Lee,  M. S. Lee,  S. V. Levchenko,  
 Ching Yeh Lin,  D. Liotard,  E. Livshits,  R. C. Lochan,  I. Lotan,  
 L. A. Martinez-Martinez,  P. E. Maslen,  N. Nair,  D. P. O'Neill,  
 D. Neuhauser,  E. Neuscamman,  C. M. Oana,  R. Olivares-Amaya,  R. Olson,  
 T. M. Perrine,  B. Peters,  P. A. Pieniazek,  A. Prociuk,  Y. M. Rhee,  
 J. Ritchie,  M. A. Rohrdanz,  E. Rosta,  N. J. Russ,  H. F. Schaefer III,  
 M. W. Schmidt,  N. E. Schultz,  S. Sharma,  N. Shenvi,  C. D. Sherrill,  
 A. C. Simmonett,  A. Sodt,  T. Stein,  D. Stuck,  K. S. Thanthiriwatte,  
 V. Vanovschi,  L. Vogt,  Tao Wang,  A. Warshel,  M. A. Watson,  
 C. F. Williams,  Q. Wu,  X. Xu,  Jun Yang,  W. Zhang,  Yan Zhao

   Please cite Q-Chem as follows:
  "Software for the frontiers of quantum chemistry:
   An overview of developments in the Q-Chem 5 package"
   J. Chem. Phys. 155, 084801 (2021)
   https://doi.org/10.1063/5.0055522 (open access)

 Q-Chem 5.4.2 for Intel X86 EM64T Linux

 Parts of Q-Chem use Armadillo 9.900.5 (Nocturnal Misbehaviour).
 http://arma.sourceforge.net/

 Q-Chem begins on Wed Jan 10 18:28:57 2024  

 Host: 
0

     Scratch files written to /scratch/qchem743066//
 Dec1321 |scratch|qcdevops|jenkins|workspace|build_RNUM 5684   
 Processing $rem in /home/kchung25/qchem/5.4.0/config/preferences:
 Processing $rem in /home/kchung25/.qchemrc:

 Q-Chem warning in module libgen/rem_setup.C, line 3079:

 Neither GIA nor STOLL is specified by user. Use STOLL as the default


 Checking the input file for inconsistencies... 	...done.

--------------------------------------------------------------
User input:
--------------------------------------------------------------
$molecule
1 1
--
1 1
Na     0.000000     0.000000     0.000000
--
0 1
O      1.253579     0.063260    -2.196883
H      0.530569    -0.042832    -2.850777
H      1.564699     0.980568    -2.311182
O     -1.425901     1.291559    -1.588414
H     -2.039556     2.035442    -1.483596
H     -1.231776     1.193012    -2.572110
O      1.955432     0.647696     0.920318
H      2.748734     0.681493     0.364928
H      2.082270     1.398481     1.485384
O     -1.171308     1.996727     1.191900
H     -0.733170     1.943359     2.043845
H     -0.778785     2.688259     0.685134
O     -1.590268    -1.637366     0.582324
H     -1.565435    -2.598292     0.444562
H     -2.397617    -1.328886     0.147644
O      1.193429    -2.328553     0.401489
H      1.334662    -2.417231     1.342880
H      0.959023    -3.262843     0.115842
$end

$rem
JOBTYPE          eda
EDA2             1
METHOD           wB97M-V
BASIS            def2-TZVPPD
SYMMETRY         false
MEM_TOTAL        50000
MEM_STATIC       10000
THRESH           14
SCF_CONVERGENCE  8
XC_GRID          000099000590
NL_GRID          1
EDA_CLS_DISP     true
FD_MAT_VEC_PROD  FALSE
$end
--------------------------------------------------------------
 ----------------------------------------------------------------
             Standard Nuclear Orientation (Angstroms)
    I     Atom           X                Y                Z
 ----------------------------------------------------------------
    1      Na     -0.0223702288    -0.0885147336    -0.0781540520
    2      O      -0.2263288373     2.0002343036     1.3350994279
    3      H       0.1691654219     1.7140509034     2.1855461859
    4      H       0.4057749439     2.6455618501     0.9672529243
    5      O       2.0719995187     0.0580794108     1.2696229568
    6      H       2.9934053156    -0.1958790948     1.1039798928
    7      H       2.0619933292     0.6572702493     2.0795143461
    8      O      -0.6401050788     1.2381891596    -1.7952650184
    9      H      -0.9206190439     2.1471049336    -1.6105696375
   10      H      -0.1726462334     1.3420969562    -2.6136481662
   11      O       2.0477549445    -0.8442129737    -1.4648799406
   12      H       1.6293466616    -0.9391045836    -2.3231068481
   13      H       2.5170444273    -0.0267976939    -1.4383802600
   14      O      -0.6869902458    -2.2393139624     0.6156498693
   15      H      -1.4836509036    -2.5132081528     1.0986484124
   16      H       0.0619251727    -2.5437344390     1.1470375714
   17      O      -2.6618941147    -0.2237383797     0.0710219845
   18      H      -2.9736352877    -0.6090876210    -0.7465053644
   19      H      -3.2775207806    -0.6185117044     0.7599312789
 ----------------------------------------------------------------
 Molecular Point Group                 C1    NOp =  1
 Largest Abelian Subgroup              C1    NOp =  1
 Nuclear Repulsion Energy =         400.55424647 hartrees
 There are       35 alpha and       35 beta electrons
 Requested basis set is def2-TZVPPD
 There are 181 shells and 479 basis functions

 Q-Chem warning in module libmdc/get_mega.C, line 171:

 Allowed MEM_STATIC has been capped at MEM_STATIC=8191.
 Reduce the value of MEM_STATIC to silence this warning.


 Total QAlloc Memory Limit  50000 MB
 Mega-Array Size      8007 MB
 MEM_STATIC part      8191 MB
 A cutoff of  1.0D-14 yielded  14451 shell pairs
 There are     99051 function pairs (    119771 Cartesian)
 Smallest overlap matrix eigenvalue = 9.63E-05

 Scale SEOQF with 1.000000e-01/1.000000e-01/1.000000e-01

 Standard Electronic Orientation quadrupole field applied
 Nucleus-field energy     =     0.0000000038 hartrees

 -----------------------------------------------------------------------
  General SCF calculation program by
  Eric Jon Sundstrom, Paul Horn, Yuezhi Mao, Dmitri Zuev, Alec White,
  David Stuck, Shaama M.S., Shane Yost, Joonho Lee, David Small,
  Daniel Levine, Susi Lehtola, Hugh Burton, Evgeny Epifanovsky,
  Bang C. Huynh
 -----------------------------------------------------------------------
================================================================
                 ALMO-EDA with the EDA2 driver                  
================================================================
 The second-generation ALMO-EDA (for DFT):                      
 P. R. Horn, Y. Mao and M. Head-Gordon, PCCP, 18, 23067 (2016)  
 Y. Mao et al. Annu. Rev. Phys. Chem. 72, 641 (2021)            
 Decomposition of the frozen energy:                            
 P. R. Horn, Y. Mao and M. Head-Gordon, JCP, 144, 114107 (2016) 
 FERF model for polarization:                                   
 P. R. Horn and M. Head-Gordon, JCP, 143, 114111 (2015)         
================================================================
 Using eda2 option set 1
 Option set summary: Frozen orbital wavefunction, initial wavefunction decomposition, and nDQ polarization.
--------------------------------
Printing EDA Options
--------------------------------
eda_child_super_basis      0
fragmo_guess_mode          0
child_mp                   1
child_mp_orders            232
cls_elec                   1
cls_disp                   1
scfmi_mode                 1
scfmi_occs                 0
scfmi_virts                0
frz_relax                  0
frz_relax_method           0
dc_pen_start               0
dc_pen_conv                0
dc_pen_increment           0
dc_pen_steps               0
dc_pen_thresh_factor       0
dc_pen_pre_newton_thresh   0
frz_ortho_decomp           1
frz_ortho_decomp_conv      6
plot_mo_ortho_frz          0
frgm_method                2
scfmi_freeze_ss            0
separate_rehyb             0
plot_diff_den              0
eda_nocv                   0
eda_vct_relax              1
disp_free_x                0
disp_free_c                0
eda_bsse                   0
eda_pct_a                  0
eda_covp                   0
--------------------------------
Attempting to make child job directory: /scratch/qchem743066//Frg1/
Attempting to make child job directory: /scratch/qchem743066//Frg2/
Creating input file /scratch/qchem743066/Frg1.input
using default PutDataFrgm: nothing
calling putenv with: QCSCRATCH=/scratch/qchem743066/ 
Spawning Job For Fragment 0
Done Job For Fragment 0
calling putenv with: QCSCRATCH=/scratch 
calling putenv with: QCTHREADS=6 
Creating input file /scratch/qchem743066/Frg2.input
using default PutDataFrgm: nothing
calling putenv with: QCSCRATCH=/scratch/qchem743066/ 
Spawning Job For Fragment 1
Done Job For Fragment 1
calling putenv with: QCSCRATCH=/scratch 
calling putenv with: QCTHREADS=6 
Doing General SCFMI
 Exchange:     0.1500 Hartree-Fock + 1.0000 wB97M-V + LR-HF
 Correlation:  1.0000 wB97M-V
 Using Euler-Maclaurin-Lebedev (99,590) quadrature formula
 Nonlocal Correlation:  VV10 with C = 0.0100 and b = 6.00 and scale = 1.00000
 Grid used for NLC:  SG-1 standard quadrature
performing fock build before subrot guess so that all methods have access
Printing subrot_rss_gen Method Specification:
Occupied Subspace Method is 0
Virtual Subspace Method is 0
Energy of the unrelaxed supersystem initial determinant -620.771513879521
write pseudocanon occs and virts to disk
write pseudocanon orbital energies to disk
Tolerance of ortho_decomp_scf: 1.00e-06
GDM subspace size: 20
Beginning the Orthogonal Decomposition of the Initial Supersystem Wavefunction
    1    -620.5873883240      2.06e-01     ortho_decomp Preconditoned Steepest Descent
    2    -620.6011823243      2.64e-03     ortho_decomp BFGS Step
    3    -620.6011945681      1.15e-04     ortho_decomp BFGS Step
    4    -620.6011945742      2.14e-06     ortho_decomp BFGS Step
    5    -620.6011945742      2.92e-08     ortho_decomp 00000 Convergence criterion met
 Hartree-Fock
 Hartree-Fock
 Hartree-Fock
 Exchange:     0.1500 Hartree-Fock + 1.0000 wB97M-V + LR-HF
 Correlation:  1.0000 wB97M-V
 Using Euler-Maclaurin-Lebedev (99,590) quadrature formula
 Nonlocal Correlation:  VV10 with C = 0.0100 and b = 6.00 and scale = 1.00000
 Grid used for NLC:  SG-1 standard quadrature
 Long-range K will be added via erf
 Coulomb attenuation parameter = 0.3 bohr**(-1)
 Nonlocal correlation = 2.915090332262e-01
Doing General SCFMI
 Exchange:     0.1500 Hartree-Fock + 1.0000 wB97M-V + LR-HF
 Correlation:  1.0000 wB97M-V
 Using Euler-Maclaurin-Lebedev (99,590) quadrature formula
 Nonlocal Correlation:  VV10 with C = 0.0100 and b = 6.00 and scale = 1.00000
 Grid used for NLC:  SG-1 standard quadrature
performing fock build at end of subrot_r(subrot) constructor so that all methods have access
<S^2> of initial wavefunction before polarization iterations 0.0000000000
Beginning iterations for the determination of the polarized wavefunction
Energy prior to optimization (guess energy) = -620.771513879520
Begin Timing: Total SCF Calculation
begin iterations for algorithm: DIIS         
the SCF tolerance is set to 1.00e-08
    1    -620.7715138795      7.96e-04     00000 
    2    -620.8062286451      3.99e-04     00000 
    3    -620.8101764079      1.67e-04     00000 
    4    -620.8108951819      3.75e-05     00000 
    5    -620.8109704832      9.08e-06     00000 
    6    -620.8109778549      3.92e-06     00000 
    7    -620.8109784363      1.55e-06     00000 
    8    -620.8109785658      2.54e-07     00000 
    9    -620.8109785706      1.24e-07     00000 
   10    -620.8109785714      5.15e-08     00000 
   11    -620.8109785715      2.17e-08     00000 
   12    -620.8109785715      4.15e-09     00000 Convergence criterion met
write pseudocanon occs and virts to disk
write pseudocanon orbital energies to disk
Timing for Total SCF: 304.00s (wall), 1825.53s (cpu)
<S^2> of polarized wavefunction after polarization iterations 0.0000000000
relaxing scfmi constraint to allow all rotations in the entire AO span
Doing General SCFMI
 Exchange:     0.1500 Hartree-Fock + 1.0000 wB97M-V + LR-HF
 Correlation:  1.0000 wB97M-V
 Using Euler-Maclaurin-Lebedev (99,590) quadrature formula
 Nonlocal Correlation:  VV10 with C = 0.0100 and b = 6.00 and scale = 1.00000
 Grid used for NLC:  SG-1 standard quadrature
performing fock build at end of subrot_r(subrot) constructor so that all methods have access
<S^2> of polarized wavefunction before ct-allowed iterations 0.0000000000
Beginning iterations for the determination of the CT-Allowed wavefunction
Energy prior to optimization (guess energy) = -620.810978571539
Begin Timing: Total SCF Calculation
begin iterations for algorithm: DIIS         
the SCF tolerance is set to 1.00e-08
    1    -620.8109785715      1.97e-04     00000 
    2    -620.8126860543      1.16e-05     00000 
    3    -620.8127038819      1.36e-06     00000 
    4    -620.8127040725      7.89e-07     00000 
    5    -620.8127041125      1.76e-07     00000 
    6    -620.8127041150      4.14e-08     00000 
    7    -620.8127041152      7.38e-09     00000 Convergence criterion met
write pseudocanon occs and virts to disk
write pseudocanon orbital energies to disk
Timing for Total SCF: 166.00s (wall), 998.33s (cpu)
<S^2> of ct_allowed wavefunction after ct-allowed iterations 0.0000000000

================================
        Results of EDA2         
================================
Basic EDA Quantities
--------------------
Fragment Energies (Ha):
1 -162.0687155489
2 -458.5919708243
--------------------
  E_prp (kJ/mol) = 0.0000
  E_frz (kJ/mol) = -290.9811
  E_pol (kJ/mol) = -103.6158
  E_vct (kJ/mol) = -4.5305
  E_int (kJ/mol) = -399.1273
--------------------


Decomposition of frozen interaction energy
--------------------
  --------------------
  Orthogonal Frozen Decomposition:
  --------------------
     E_elec   (ELEC)   (kJ/mol) = -401.9940
     E_pauli  (PAULI)  (kJ/mol) = 130.4369
     E_disp   (DISP)   (kJ/mol) = -19.4240
  --------------------
  Classical Frozen Decomposition:
  --------------------
     E_cls_elec  (CLS ELEC)  (kJ/mol) = -361.1507
     E_mod_pauli (MOD PAULI) (kJ/mol) = 86.2682 (FRZ - CLS ELEC - CLS DISP)
     E_cls_disp  (CLS DISP)  (kJ/mol) = -16.0987
  --------------------
--------------------

Simplified EDA Summary (kJ/mol)
--------------------
 PREPARATION      0.0000
 FROZEN           -290.9811 (ELEC + PAULI + DISP)
[ELEC + PAULI = -274.8824, DISP = -16.0987]
 POLARIZATION    -103.6158
 CHARGE TRANSFER -4.5305
 TOTAL           -399.1273     (PRP + FRZ + POL + CT)
--------------------
 
 --------------------------------------------------------------
 
                    Orbital Energies (a.u.)
 --------------------------------------------------------------
 
 Alpha MOs
 -- Occupied --
-38.7976 -19.4996 -19.4964 -19.4909 -19.4815 -19.4786 -19.4673  -2.4424
 -1.3480  -1.3462  -1.3451  -1.3044  -1.2935  -1.2897  -1.2854  -1.2800
 -1.2632  -0.8062  -0.7964  -0.7941  -0.7826  -0.7816  -0.7582  -0.6836
 -0.6691  -0.6561  -0.6529  -0.6423  -0.6349  -0.5978  -0.5893  -0.5792
 -0.5758  -0.5726  -0.5507
 -- Virtual --
 -0.1243  -0.0999  -0.0947  -0.0849  -0.0545  -0.0526  -0.0455  -0.0420
 -0.0309  -0.0287  -0.0269  -0.0214  -0.0124  -0.0054  -0.0030  -0.0017
  0.0038   0.0097   0.0120   0.0187   0.0391   0.0466   0.0506   0.0523
  0.0548   0.0616   0.0646   0.0700   0.0746   0.0759   0.0883   0.0918
  0.0944   0.1051   0.1100   0.1128   0.1239   0.1283   0.1416   0.1445
  0.1510   0.1556   0.1623   0.1658   0.1697   0.1784   0.1868   0.1934
  0.1975   0.1989   0.2059   0.2099   0.2108   0.2196   0.2214   0.2230
  0.2325   0.2357   0.2429   0.2480   0.2533   0.2596   0.2614   0.2659
  0.2747   0.2838   0.2853   0.2873   0.2883   0.2942   0.2966   0.3016
  0.3058   0.3068   0.3118   0.3156   0.3185   0.3240   0.3353   0.3419
  0.3448   0.3501   0.3524   0.3657   0.3708   0.3807   0.3824   0.3916
  0.3955   0.4128   0.4177   0.4257   0.4316   0.4431   0.4450   0.4567
  0.4751   0.4809   0.4857   0.4943   0.5093   0.5152   0.5301   0.5429
  0.5448   0.5506   0.5597   0.5685   0.5746   0.5792   0.5835   0.5939
  0.6072   0.6166   0.6292   0.6306   0.6397   0.6445   0.6574   0.6726
  0.6862   0.6931   0.7029   0.7201   0.7363   0.7460   0.7573   0.7599
  0.7666   0.7738   0.7771   0.8057   0.8111   0.8246   0.8450   0.8581
  0.8684   0.8747   0.8871   0.9009   0.9061   0.9147   0.9267   0.9387
  0.9608   0.9663   0.9787   0.9973   1.0018   1.0141   1.0300   1.0366
  1.0448   1.0550   1.0612   1.0790   1.0887   1.0950   1.0976   1.1063
  1.1270   1.1374   1.1458   1.1571   1.1770   1.1842   1.1907   1.2009
  1.2073   1.2160   1.2323   1.2346   1.2410   1.2483   1.2536   1.2668
  1.2695   1.2809   1.2966   1.3069   1.3178   1.3341   1.3405   1.3505
  1.3627   1.3695   1.3798   1.4060   1.4135   1.4261   1.4295   1.4454
  1.4551   1.4834   1.5112   1.6514   1.6907   1.7403   1.8252   1.8455
  1.8629   1.8649   1.8822   1.8846   1.8920   1.8946   1.9084   1.9192
  1.9301   1.9540   1.9893   1.9924   2.0015   2.0113   2.0300   2.0449
  2.0915   2.1117   2.1267   2.1366   2.1660   2.1884   2.1943   2.2125
  2.2356   2.2442   2.2705   2.3308   2.5325   2.5809   2.6233   2.6354
  2.6805   2.7093   2.7245   2.7551   2.7602   2.8016   2.8231   2.8427
  2.8836   2.9036   2.9394   2.9589   2.9770   2.9792   3.0416   3.0806
  3.1096   3.1171   3.1244   3.1497   3.1531   3.1584   3.1644   3.1709
  3.1811   3.1928   3.2085   3.2155   3.2307   3.2546   3.2639   3.2757
  3.2816   3.3000   3.3016   3.3104   3.3141   3.3276   3.3295   3.3390
  3.3410   3.3521   3.3596   3.3717   3.3833   3.3885   3.3971   3.4107
  3.4167   3.4271   3.4442   3.4505   3.4664   3.4843   3.5049   3.5214
  3.5377   3.5777   3.6022   3.6110   3.6177   3.6506   3.8005   3.8124
  3.8209   3.8330   3.8598   3.8734   3.9023   3.9041   3.9128   3.9299
  3.9432   3.9544   3.9731   3.9795   3.9958   4.0099   4.0188   4.0230
  4.0349   4.0449   4.0512   4.0579   4.0669   4.0707   4.0732   4.0910
  4.0958   4.1129   4.1188   4.1260   4.1293   4.1331   4.1492   4.1616
  4.1652   4.1716   4.1893   4.2002   4.2052   4.2190   4.2401   4.2642
  4.5546   4.5872   4.5919   4.6007   4.6100   4.6125   4.6263   4.6471
  4.6519   4.6646   4.6715   4.7056   4.8473   4.8583   4.8821   4.8956
  4.9137   4.9554   5.0398   5.0680   5.0941   5.1143   5.1294   5.1475
  5.2081   5.4904   5.5393   5.5506   5.5607   5.5665   5.5677   5.8339
  5.8600   5.8647   5.9259   5.9583   5.9927   6.0755   6.0950   6.1114
  6.1343   6.2166   6.2894   6.3118   6.3551   6.3955   6.4045   6.4319
  6.4343   6.4617   6.4691   6.4804   6.4809   6.4903   6.4987   6.5054
  6.5210   6.5330   6.5464   6.5578   6.5635   6.5739   6.5763   6.5986
  6.6129   6.6425   6.6638   6.6682   6.6823   6.6980   6.7044   6.7170
  6.7402   6.7456   6.7495   6.7532   6.7595   6.7630   6.9132   6.9180
  6.9308   6.9590   6.9651   7.0171   7.3113   7.3707   7.3730   7.4084
  7.4168   7.4283   7.4367   7.4719   7.5028   7.5135   7.5425   7.5975
  7.7037   7.7086   7.7250   7.7400   7.7669   7.8322  44.2115  44.2471
 44.2883  44.3383  44.3684  44.3984
 --------------------------------------------------------------
 
          Ground-State Mulliken Net Atomic Charges

     Atom                 Charge (a.u.)
  ----------------------------------------
      1 Na                    0.912847
      2 O                    -0.366606
      3 H                     0.192813
      4 H                     0.208569
      5 O                    -0.326483
      6 H                     0.158661
      7 H                     0.181139
      8 O                    -0.326065
      9 H                     0.178631
     10 H                     0.125363
     11 O                    -0.338059
     12 H                     0.172926
     13 H                     0.195292
     14 O                    -0.358841
     15 H                     0.160016
     16 H                     0.192363
     17 O                    -0.315236
     18 H                     0.185046
     19 H                     0.167624
  ----------------------------------------
  Sum of atomic charges =     1.000000

 -----------------------------------------------------------------
                    Cartesian Multipole Moments
 -----------------------------------------------------------------
    Charge (ESU x 10^10)
                 4.8032
    Dipole Moment (Debye)
         X       1.7748      Y       1.4549      Z       0.4113
       Tot       2.3315
    Quadrupole Moments (Debye-Ang)
        XX     -20.6093     XY      11.4110     YY     -28.2025
        XZ       1.9982     YZ      -6.3482     ZZ     -19.1805
    Octopole Moments (Debye-Ang^2)
       XXX      -5.0664    XXY     -15.1975    XYY      -5.2334
       YYY      13.9005    XXZ      15.0172    XYZ      12.6941
       YYZ       7.2817    XZZ      14.6968    YZZ      10.5879
       ZZZ     -12.2475
    Hexadecapole Moments (Debye-Ang^3)
      XXXX    -441.6433   XXXY      87.9699   XXYY    -184.6193
      XYYY      27.8683   YYYY    -393.8367   XXXZ      16.8348
      XXYZ     -18.0465   XYYZ      13.2376   YYYZ     -64.3147
      XXZZ    -134.7331   XYZZ      22.9715   YYZZ     -98.3321
      XZZZ      -2.4794   YZZZ      -1.7046   ZZZZ    -276.0804
 -----------------------------------------------------------------
 Total job time:  2699.34s(wall), 5641.50s(cpu) 
 Wed Jan 10 19:13:56 2024

        *************************************************************
        *                                                           *
        *  Thank you very much for using Q-Chem.  Have a nice day.  *
        *                                                           *
        *************************************************************


