
Running Job 1 of 1 119_Na-Water_Cls_062_almo.in
qchem 119_Na-Water_Cls_062_almo.in_774873.0 /scratch/qchem774873/ 6
/home/kchung25/qchem/5.4.0/exe/qcprog.exe_s 119_Na-Water_Cls_062_almo.in_774873.0 /scratch/qchem774873/
                  Welcome to Q-Chem
     A Quantum Leap Into The Future Of Chemistry


 Q-Chem 5.4, Q-Chem, Inc., Pleasanton, CA (2021)

 E. Epifanovsky,  A. T. B. Gilbert,  Xintian Feng,  Joonho Lee,  Yuezhi Mao,  
 N. Mardirossian,  P. Pokhilko,  A. White,  M. Wormit,  M. P. Coons,  
 A. L. Dempwolff,  Zhengting Gan,  D. Hait,  P. R. Horn,  L. D. Jacobson,  
 I. Kaliman,  J. Kussmann,  A. W. Lange,  Ka Un Lao,  D. S. Levine,  Jie Liu,  
 S. C. McKenzie,  A. F. Morrison,  K. Nanda,  F. Plasser,  D. R. Rehn,  
 M. L. Vidal,  Zhi-Qiang You,  Ying Zhu,  B. Alam,  B. Albrecht,  
 A. Aldossary,  E. Alguire,  J. H. Andersen,  D. Barton,  K. Begam,  A. Behn,  
 Y. A. Bernard,  E. J. Berquist,  H. Burton,  A. Carreras,  K. Carter-Fenk,  
 Romit Chakraborty,  A. D. Chien,  K. D. Closser,  V. Cofer-Shabica,  
 S. Dasgupta,  Jia Deng,  M. de Wergifosse,  M. Diedenhofen,  Hainam Do,  
 S. Ehlert,  Po-Tung Fang,  S. Fatehi,  Qingguo Feng,  T. Friedhoff,  
 J. Gayvert,  Qinghui Ge,  G. Gidofalvi,  M. Goldey,  J. Gomes,  
 C. Gonzalez-Espinoza,  S. Gulania,  A. Gunina,  M. W. D. Hanson-Heine,  
 P. H. P. Harbach,  A. W. Hauser,  M. F. Herbst,  M. Hernandez Vera,  
 M. Hodecker,  Z. C. Holden,  S. Houck,  Xunkun Huang,  Kerwin Hui,  
 B. C. Huynh,  M. Ivanov,  Hyunjun Ji,  Hanjie Jiang,  B. Kaduk,  S. Kaehler,  
 K. Khistyaev,  Jaehoon Kim,  P. Klunzinger,  Z. Koczor-Benda,  
 Joong Hoon Koh,  D. Kosenkov,  L. Koulias,  T. Kowalczyk,  C. M. Krauter,  
 K. Kue,  A. Kunitsa,  T. Kus,  A. Landau,  K. V. Lawler,  D. Lefrancois,  
 S. Lehtola,  Rain Li,  Yi-Pei Li,  Jiashu Liang,  M. Liebenthal,  
 Hung-Hsuan Lin,  You-Sheng Lin,  Fenglai Liu,  Kuan-Yu Liu,  
 M. Loipersberger,  A. Luenser,  A. Manjanath,  P. Manohar,  E. Mansoor,  
 S. F. Manzer,  Shan-Ping Mao,  A. V. Marenich,  T. Markovich,  S. Mason,  
 S. A. Maurer,  P. F. McLaughlin,  M. F. S. J. Menger,  J.-M. Mewes,  
 S. A. Mewes,  P. Morgante,  J. W. Mullinax,  K. J. Oosterbaan,  G. Paran,  
 Alexander C. Paul,  Suranjan K. Paul,  F. Pavosevic,  Zheng Pei,  S. Prager,  
 E. I. Proynov,  E. Ramos,  B. Rana,  A. E. Rask,  A. Rettig,  R. M. Richard,  
 F. Rob,  E. Rossomme,  T. Scheele,  M. Scheurer,  M. Schneider,  
 N. Sergueev,  S. M. Sharada,  W. Skomorowski,  D. W. Small,  C. J. Stein,  
 Yu-Chuan Su,  E. J. Sundstrom,  Zhen Tao,  J. Thirman,  T. Tsuchimochi,  
 N. M. Tubman,  S. P. Veccham,  O. Vydrov,  J. Wenzel,  J. Witte,  A. Yamada,  
 Kun Yao,  S. Yeganeh,  S. R. Yost,  A. Zech,  Igor Ying Zhang,  Xing Zhang,  
 Yu Zhang,  D. Zuev,  A. Aspuru-Guzik,  A. T. Bell,  N. A. Besley,  
 K. B. Bravaya,  B. R. Brooks,  D. Casanova,  Jeng-Da Chai,  S. Coriani,  
 C. J. Cramer,  A. E. DePrince, III,  R. A. DiStasio Jr.,  A. Dreuw,  
 B. D. Dunietz,  T. R. Furlani,  W. A. Goddard III,  S. Grimme,  
 S. Hammes-Schiffer,  T. Head-Gordon,  W. J. Hehre,  Chao-Ping Hsu,  
 T.-C. Jagau,  Yousung Jung,  A. Klamt,  Jing Kong,  D. S. Lambrecht,  
 WanZhen Liang,  N. J. Mayhall,  C. W. McCurdy,  J. B. Neaton,  T. Neudecker,  
 C. Ochsenfeld,  J. A. Parkhill,  R. Peverati,  V. A. Rassolov,  Yihan Shao,  
 L. V. Slipchenko,  R. P. Steele,  J. E. Subotnik,  A. J. W. Thom,  
 A. Tkatchenko,  D. G. Truhlar,  T. Van Voorhis,  T. A. Wesolowski,  
 K. B. Whaley,  H. L. Woodcock III,  P. M. Zimmerman,  S. Faraji,  
 P. M. W. Gill,  M. Head-Gordon,  J. M. Herbert,  A. I. Krylov

 Additional authors since Version 5.4.0: 
 Chandrima Chakravarty,  L. Cunha,  R. Kang,  Yongbin Kim,  S. Kotaru,  
 Shaozhi Li,  Xiangyuan Li,  F. Matz,  A. Molle,  V. Parravicini,  
 Haisheng Ren,  Hengyuan Shen,  Yingli Su,  Hung-Yi Tsai,  C. Utku,  
 Fang Wang,  Jeff Yang,  F. Zeller

 Contributors to earlier versions of Q-Chem not listed above: 
 R. D. Adamson,  B. Austin,  R. Baer,  J. Baker,  G. J. O. Beran,  
 K. Brandhorst,  S. T. Brown,  E. F. C. Byrd,  Arup K. Chakraborty,  
 G. K. L. Chan,  Chun-Min Chang,  Yunqing Chen,  C.-L. Cheng,  
 Siu Hung Chien,  D. M. Chipman,  D. L. Crittenden,  H. Dachsel,  
 R. J. Doerksen,  A. D. Dutoi,  R. G. Edgar,  J. Fosso-Tande,  
 L. Fusti-Molnar,  D. Ghosh,  A. Ghysels,  A. Golubeva-Zadorozhnaya,  
 J. Gonthier,  M. S. Gordon,  S. R. Gwaltney,  G. Hawkins,  J. E. Herr,  
 A. Heyden,  S. Hirata,  E. G. Hohenstein,  G. Kedziora,  F. J. Keil,  
 C. Kelley,  Jihan Kim,  R. A. King,  R. Z. Khaliullin,  P. P. Korambath,  
 W. Kurlancheek,  A. Laurent,  A. M. Lee,  M. S. Lee,  S. V. Levchenko,  
 Ching Yeh Lin,  D. Liotard,  E. Livshits,  R. C. Lochan,  I. Lotan,  
 L. A. Martinez-Martinez,  P. E. Maslen,  N. Nair,  D. P. O'Neill,  
 D. Neuhauser,  E. Neuscamman,  C. M. Oana,  R. Olivares-Amaya,  R. Olson,  
 T. M. Perrine,  B. Peters,  P. A. Pieniazek,  A. Prociuk,  Y. M. Rhee,  
 J. Ritchie,  M. A. Rohrdanz,  E. Rosta,  N. J. Russ,  H. F. Schaefer III,  
 M. W. Schmidt,  N. E. Schultz,  S. Sharma,  N. Shenvi,  C. D. Sherrill,  
 A. C. Simmonett,  A. Sodt,  T. Stein,  D. Stuck,  K. S. Thanthiriwatte,  
 V. Vanovschi,  L. Vogt,  Tao Wang,  A. Warshel,  M. A. Watson,  
 C. F. Williams,  Q. Wu,  X. Xu,  Jun Yang,  W. Zhang,  Yan Zhao

   Please cite Q-Chem as follows:
  "Software for the frontiers of quantum chemistry:
   An overview of developments in the Q-Chem 5 package"
   J. Chem. Phys. 155, 084801 (2021)
   https://doi.org/10.1063/5.0055522 (open access)

 Q-Chem 5.4.2 for Intel X86 EM64T Linux

 Parts of Q-Chem use Armadillo 9.900.5 (Nocturnal Misbehaviour).
 http://arma.sourceforge.net/

 Q-Chem begins on Thu Jan 11 09:53:32 2024  

 Host: 
0

     Scratch files written to /scratch/qchem774873//
 Dec1321 |scratch|qcdevops|jenkins|workspace|build_RNUM 5684   
 Processing $rem in /home/kchung25/qchem/5.4.0/config/preferences:
 Processing $rem in /home/kchung25/.qchemrc:

 Q-Chem warning in module libgen/rem_setup.C, line 3079:

 Neither GIA nor STOLL is specified by user. Use STOLL as the default


 Checking the input file for inconsistencies... 	...done.

--------------------------------------------------------------
User input:
--------------------------------------------------------------
$molecule
1 1
--
1 1
Na     0.000000     0.000000     0.000000
--
0 1
O     -1.136205     2.109216     0.011475
H     -1.817514     2.445570     0.580069
H     -0.451115     2.773422    -0.131302
O      1.252024    -2.158597    -0.042907
H      1.513019    -2.709178     0.698471
H      1.692694    -2.571460    -0.772312
O      2.180151     1.061963    -0.494664
H      2.109145     1.159492    -1.466466
H      2.569159     1.827540    -0.098947
O     -0.175210     0.603986    -2.316960
H     -0.687306    -0.098022    -2.722072
H     -0.718872     1.408419    -2.299209
O     -0.000383    -0.188447     2.289591
H      0.693352    -0.570890     2.866500
H     -0.819570    -0.668426     2.496017
$end

$rem
JOBTYPE          eda
EDA2             1
METHOD           wB97M-V
BASIS            def2-TZVPPD
SYMMETRY         false
MEM_TOTAL        50000
MEM_STATIC       10000
THRESH           14
SCF_CONVERGENCE  8
XC_GRID          000099000590
NL_GRID          1
EDA_CLS_DISP     true
FD_MAT_VEC_PROD  FALSE
$end
--------------------------------------------------------------
 ----------------------------------------------------------------
             Standard Nuclear Orientation (Angstroms)
    I     Atom           X                Y                Z
 ----------------------------------------------------------------
    1      Na     -0.1103807696    -0.1538814438     0.3828179168
    2      O       1.9148810950    -1.4180514248     0.1826323753
    3      H       2.1120111687    -2.3173801957     0.4127684211
    4      H       2.2702041427    -1.2021003490    -0.6880075358
    5      O      -2.1974130758     1.2075540612     0.5233014906
    6      H      -3.1054873049     0.9161303704     0.4166591288
    7      H      -2.2864574754     2.1491747395     0.5691180036
    8      O       0.2239745464     0.9227857425    -1.8204774701
    9      H       0.8356136393     1.6452083919    -1.5695670861
   10      H       0.4768108391     0.5264567417    -2.6408581398
   11      O       1.6386866837     1.4397132398     0.7890448264
   12      H       1.4826383721     1.7636694864     1.6777936956
   13      H       2.4420910293     0.8943281807     0.7986632682
   14      O      -1.4614904438    -1.9495590149    -0.0944493822
   15      H      -2.3014779979    -1.9589786520    -0.5991146894
   16      H      -1.6608683906    -2.3433536632     0.7711331292
 ----------------------------------------------------------------
 Molecular Point Group                 C1    NOp =  1
 Largest Abelian Subgroup              C1    NOp =  1
 Nuclear Repulsion Energy =         304.45380861 hartrees
 There are       30 alpha and       30 beta electrons
 Requested basis set is def2-TZVPPD
 There are 153 shells and 405 basis functions

 Q-Chem warning in module libmdc/get_mega.C, line 171:

 Allowed MEM_STATIC has been capped at MEM_STATIC=8191.
 Reduce the value of MEM_STATIC to silence this warning.


 Total QAlloc Memory Limit  50000 MB
 Mega-Array Size      8007 MB
 MEM_STATIC part      8191 MB
 A cutoff of  1.0D-14 yielded  10449 shell pairs
 There are     71965 function pairs (     87194 Cartesian)
 Smallest overlap matrix eigenvalue = 1.11E-04

 Scale SEOQF with 1.000000e-01/1.000000e-01/1.000000e-01

 Standard Electronic Orientation quadrupole field applied
 Nucleus-field energy     =     0.0000000078 hartrees

 -----------------------------------------------------------------------
  General SCF calculation program by
  Eric Jon Sundstrom, Paul Horn, Yuezhi Mao, Dmitri Zuev, Alec White,
  David Stuck, Shaama M.S., Shane Yost, Joonho Lee, David Small,
  Daniel Levine, Susi Lehtola, Hugh Burton, Evgeny Epifanovsky,
  Bang C. Huynh
 -----------------------------------------------------------------------
================================================================
                 ALMO-EDA with the EDA2 driver                  
================================================================
 The second-generation ALMO-EDA (for DFT):                      
 P. R. Horn, Y. Mao and M. Head-Gordon, PCCP, 18, 23067 (2016)  
 Y. Mao et al. Annu. Rev. Phys. Chem. 72, 641 (2021)            
 Decomposition of the frozen energy:                            
 P. R. Horn, Y. Mao and M. Head-Gordon, JCP, 144, 114107 (2016) 
 FERF model for polarization:                                   
 P. R. Horn and M. Head-Gordon, JCP, 143, 114111 (2015)         
================================================================
 Using eda2 option set 1
 Option set summary: Frozen orbital wavefunction, initial wavefunction decomposition, and nDQ polarization.
--------------------------------
Printing EDA Options
--------------------------------
eda_child_super_basis      0
fragmo_guess_mode          0
child_mp                   1
child_mp_orders            232
cls_elec                   1
cls_disp                   1
scfmi_mode                 1
scfmi_occs                 0
scfmi_virts                0
frz_relax                  0
frz_relax_method           0
dc_pen_start               0
dc_pen_conv                0
dc_pen_increment           0
dc_pen_steps               0
dc_pen_thresh_factor       0
dc_pen_pre_newton_thresh   0
frz_ortho_decomp           1
frz_ortho_decomp_conv      6
plot_mo_ortho_frz          0
frgm_method                2
scfmi_freeze_ss            0
separate_rehyb             0
plot_diff_den              0
eda_nocv                   0
eda_vct_relax              1
disp_free_x                0
disp_free_c                0
eda_bsse                   0
eda_pct_a                  0
eda_covp                   0
--------------------------------
Attempting to make child job directory: /scratch/qchem774873//Frg1/
Attempting to make child job directory: /scratch/qchem774873//Frg2/
Creating input file /scratch/qchem774873/Frg1.input
using default PutDataFrgm: nothing
calling putenv with: QCSCRATCH=/scratch/qchem774873/ 
Spawning Job For Fragment 0
Done Job For Fragment 0
calling putenv with: QCSCRATCH=/scratch 
calling putenv with: QCTHREADS=6 
Creating input file /scratch/qchem774873/Frg2.input
using default PutDataFrgm: nothing
calling putenv with: QCSCRATCH=/scratch/qchem774873/ 
Spawning Job For Fragment 1
Done Job For Fragment 1
calling putenv with: QCSCRATCH=/scratch 
calling putenv with: QCTHREADS=6 
Doing General SCFMI
 Exchange:     0.1500 Hartree-Fock + 1.0000 wB97M-V + LR-HF
 Correlation:  1.0000 wB97M-V
 Using Euler-Maclaurin-Lebedev (99,590) quadrature formula
 Nonlocal Correlation:  VV10 with C = 0.0100 and b = 6.00 and scale = 1.00000
 Grid used for NLC:  SG-1 standard quadrature
performing fock build before subrot guess so that all methods have access
Printing subrot_rss_gen Method Specification:
Occupied Subspace Method is 0
Virtual Subspace Method is 0
Energy of the unrelaxed supersystem initial determinant -544.340148436408
write pseudocanon occs and virts to disk
write pseudocanon orbital energies to disk
Tolerance of ortho_decomp_scf: 1.00e-06
GDM subspace size: 20
Beginning the Orthogonal Decomposition of the Initial Supersystem Wavefunction
    1    -544.1654976838      2.27e-01     ortho_decomp Preconditoned Steepest Descent
    2    -544.1792778690      2.88e-03     ortho_decomp BFGS Step
    3    -544.1792899824      1.26e-04     ortho_decomp BFGS Step
    4    -544.1792899885      2.32e-06     ortho_decomp BFGS Step
    5    -544.1792899885      2.96e-08     ortho_decomp 00000 Convergence criterion met
 Hartree-Fock
 Hartree-Fock
 Hartree-Fock
 Exchange:     0.1500 Hartree-Fock + 1.0000 wB97M-V + LR-HF
 Correlation:  1.0000 wB97M-V
 Using Euler-Maclaurin-Lebedev (99,590) quadrature formula
 Nonlocal Correlation:  VV10 with C = 0.0100 and b = 6.00 and scale = 1.00000
 Grid used for NLC:  SG-1 standard quadrature
 Long-range K will be added via erf
 Coulomb attenuation parameter = 0.3 bohr**(-1)
 Nonlocal correlation = 2.511046952455e-01
Doing General SCFMI
 Exchange:     0.1500 Hartree-Fock + 1.0000 wB97M-V + LR-HF
 Correlation:  1.0000 wB97M-V
 Using Euler-Maclaurin-Lebedev (99,590) quadrature formula
 Nonlocal Correlation:  VV10 with C = 0.0100 and b = 6.00 and scale = 1.00000
 Grid used for NLC:  SG-1 standard quadrature
performing fock build at end of subrot_r(subrot) constructor so that all methods have access
<S^2> of initial wavefunction before polarization iterations 0.0000000000
Beginning iterations for the determination of the polarized wavefunction
Energy prior to optimization (guess energy) = -544.340148436407
Begin Timing: Total SCF Calculation
begin iterations for algorithm: DIIS         
the SCF tolerance is set to 1.00e-08
    1    -544.3401484364      9.05e-04     00000 
    2    -544.3723677034      4.24e-04     00000 
    3    -544.3754631690      1.83e-04     00000 
    4    -544.3760771421      4.31e-05     00000 
    5    -544.3761454859      1.01e-05     00000 
    6    -544.3761521110      2.39e-06     00000 
    7    -544.3761524113      1.49e-06     00000 
    8    -544.3761524589      3.28e-07     00000 
    9    -544.3761524622      1.08e-07     00000 
   10    -544.3761524627      3.12e-08     00000 
   11    -544.3761524627      1.20e-08     00000 
   12    -544.3761524627      5.97e-09     00000 Convergence criterion met
write pseudocanon occs and virts to disk
write pseudocanon orbital energies to disk
Timing for Total SCF: 187.00s (wall), 1123.74s (cpu)
<S^2> of polarized wavefunction after polarization iterations 0.0000000000
relaxing scfmi constraint to allow all rotations in the entire AO span
Doing General SCFMI
 Exchange:     0.1500 Hartree-Fock + 1.0000 wB97M-V + LR-HF
 Correlation:  1.0000 wB97M-V
 Using Euler-Maclaurin-Lebedev (99,590) quadrature formula
 Nonlocal Correlation:  VV10 with C = 0.0100 and b = 6.00 and scale = 1.00000
 Grid used for NLC:  SG-1 standard quadrature
performing fock build at end of subrot_r(subrot) constructor so that all methods have access
<S^2> of polarized wavefunction before ct-allowed iterations 0.0000000000
Beginning iterations for the determination of the CT-Allowed wavefunction
Energy prior to optimization (guess energy) = -544.376152462692
Begin Timing: Total SCF Calculation
begin iterations for algorithm: DIIS         
the SCF tolerance is set to 1.00e-08
    1    -544.3761524627      2.35e-04     00000 
    2    -544.3778320870      1.36e-05     00000 
    3    -544.3778494969      1.47e-06     00000 
    4    -544.3778496863      6.95e-07     00000 
    5    -544.3778497081      1.88e-07     00000 
    6    -544.3778497101      4.51e-08     00000 
    7    -544.3778497102      7.97e-09     00000 Convergence criterion met
write pseudocanon occs and virts to disk
write pseudocanon orbital energies to disk
Timing for Total SCF: 102.00s (wall), 614.80s (cpu)
<S^2> of ct_allowed wavefunction after ct-allowed iterations 0.0000000000

================================
        Results of EDA2         
================================
Basic EDA Quantities
--------------------
Fragment Energies (Ha):
1 -162.0687155489
2 -382.1699934821
--------------------
  E_prp (kJ/mol) = -0.0000
  E_frz (kJ/mol) = -266.3323
  E_pol (kJ/mol) = -94.5297
  E_vct (kJ/mol) = -4.4562
  E_int (kJ/mol) = -365.3182
--------------------


Decomposition of frozen interaction energy
--------------------
  --------------------
  Orthogonal Frozen Decomposition:
  --------------------
     E_elec   (ELEC)   (kJ/mol) = -378.4019
     E_pauli  (PAULI)  (kJ/mol) = 130.4080
     E_disp   (DISP)   (kJ/mol) = -18.3385
  --------------------
  Classical Frozen Decomposition:
  --------------------
     E_cls_elec  (CLS ELEC)  (kJ/mol) = -338.4604
     E_mod_pauli (MOD PAULI) (kJ/mol) = 87.3209 (FRZ - CLS ELEC - CLS DISP)
     E_cls_disp  (CLS DISP)  (kJ/mol) = -15.1928
  --------------------
--------------------

Simplified EDA Summary (kJ/mol)
--------------------
 PREPARATION      -0.0000
 FROZEN           -266.3323 (ELEC + PAULI + DISP)
[ELEC + PAULI = -251.1395, DISP = -15.1928]
 POLARIZATION    -94.5297
 CHARGE TRANSFER -4.4562
 TOTAL           -365.3182     (PRP + FRZ + POL + CT)
--------------------
 
 --------------------------------------------------------------
 
                    Orbital Energies (a.u.)
 --------------------------------------------------------------
 
 Alpha MOs
 -- Occupied --
-38.8137 -19.4984 -19.4978 -19.4938 -19.4839 -19.4761  -2.4584  -1.3627
 -1.3623  -1.3614  -1.3052  -1.2974  -1.2955  -1.2940  -1.2793  -0.8197
 -0.8025  -0.7984  -0.7931  -0.7872  -0.6766  -0.6683  -0.6661  -0.6617
 -0.6396  -0.5973  -0.5902  -0.5884  -0.5774  -0.5698
 -- Virtual --
 -0.1228  -0.0990  -0.0918  -0.0884  -0.0564  -0.0490  -0.0400  -0.0374
 -0.0337  -0.0286  -0.0262  -0.0235  -0.0087  -0.0044  -0.0019   0.0044
  0.0072   0.0142   0.0214   0.0309   0.0412   0.0465   0.0504   0.0607
  0.0627   0.0709   0.0754   0.0849   0.0894   0.0965   0.1013   0.1102
  0.1202   0.1305   0.1350   0.1414   0.1501   0.1550   0.1629   0.1676
  0.1682   0.1751   0.1829   0.1869   0.1928   0.1984   0.2083   0.2123
  0.2231   0.2257   0.2294   0.2338   0.2397   0.2435   0.2560   0.2590
  0.2653   0.2679   0.2711   0.2765   0.2785   0.2819   0.2894   0.2947
  0.2976   0.3064   0.3082   0.3130   0.3216   0.3248   0.3280   0.3333
  0.3464   0.3590   0.3674   0.3765   0.3899   0.4026   0.4088   0.4283
  0.4345   0.4415   0.4523   0.4690   0.4725   0.4780   0.4905   0.5029
  0.5088   0.5164   0.5351   0.5411   0.5469   0.5577   0.5651   0.5725
  0.5854   0.5890   0.6063   0.6092   0.6197   0.6312   0.6640   0.6720
  0.6788   0.6922   0.6929   0.7250   0.7348   0.7393   0.7427   0.7601
  0.7686   0.7877   0.7901   0.8059   0.8302   0.8553   0.8890   0.8910
  0.8981   0.9104   0.9209   0.9319   0.9528   0.9543   0.9620   0.9944
  0.9980   1.0208   1.0304   1.0404   1.0485   1.0648   1.0666   1.0753
  1.0939   1.0964   1.1144   1.1484   1.1511   1.1532   1.1712   1.1753
  1.1847   1.1981   1.2080   1.2160   1.2250   1.2397   1.2509   1.2854
  1.2900   1.2971   1.3075   1.3121   1.3165   1.3391   1.3589   1.3652
  1.3787   1.3912   1.4172   1.4342   1.4729   1.5381   1.6336   1.6598
  1.6815   1.8435   1.8481   1.8518   1.8627   1.8668   1.8747   1.8927
  1.9100   1.9163   1.9293   1.9653   1.9871   2.0016   2.0126   2.0301
  2.0832   2.1213   2.1318   2.1379   2.1480   2.1837   2.1948   2.2202
  2.2381   2.2541   2.5190   2.5664   2.5875   2.6333   2.6465   2.7029
  2.7230   2.7571   2.7801   2.7991   2.8241   2.8804   2.8955   2.9239
  2.9488   3.0534   3.0757   3.1085   3.1214   3.1393   3.1464   3.1561
  3.1825   3.1897   3.2058   3.2359   3.2439   3.2541   3.2731   3.2816
  3.2906   3.2921   3.2959   3.3174   3.3303   3.3384   3.3449   3.3512
  3.3564   3.3710   3.3876   3.3951   3.4057   3.4162   3.4186   3.4335
  3.4361   3.4568   3.4762   3.5114   3.5564   3.5863   3.6075   3.6151
  3.6268   3.7914   3.7971   3.8035   3.8379   3.8575   3.8795   3.8831
  3.9120   3.9379   3.9464   3.9600   3.9750   3.9871   4.0103   4.0157
  4.0223   4.0290   4.0365   4.0472   4.0620   4.0654   4.0806   4.0895
  4.1077   4.1197   4.1280   4.1405   4.1439   4.1480   4.1705   4.1744
  4.1811   4.2220   4.2282   4.2425   4.5790   4.5946   4.5996   4.6092
  4.6199   4.6298   4.6411   4.6461   4.6683   4.7094   4.8591   4.8798
  4.9099   4.9386   4.9509   5.0531   5.0791   5.0833   5.1017   5.1500
  5.2288   5.5158   5.5249   5.5308   5.5359   5.5891   5.7940   5.8140
  5.8201   5.8810   5.9596   6.0101   6.0305   6.0531   6.0618   6.2377
  6.3595   6.4048   6.4137   6.4193   6.4250   6.4273   6.4735   6.4821
  6.4905   6.5170   6.5219   6.5294   6.5383   6.5483   6.5555   6.5647
  6.5790   6.6069   6.6201   6.6398   6.6532   6.6558   6.6706   6.7052
  6.7134   6.7159   6.7311   6.7431   6.7519   6.7608   6.9199   6.9301
  6.9747   7.0002   7.0232   7.3313   7.3377   7.3469   7.3747   7.4155
  7.4256   7.4356   7.4508   7.4615   7.6200   7.6972   7.7562   7.7795
  7.8163   7.8340  44.2657  44.2834  44.3145  44.3454  44.4208
 --------------------------------------------------------------
 
          Ground-State Mulliken Net Atomic Charges

     Atom                 Charge (a.u.)
  ----------------------------------------
      1 Na                    0.914233
      2 O                    -0.320273
      3 H                     0.124984
      4 H                     0.213342
      5 O                    -0.231540
      6 H                     0.131495
      7 H                     0.115764
      8 O                    -0.347105
      9 H                     0.230998
     10 H                     0.147129
     11 O                    -0.401233
     12 H                     0.186267
     13 H                     0.240023
     14 O                    -0.399174
     15 H                     0.183504
     16 H                     0.211586
  ----------------------------------------
  Sum of atomic charges =     1.000000

 -----------------------------------------------------------------
                    Cartesian Multipole Moments
 -----------------------------------------------------------------
    Charge (ESU x 10^10)
                 4.8032
    Dipole Moment (Debye)
         X      -0.3426      Y      -1.2794      Z       1.2335
       Tot       1.8099
    Quadrupole Moments (Debye-Ang)
        XX      -8.5679     XY      -1.0760     YY     -20.0050
        XZ      -2.7397     YZ       0.8939     ZZ     -24.7657
    Octopole Moments (Debye-Ang^2)
       XXX     -30.7550    XXY     -10.1038    XYY      -9.0742
       YYY      -8.6755    XXZ       1.5278    XYZ       0.1339
       YYZ      15.6736    XZZ      13.4955    YZZ       2.2967
       ZZZ      -9.5532
    Hexadecapole Moments (Debye-Ang^3)
      XXXX    -347.0788   XXXY     -26.7167   XXYY     -73.1703
      XYYY     -40.4567   YYYY    -347.4017   XXXZ      -4.2251
      XXYZ      18.2356   XYYZ      -6.9793   YYYZ     -11.9685
      XXZZ    -115.6088   XYZZ      23.8404   YYZZ     -84.7460
      XZZZ      -5.7983   YZZZ       6.9467   ZZZZ    -144.7094
 -----------------------------------------------------------------
 Total job time:  1557.94s(wall), 3448.52s(cpu) 
 Thu Jan 11 10:19:30 2024

        *************************************************************
        *                                                           *
        *  Thank you very much for using Q-Chem.  Have a nice day.  *
        *                                                           *
        *************************************************************


