
Running Job 1 of 1 119_Na-Water_Cls_077_almo.in
qchem 119_Na-Water_Cls_077_almo.in_787880.0 /scratch/qchem787880/ 6
/home/kchung25/qchem/5.4.0/exe/qcprog.exe_s 119_Na-Water_Cls_077_almo.in_787880.0 /scratch/qchem787880/
                  Welcome to Q-Chem
     A Quantum Leap Into The Future Of Chemistry


 Q-Chem 5.4, Q-Chem, Inc., Pleasanton, CA (2021)

 E. Epifanovsky,  A. T. B. Gilbert,  Xintian Feng,  Joonho Lee,  Yuezhi Mao,  
 N. Mardirossian,  P. Pokhilko,  A. White,  M. Wormit,  M. P. Coons,  
 A. L. Dempwolff,  Zhengting Gan,  D. Hait,  P. R. Horn,  L. D. Jacobson,  
 I. Kaliman,  J. Kussmann,  A. W. Lange,  Ka Un Lao,  D. S. Levine,  Jie Liu,  
 S. C. McKenzie,  A. F. Morrison,  K. Nanda,  F. Plasser,  D. R. Rehn,  
 M. L. Vidal,  Zhi-Qiang You,  Ying Zhu,  B. Alam,  B. Albrecht,  
 A. Aldossary,  E. Alguire,  J. H. Andersen,  D. Barton,  K. Begam,  A. Behn,  
 Y. A. Bernard,  E. J. Berquist,  H. Burton,  A. Carreras,  K. Carter-Fenk,  
 Romit Chakraborty,  A. D. Chien,  K. D. Closser,  V. Cofer-Shabica,  
 S. Dasgupta,  Jia Deng,  M. de Wergifosse,  M. Diedenhofen,  Hainam Do,  
 S. Ehlert,  Po-Tung Fang,  S. Fatehi,  Qingguo Feng,  T. Friedhoff,  
 J. Gayvert,  Qinghui Ge,  G. Gidofalvi,  M. Goldey,  J. Gomes,  
 C. Gonzalez-Espinoza,  S. Gulania,  A. Gunina,  M. W. D. Hanson-Heine,  
 P. H. P. Harbach,  A. W. Hauser,  M. F. Herbst,  M. Hernandez Vera,  
 M. Hodecker,  Z. C. Holden,  S. Houck,  Xunkun Huang,  Kerwin Hui,  
 B. C. Huynh,  M. Ivanov,  Hyunjun Ji,  Hanjie Jiang,  B. Kaduk,  S. Kaehler,  
 K. Khistyaev,  Jaehoon Kim,  P. Klunzinger,  Z. Koczor-Benda,  
 Joong Hoon Koh,  D. Kosenkov,  L. Koulias,  T. Kowalczyk,  C. M. Krauter,  
 K. Kue,  A. Kunitsa,  T. Kus,  A. Landau,  K. V. Lawler,  D. Lefrancois,  
 S. Lehtola,  Rain Li,  Yi-Pei Li,  Jiashu Liang,  M. Liebenthal,  
 Hung-Hsuan Lin,  You-Sheng Lin,  Fenglai Liu,  Kuan-Yu Liu,  
 M. Loipersberger,  A. Luenser,  A. Manjanath,  P. Manohar,  E. Mansoor,  
 S. F. Manzer,  Shan-Ping Mao,  A. V. Marenich,  T. Markovich,  S. Mason,  
 S. A. Maurer,  P. F. McLaughlin,  M. F. S. J. Menger,  J.-M. Mewes,  
 S. A. Mewes,  P. Morgante,  J. W. Mullinax,  K. J. Oosterbaan,  G. Paran,  
 Alexander C. Paul,  Suranjan K. Paul,  F. Pavosevic,  Zheng Pei,  S. Prager,  
 E. I. Proynov,  E. Ramos,  B. Rana,  A. E. Rask,  A. Rettig,  R. M. Richard,  
 F. Rob,  E. Rossomme,  T. Scheele,  M. Scheurer,  M. Schneider,  
 N. Sergueev,  S. M. Sharada,  W. Skomorowski,  D. W. Small,  C. J. Stein,  
 Yu-Chuan Su,  E. J. Sundstrom,  Zhen Tao,  J. Thirman,  T. Tsuchimochi,  
 N. M. Tubman,  S. P. Veccham,  O. Vydrov,  J. Wenzel,  J. Witte,  A. Yamada,  
 Kun Yao,  S. Yeganeh,  S. R. Yost,  A. Zech,  Igor Ying Zhang,  Xing Zhang,  
 Yu Zhang,  D. Zuev,  A. Aspuru-Guzik,  A. T. Bell,  N. A. Besley,  
 K. B. Bravaya,  B. R. Brooks,  D. Casanova,  Jeng-Da Chai,  S. Coriani,  
 C. J. Cramer,  A. E. DePrince, III,  R. A. DiStasio Jr.,  A. Dreuw,  
 B. D. Dunietz,  T. R. Furlani,  W. A. Goddard III,  S. Grimme,  
 S. Hammes-Schiffer,  T. Head-Gordon,  W. J. Hehre,  Chao-Ping Hsu,  
 T.-C. Jagau,  Yousung Jung,  A. Klamt,  Jing Kong,  D. S. Lambrecht,  
 WanZhen Liang,  N. J. Mayhall,  C. W. McCurdy,  J. B. Neaton,  T. Neudecker,  
 C. Ochsenfeld,  J. A. Parkhill,  R. Peverati,  V. A. Rassolov,  Yihan Shao,  
 L. V. Slipchenko,  R. P. Steele,  J. E. Subotnik,  A. J. W. Thom,  
 A. Tkatchenko,  D. G. Truhlar,  T. Van Voorhis,  T. A. Wesolowski,  
 K. B. Whaley,  H. L. Woodcock III,  P. M. Zimmerman,  S. Faraji,  
 P. M. W. Gill,  M. Head-Gordon,  J. M. Herbert,  A. I. Krylov

 Additional authors since Version 5.4.0: 
 Chandrima Chakravarty,  L. Cunha,  R. Kang,  Yongbin Kim,  S. Kotaru,  
 Shaozhi Li,  Xiangyuan Li,  F. Matz,  A. Molle,  V. Parravicini,  
 Haisheng Ren,  Hengyuan Shen,  Yingli Su,  Hung-Yi Tsai,  C. Utku,  
 Fang Wang,  Jeff Yang,  F. Zeller

 Contributors to earlier versions of Q-Chem not listed above: 
 R. D. Adamson,  B. Austin,  R. Baer,  J. Baker,  G. J. O. Beran,  
 K. Brandhorst,  S. T. Brown,  E. F. C. Byrd,  Arup K. Chakraborty,  
 G. K. L. Chan,  Chun-Min Chang,  Yunqing Chen,  C.-L. Cheng,  
 Siu Hung Chien,  D. M. Chipman,  D. L. Crittenden,  H. Dachsel,  
 R. J. Doerksen,  A. D. Dutoi,  R. G. Edgar,  J. Fosso-Tande,  
 L. Fusti-Molnar,  D. Ghosh,  A. Ghysels,  A. Golubeva-Zadorozhnaya,  
 J. Gonthier,  M. S. Gordon,  S. R. Gwaltney,  G. Hawkins,  J. E. Herr,  
 A. Heyden,  S. Hirata,  E. G. Hohenstein,  G. Kedziora,  F. J. Keil,  
 C. Kelley,  Jihan Kim,  R. A. King,  R. Z. Khaliullin,  P. P. Korambath,  
 W. Kurlancheek,  A. Laurent,  A. M. Lee,  M. S. Lee,  S. V. Levchenko,  
 Ching Yeh Lin,  D. Liotard,  E. Livshits,  R. C. Lochan,  I. Lotan,  
 L. A. Martinez-Martinez,  P. E. Maslen,  N. Nair,  D. P. O'Neill,  
 D. Neuhauser,  E. Neuscamman,  C. M. Oana,  R. Olivares-Amaya,  R. Olson,  
 T. M. Perrine,  B. Peters,  P. A. Pieniazek,  A. Prociuk,  Y. M. Rhee,  
 J. Ritchie,  M. A. Rohrdanz,  E. Rosta,  N. J. Russ,  H. F. Schaefer III,  
 M. W. Schmidt,  N. E. Schultz,  S. Sharma,  N. Shenvi,  C. D. Sherrill,  
 A. C. Simmonett,  A. Sodt,  T. Stein,  D. Stuck,  K. S. Thanthiriwatte,  
 V. Vanovschi,  L. Vogt,  Tao Wang,  A. Warshel,  M. A. Watson,  
 C. F. Williams,  Q. Wu,  X. Xu,  Jun Yang,  W. Zhang,  Yan Zhao

   Please cite Q-Chem as follows:
  "Software for the frontiers of quantum chemistry:
   An overview of developments in the Q-Chem 5 package"
   J. Chem. Phys. 155, 084801 (2021)
   https://doi.org/10.1063/5.0055522 (open access)

 Q-Chem 5.4.2 for Intel X86 EM64T Linux

 Parts of Q-Chem use Armadillo 9.900.5 (Nocturnal Misbehaviour).
 http://arma.sourceforge.net/

 Q-Chem begins on Thu Jan 11 15:49:17 2024  

 Host: 
0

     Scratch files written to /scratch/qchem787880//
 Dec1321 |scratch|qcdevops|jenkins|workspace|build_RNUM 5684   
 Processing $rem in /home/kchung25/qchem/5.4.0/config/preferences:
 Processing $rem in /home/kchung25/.qchemrc:

 Q-Chem warning in module libgen/rem_setup.C, line 3079:

 Neither GIA nor STOLL is specified by user. Use STOLL as the default


 Checking the input file for inconsistencies... 	...done.

--------------------------------------------------------------
User input:
--------------------------------------------------------------
$molecule
1 1
--
1 1
Na     0.000000     0.000000     0.000000
--
0 1
O      1.840093    -0.013228     1.168474
H      2.578854    -0.628590     1.402113
H      1.971143     0.638358     1.806956
O     -0.529791    -1.975169    -1.169996
H     -0.194422    -2.273058    -1.972985
H     -1.435025    -2.192187    -1.229504
O      0.234253     1.720156    -1.715639
H      0.688439     2.544420    -1.572514
H     -0.667981     1.888890    -2.029084
O     -2.243886     0.693704     0.273219
H     -3.037219     0.241933     0.599418
H     -2.426716     1.627144     0.193199
$end

$rem
JOBTYPE          eda
EDA2             1
METHOD           wB97M-V
BASIS            def2-TZVPPD
SYMMETRY         false
MEM_TOTAL        50000
MEM_STATIC       10000
THRESH           14
SCF_CONVERGENCE  8
XC_GRID          000099000590
NL_GRID          1
EDA_CLS_DISP     true
FD_MAT_VEC_PROD  FALSE
$end
--------------------------------------------------------------
 ----------------------------------------------------------------
             Standard Nuclear Orientation (Angstroms)
    I     Atom           X                Y                Z
 ----------------------------------------------------------------
    1      Na      0.2631117854    -0.0920491970     0.1935121527
    2      O       2.4059151535     0.0495609896     0.5673958222
    3      H       3.2248319225    -0.4969590161     0.4688230209
    4      H       2.7197092509     0.7000547539     1.1399242575
    5      O      -0.5149155784    -2.0889936649    -0.7851338178
    6      H      -0.4920136150    -2.3406320857    -1.6695291829
    7      H      -1.3523660150    -2.3896072666    -0.5051430360
    8      O      -0.3220193019     1.6704613636    -1.3902827977
    9      H       0.0839068433     2.5315095824    -1.3894112797
   10      H      -1.2858051985     1.7582697263    -1.3258502091
   11      O      -1.7502947598     0.3818545786     1.3391593661
   12      H      -2.3172311209    -0.1481785918     1.9201310295
   13      H      -2.0247458142     1.2950179298     1.3833131378
 ----------------------------------------------------------------
 Molecular Point Group                 C1    NOp =  1
 Largest Abelian Subgroup              C1    NOp =  1
 Nuclear Repulsion Energy =         214.55169289 hartrees
 There are       25 alpha and       25 beta electrons
 Requested basis set is def2-TZVPPD
 There are 125 shells and 331 basis functions

 Q-Chem warning in module libmdc/get_mega.C, line 171:

 Allowed MEM_STATIC has been capped at MEM_STATIC=8191.
 Reduce the value of MEM_STATIC to silence this warning.


 Total QAlloc Memory Limit  50000 MB
 Mega-Array Size      8007 MB
 MEM_STATIC part      8191 MB

                       Distance Matrix (Angstroms)
             Na(  1)   O (  2)   H (  3)   H (  4)   O (  5)   H (  6)
   O (  2)  2.179782
   H (  3)  3.001922  0.989457
   H (  4)  2.749181  0.921628  1.462316
   O (  5)  2.356027  3.864454  4.253551  4.684809
   H (  6)  3.016167  4.372053  4.667614  5.239654  0.919783
   H (  7)  2.894246  4.607012  5.047917  5.369735  0.932784  1.448585
   O (  8)  2.440743  3.728465  4.553476  4.073788  3.812731  4.024394
   H (  9)  3.069336  3.921847  4.742369  4.086468  4.698169  4.914053
   H ( 10)  2.851541  4.486966  5.352827  4.821204  3.960818  4.189178
   O ( 11)  2.364508  4.240297  5.126567  4.485742  3.484806  4.248225
   H ( 12)  3.105243  4.917022  5.739547  5.167107  3.785969  4.585186
   H ( 13)  2.928118  4.674146  5.621880  4.787805  4.293400  4.988694
             H (  7)   O (  8)   H (  9)   H ( 10)   O ( 11)   H ( 12)
   O (  8)  4.281267
   H (  9)  5.202134  0.951935
   H ( 10)  4.228815  0.969920  1.574183
   O ( 11)  3.352730  3.339211  3.928156  3.035217
   H ( 12)  3.440483  4.271670  4.888687  3.903175  0.969474
   H ( 13)  4.194618  3.276136  3.696394  2.846085  0.954537  1.567334

 
 A cutoff of  1.0D-14 yielded   7052 shell pairs
 There are     48502 function pairs (     58620 Cartesian)
 Smallest overlap matrix eigenvalue = 1.23E-04

 Scale SEOQF with 1.000000e-01/1.000000e-01/1.000000e-01

 Standard Electronic Orientation quadrupole field applied
 Nucleus-field energy     =     0.0000000041 hartrees

 -----------------------------------------------------------------------
  General SCF calculation program by
  Eric Jon Sundstrom, Paul Horn, Yuezhi Mao, Dmitri Zuev, Alec White,
  David Stuck, Shaama M.S., Shane Yost, Joonho Lee, David Small,
  Daniel Levine, Susi Lehtola, Hugh Burton, Evgeny Epifanovsky,
  Bang C. Huynh
 -----------------------------------------------------------------------
================================================================
                 ALMO-EDA with the EDA2 driver                  
================================================================
 The second-generation ALMO-EDA (for DFT):                      
 P. R. Horn, Y. Mao and M. Head-Gordon, PCCP, 18, 23067 (2016)  
 Y. Mao et al. Annu. Rev. Phys. Chem. 72, 641 (2021)            
 Decomposition of the frozen energy:                            
 P. R. Horn, Y. Mao and M. Head-Gordon, JCP, 144, 114107 (2016) 
 FERF model for polarization:                                   
 P. R. Horn and M. Head-Gordon, JCP, 143, 114111 (2015)         
================================================================
 Using eda2 option set 1
 Option set summary: Frozen orbital wavefunction, initial wavefunction decomposition, and nDQ polarization.
--------------------------------
Printing EDA Options
--------------------------------
eda_child_super_basis      0
fragmo_guess_mode          0
child_mp                   1
child_mp_orders            232
cls_elec                   1
cls_disp                   1
scfmi_mode                 1
scfmi_occs                 0
scfmi_virts                0
frz_relax                  0
frz_relax_method           0
dc_pen_start               0
dc_pen_conv                0
dc_pen_increment           0
dc_pen_steps               0
dc_pen_thresh_factor       0
dc_pen_pre_newton_thresh   0
frz_ortho_decomp           1
frz_ortho_decomp_conv      6
plot_mo_ortho_frz          0
frgm_method                2
scfmi_freeze_ss            0
separate_rehyb             0
plot_diff_den              0
eda_nocv                   0
eda_vct_relax              1
disp_free_x                0
disp_free_c                0
eda_bsse                   0
eda_pct_a                  0
eda_covp                   0
--------------------------------
Attempting to make child job directory: /scratch/qchem787880//Frg1/
Attempting to make child job directory: /scratch/qchem787880//Frg2/
Creating input file /scratch/qchem787880/Frg1.input
using default PutDataFrgm: nothing
calling putenv with: QCSCRATCH=/scratch/qchem787880/ 
Spawning Job For Fragment 0
Done Job For Fragment 0
calling putenv with: QCSCRATCH=/scratch 
calling putenv with: QCTHREADS=6 
Creating input file /scratch/qchem787880/Frg2.input
using default PutDataFrgm: nothing
calling putenv with: QCSCRATCH=/scratch/qchem787880/ 
Spawning Job For Fragment 1
Done Job For Fragment 1
calling putenv with: QCSCRATCH=/scratch 
calling putenv with: QCTHREADS=6 
Doing General SCFMI
 Exchange:     0.1500 Hartree-Fock + 1.0000 wB97M-V + LR-HF
 Correlation:  1.0000 wB97M-V
 Using Euler-Maclaurin-Lebedev (99,590) quadrature formula
 Nonlocal Correlation:  VV10 with C = 0.0100 and b = 6.00 and scale = 1.00000
 Grid used for NLC:  SG-1 standard quadrature
performing fock build before subrot guess so that all methods have access
Printing subrot_rss_gen Method Specification:
Occupied Subspace Method is 0
Virtual Subspace Method is 0
Energy of the unrelaxed supersystem initial determinant -467.891240503007
write pseudocanon occs and virts to disk
write pseudocanon orbital energies to disk
Tolerance of ortho_decomp_scf: 1.00e-06
GDM subspace size: 20
Beginning the Orthogonal Decomposition of the Initial Supersystem Wavefunction
    1    -467.7208311813      2.66e-01     ortho_decomp Preconditoned Steepest Descent
    2    -467.7360050393      3.42e-03     ortho_decomp BFGS Step
    3    -467.7360186007      1.51e-04     ortho_decomp BFGS Step
    4    -467.7360186078      2.89e-06     ortho_decomp BFGS Step
    5    -467.7360186078      3.12e-08     ortho_decomp 00000 Convergence criterion met
 Hartree-Fock
 Hartree-Fock
 Hartree-Fock
 Exchange:     0.1500 Hartree-Fock + 1.0000 wB97M-V + LR-HF
 Correlation:  1.0000 wB97M-V
 Using Euler-Maclaurin-Lebedev (99,590) quadrature formula
 Nonlocal Correlation:  VV10 with C = 0.0100 and b = 6.00 and scale = 1.00000
 Grid used for NLC:  SG-1 standard quadrature
 Long-range K will be added via erf
 Coulomb attenuation parameter = 0.3 bohr**(-1)
 Nonlocal correlation = 2.112005789143e-01
Doing General SCFMI
 Exchange:     0.1500 Hartree-Fock + 1.0000 wB97M-V + LR-HF
 Correlation:  1.0000 wB97M-V
 Using Euler-Maclaurin-Lebedev (99,590) quadrature formula
 Nonlocal Correlation:  VV10 with C = 0.0100 and b = 6.00 and scale = 1.00000
 Grid used for NLC:  SG-1 standard quadrature
performing fock build at end of subrot_r(subrot) constructor so that all methods have access
<S^2> of initial wavefunction before polarization iterations 0.0000000000
Beginning iterations for the determination of the polarized wavefunction
Energy prior to optimization (guess energy) = -467.891240503007
Begin Timing: Total SCF Calculation
begin iterations for algorithm: DIIS         
the SCF tolerance is set to 1.00e-08
    1    -467.8912405030      1.05e-03     00000 
    2    -467.9200931814      5.01e-04     00000 
    3    -467.9228264136      2.23e-04     00000 
    4    -467.9234229032      4.60e-05     00000 
    5    -467.9234782138      1.11e-05     00000 
    6    -467.9234828423      4.62e-06     00000 
    7    -467.9234832008      1.76e-06     00000 
    8    -467.9234832738      2.87e-07     00000 
    9    -467.9234832764      1.19e-07     00000 
   10    -467.9234832767      4.19e-08     00000 
   11    -467.9234832768      2.06e-08     00000 
   12    -467.9234832768      5.37e-09     00000 Convergence criterion met
write pseudocanon occs and virts to disk
write pseudocanon orbital energies to disk
Timing for Total SCF: 101.00s (wall), 605.88s (cpu)
<S^2> of polarized wavefunction after polarization iterations 0.0000000000
relaxing scfmi constraint to allow all rotations in the entire AO span
Doing General SCFMI
 Exchange:     0.1500 Hartree-Fock + 1.0000 wB97M-V + LR-HF
 Correlation:  1.0000 wB97M-V
 Using Euler-Maclaurin-Lebedev (99,590) quadrature formula
 Nonlocal Correlation:  VV10 with C = 0.0100 and b = 6.00 and scale = 1.00000
 Grid used for NLC:  SG-1 standard quadrature
performing fock build at end of subrot_r(subrot) constructor so that all methods have access
<S^2> of polarized wavefunction before ct-allowed iterations 0.0000000000
Beginning iterations for the determination of the CT-Allowed wavefunction
Energy prior to optimization (guess energy) = -467.923483276783
Begin Timing: Total SCF Calculation
begin iterations for algorithm: DIIS         
the SCF tolerance is set to 1.00e-08
    1    -467.9234832768      2.64e-04     00000 
    2    -467.9253036458      1.80e-05     00000 
    3    -467.9253247078      1.75e-06     00000 
    4    -467.9253249149      5.67e-07     00000 
    5    -467.9253249248      2.31e-07     00000 
    6    -467.9253249267      4.65e-08     00000 
    7    -467.9253249268      1.04e-08     00000 
    8    -467.9253249268      2.55e-09     00000 Convergence criterion met
write pseudocanon occs and virts to disk
write pseudocanon orbital energies to disk
Timing for Total SCF: 64.00s (wall), 383.46s (cpu)
<S^2> of ct_allowed wavefunction after ct-allowed iterations 0.0000000000

================================
        Results of EDA2         
================================
Basic EDA Quantities
--------------------
Fragment Energies (Ha):
1 -162.0687155489
2 -305.7298895165
--------------------
  E_prp (kJ/mol) = -0.0000
  E_frz (kJ/mol) = -243.2172
  E_pol (kJ/mol) = -84.6544
  E_vct (kJ/mol) = -4.8353
  E_int (kJ/mol) = -332.7069
--------------------


Decomposition of frozen interaction energy
--------------------
  --------------------
  Orthogonal Frozen Decomposition:
  --------------------
     E_elec   (ELEC)   (kJ/mol) = -363.9870
     E_pauli  (PAULI)  (kJ/mol) = 138.1514
     E_disp   (DISP)   (kJ/mol) = -17.3816
  --------------------
  Classical Frozen Decomposition:
  --------------------
     E_cls_elec  (CLS ELEC)  (kJ/mol) = -322.5031
     E_mod_pauli (MOD PAULI) (kJ/mol) = 93.9013 (FRZ - CLS ELEC - CLS DISP)
     E_cls_disp  (CLS DISP)  (kJ/mol) = -14.6154
  --------------------
--------------------

Simplified EDA Summary (kJ/mol)
--------------------
 PREPARATION      -0.0000
 FROZEN           -243.2172 (ELEC + PAULI + DISP)
[ELEC + PAULI = -228.6018, DISP = -14.6154]
 POLARIZATION    -84.6544
 CHARGE TRANSFER -4.8353
 TOTAL           -332.7069     (PRP + FRZ + POL + CT)
--------------------
 
 --------------------------------------------------------------
 
                    Orbital Energies (a.u.)
 --------------------------------------------------------------
 
 Alpha MOs
 -- Occupied --
-38.8264 -19.5090 -19.5074 -19.4968 -19.4925  -2.4716  -1.3767  -1.3754
 -1.3748  -1.3203  -1.3186  -1.3125  -1.3005  -0.8223  -0.8115  -0.8100
 -0.8049  -0.7038  -0.6868  -0.6803  -0.6631  -0.6049  -0.6035  -0.5938
 -0.5917
 -- Virtual --
 -0.1260  -0.0997  -0.0942  -0.0875  -0.0502  -0.0417  -0.0404  -0.0382
 -0.0310  -0.0295  -0.0254  -0.0229  -0.0070   0.0007   0.0013   0.0123
  0.0152   0.0282   0.0296   0.0452   0.0533   0.0579   0.0714   0.0778
  0.0832   0.0851   0.0955   0.0986   0.1000   0.1177   0.1246   0.1437
  0.1467   0.1516   0.1585   0.1622   0.1705   0.1716   0.1765   0.1876
  0.1967   0.1976   0.2104   0.2131   0.2200   0.2266   0.2352   0.2440
  0.2474   0.2516   0.2582   0.2669   0.2755   0.2816   0.2835   0.2894
  0.2985   0.3039   0.3073   0.3125   0.3159   0.3271   0.3504   0.3650
  0.3814   0.3960   0.4056   0.4082   0.4169   0.4377   0.4588   0.4638
  0.4710   0.4792   0.4895   0.4942   0.4986   0.5096   0.5194   0.5352
  0.5437   0.5629   0.5788   0.5912   0.6149   0.6328   0.6592   0.6716
  0.6811   0.6961   0.7081   0.7154   0.7208   0.7459   0.7592   0.7778
  0.8171   0.8294   0.8492   0.8719   0.8744   0.8867   0.9096   0.9423
  0.9640   0.9717   0.9882   1.0034   1.0167   1.0224   1.0359   1.0527
  1.0569   1.0620   1.0829   1.1009   1.1018   1.1152   1.1405   1.1428
  1.1554   1.1611   1.1817   1.2050   1.2250   1.2388   1.2563   1.2735
  1.2845   1.3011   1.3141   1.3417   1.3478   1.3600   1.3724   1.3760
  1.4109   1.5187   1.5757   1.6120   1.8098   1.8180   1.8255   1.8266
  1.8476   1.8549   1.8746   1.8913   1.9555   1.9649   1.9893   2.0104
  2.0694   2.0841   2.1032   2.1049   2.1197   2.1369   2.1817   2.1910
  2.4454   2.5162   2.5282   2.5941   2.6795   2.6963   2.7353   2.7696
  2.7814   2.8159   2.8673   2.9046   3.0273   3.0535   3.0731   3.0902
  3.1065   3.1348   3.1508   3.1643   3.1888   3.2289   3.2594   3.2678
  3.2849   3.2893   3.2916   3.3122   3.3235   3.3331   3.3340   3.3454
  3.3719   3.3810   3.3929   3.4132   3.4203   3.4254   3.4272   3.4555
  3.5661   3.5763   3.6022   3.6269   3.7410   3.7740   3.7949   3.8004
  3.8258   3.8400   3.8577   3.8818   3.9227   3.9490   3.9674   3.9747
  3.9857   4.0190   4.0285   4.0450   4.0500   4.0597   4.0766   4.0972
  4.1044   4.1275   4.1334   4.1451   4.1531   4.1662   4.2123   4.2343
  4.5514   4.5951   4.5996   4.6065   4.6202   4.6447   4.6547   4.7236
  4.7626   4.8246   4.8691   4.9065   4.9477   5.0601   5.0667   5.1703
  5.2247   5.5107   5.5209   5.5598   5.6244   5.7492   5.7761   5.8050
  5.8325   5.8594   6.0170   6.0309   6.2280   6.3076   6.3259   6.3956
  6.4139   6.4388   6.4570   6.4715   6.4761   6.4777   6.5056   6.5070
  6.5235   6.5448   6.5470   6.5902   6.5952   6.6084   6.6158   6.6311
  6.6742   6.6929   6.6965   6.7217   6.7591   6.8240   6.8669   6.9510
  6.9574   6.9710   7.3179   7.3433   7.4124   7.4221   7.4410   7.4772
  7.6229   7.6859   7.6988   7.7583   7.7757   7.8010  44.2371  44.2791
 44.3404  44.4099
 --------------------------------------------------------------
 
          Ground-State Mulliken Net Atomic Charges

     Atom                 Charge (a.u.)
  ----------------------------------------
      1 Na                    1.048864
      2 O                    -0.362666
      3 H                     0.170697
      4 H                     0.128831
      5 O                    -0.277760
      6 H                     0.120998
      7 H                     0.148801
      8 O                    -0.365409
      9 H                     0.173127
     10 H                     0.206913
     11 O                    -0.317867
     12 H                     0.157697
     13 H                     0.167774
  ----------------------------------------
  Sum of atomic charges =     1.000000

 -----------------------------------------------------------------
                    Cartesian Multipole Moments
 -----------------------------------------------------------------
    Charge (ESU x 10^10)
                 4.8032
    Dipole Moment (Debye)
         X      -0.7476      Y       1.0722      Z       1.5799
       Tot       2.0505
    Quadrupole Moments (Debye-Ang)
        XX      -4.2178     XY       1.0254     YY     -12.8351
        XZ       0.5573     YZ       3.0098     ZZ     -21.6327
    Octopole Moments (Debye-Ang^2)
       XXX      29.0059    XXY      -1.1127    XYY     -15.4618
       YYY      12.3240    XXZ      26.3762    XYZ       0.2347
       YYZ     -16.5411    XZZ     -10.8510    YZZ      -4.5008
       ZZZ       6.3474
    Hexadecapole Moments (Debye-Ang^3)
      XXXX    -175.8252   XXXY     -16.5818   XXYY     -75.9280
      XYYY      23.4444   YYYY    -226.7898   XXXZ      10.9207
      XXYZ       9.8316   XYYZ       6.8312   YYYZ       2.6705
      XXZZ     -54.7822   XYZZ       7.2547   YYZZ     -49.1411
      XZZZ     -15.8132   YZZZ      20.7151   ZZZZ    -199.9092
 -----------------------------------------------------------------
 Total job time:  800.59s(wall), 1894.41s(cpu) 
 Thu Jan 11 16:02:37 2024

        *************************************************************
        *                                                           *
        *  Thank you very much for using Q-Chem.  Have a nice day.  *
        *                                                           *
        *************************************************************


