
Running Job 1 of 1 120_K-Water_Cls_009_almo.in
qchem 120_K-Water_Cls_009_almo.in_818947.0 /scratch/qchem818947/ 6
/home/kchung25/qchem/5.4.0/exe/qcprog.exe_s 120_K-Water_Cls_009_almo.in_818947.0 /scratch/qchem818947/
                  Welcome to Q-Chem
     A Quantum Leap Into The Future Of Chemistry


 Q-Chem 5.4, Q-Chem, Inc., Pleasanton, CA (2021)

 E. Epifanovsky,  A. T. B. Gilbert,  Xintian Feng,  Joonho Lee,  Yuezhi Mao,  
 N. Mardirossian,  P. Pokhilko,  A. White,  M. Wormit,  M. P. Coons,  
 A. L. Dempwolff,  Zhengting Gan,  D. Hait,  P. R. Horn,  L. D. Jacobson,  
 I. Kaliman,  J. Kussmann,  A. W. Lange,  Ka Un Lao,  D. S. Levine,  Jie Liu,  
 S. C. McKenzie,  A. F. Morrison,  K. Nanda,  F. Plasser,  D. R. Rehn,  
 M. L. Vidal,  Zhi-Qiang You,  Ying Zhu,  B. Alam,  B. Albrecht,  
 A. Aldossary,  E. Alguire,  J. H. Andersen,  D. Barton,  K. Begam,  A. Behn,  
 Y. A. Bernard,  E. J. Berquist,  H. Burton,  A. Carreras,  K. Carter-Fenk,  
 Romit Chakraborty,  A. D. Chien,  K. D. Closser,  V. Cofer-Shabica,  
 S. Dasgupta,  Jia Deng,  M. de Wergifosse,  M. Diedenhofen,  Hainam Do,  
 S. Ehlert,  Po-Tung Fang,  S. Fatehi,  Qingguo Feng,  T. Friedhoff,  
 J. Gayvert,  Qinghui Ge,  G. Gidofalvi,  M. Goldey,  J. Gomes,  
 C. Gonzalez-Espinoza,  S. Gulania,  A. Gunina,  M. W. D. Hanson-Heine,  
 P. H. P. Harbach,  A. W. Hauser,  M. F. Herbst,  M. Hernandez Vera,  
 M. Hodecker,  Z. C. Holden,  S. Houck,  Xunkun Huang,  Kerwin Hui,  
 B. C. Huynh,  M. Ivanov,  Hyunjun Ji,  Hanjie Jiang,  B. Kaduk,  S. Kaehler,  
 K. Khistyaev,  Jaehoon Kim,  P. Klunzinger,  Z. Koczor-Benda,  
 Joong Hoon Koh,  D. Kosenkov,  L. Koulias,  T. Kowalczyk,  C. M. Krauter,  
 K. Kue,  A. Kunitsa,  T. Kus,  A. Landau,  K. V. Lawler,  D. Lefrancois,  
 S. Lehtola,  Rain Li,  Yi-Pei Li,  Jiashu Liang,  M. Liebenthal,  
 Hung-Hsuan Lin,  You-Sheng Lin,  Fenglai Liu,  Kuan-Yu Liu,  
 M. Loipersberger,  A. Luenser,  A. Manjanath,  P. Manohar,  E. Mansoor,  
 S. F. Manzer,  Shan-Ping Mao,  A. V. Marenich,  T. Markovich,  S. Mason,  
 S. A. Maurer,  P. F. McLaughlin,  M. F. S. J. Menger,  J.-M. Mewes,  
 S. A. Mewes,  P. Morgante,  J. W. Mullinax,  K. J. Oosterbaan,  G. Paran,  
 Alexander C. Paul,  Suranjan K. Paul,  F. Pavosevic,  Zheng Pei,  S. Prager,  
 E. I. Proynov,  E. Ramos,  B. Rana,  A. E. Rask,  A. Rettig,  R. M. Richard,  
 F. Rob,  E. Rossomme,  T. Scheele,  M. Scheurer,  M. Schneider,  
 N. Sergueev,  S. M. Sharada,  W. Skomorowski,  D. W. Small,  C. J. Stein,  
 Yu-Chuan Su,  E. J. Sundstrom,  Zhen Tao,  J. Thirman,  T. Tsuchimochi,  
 N. M. Tubman,  S. P. Veccham,  O. Vydrov,  J. Wenzel,  J. Witte,  A. Yamada,  
 Kun Yao,  S. Yeganeh,  S. R. Yost,  A. Zech,  Igor Ying Zhang,  Xing Zhang,  
 Yu Zhang,  D. Zuev,  A. Aspuru-Guzik,  A. T. Bell,  N. A. Besley,  
 K. B. Bravaya,  B. R. Brooks,  D. Casanova,  Jeng-Da Chai,  S. Coriani,  
 C. J. Cramer,  A. E. DePrince, III,  R. A. DiStasio Jr.,  A. Dreuw,  
 B. D. Dunietz,  T. R. Furlani,  W. A. Goddard III,  S. Grimme,  
 S. Hammes-Schiffer,  T. Head-Gordon,  W. J. Hehre,  Chao-Ping Hsu,  
 T.-C. Jagau,  Yousung Jung,  A. Klamt,  Jing Kong,  D. S. Lambrecht,  
 WanZhen Liang,  N. J. Mayhall,  C. W. McCurdy,  J. B. Neaton,  T. Neudecker,  
 C. Ochsenfeld,  J. A. Parkhill,  R. Peverati,  V. A. Rassolov,  Yihan Shao,  
 L. V. Slipchenko,  R. P. Steele,  J. E. Subotnik,  A. J. W. Thom,  
 A. Tkatchenko,  D. G. Truhlar,  T. Van Voorhis,  T. A. Wesolowski,  
 K. B. Whaley,  H. L. Woodcock III,  P. M. Zimmerman,  S. Faraji,  
 P. M. W. Gill,  M. Head-Gordon,  J. M. Herbert,  A. I. Krylov

 Additional authors since Version 5.4.0: 
 Chandrima Chakravarty,  L. Cunha,  R. Kang,  Yongbin Kim,  S. Kotaru,  
 Shaozhi Li,  Xiangyuan Li,  F. Matz,  A. Molle,  V. Parravicini,  
 Haisheng Ren,  Hengyuan Shen,  Yingli Su,  Hung-Yi Tsai,  C. Utku,  
 Fang Wang,  Jeff Yang,  F. Zeller

 Contributors to earlier versions of Q-Chem not listed above: 
 R. D. Adamson,  B. Austin,  R. Baer,  J. Baker,  G. J. O. Beran,  
 K. Brandhorst,  S. T. Brown,  E. F. C. Byrd,  Arup K. Chakraborty,  
 G. K. L. Chan,  Chun-Min Chang,  Yunqing Chen,  C.-L. Cheng,  
 Siu Hung Chien,  D. M. Chipman,  D. L. Crittenden,  H. Dachsel,  
 R. J. Doerksen,  A. D. Dutoi,  R. G. Edgar,  J. Fosso-Tande,  
 L. Fusti-Molnar,  D. Ghosh,  A. Ghysels,  A. Golubeva-Zadorozhnaya,  
 J. Gonthier,  M. S. Gordon,  S. R. Gwaltney,  G. Hawkins,  J. E. Herr,  
 A. Heyden,  S. Hirata,  E. G. Hohenstein,  G. Kedziora,  F. J. Keil,  
 C. Kelley,  Jihan Kim,  R. A. King,  R. Z. Khaliullin,  P. P. Korambath,  
 W. Kurlancheek,  A. Laurent,  A. M. Lee,  M. S. Lee,  S. V. Levchenko,  
 Ching Yeh Lin,  D. Liotard,  E. Livshits,  R. C. Lochan,  I. Lotan,  
 L. A. Martinez-Martinez,  P. E. Maslen,  N. Nair,  D. P. O'Neill,  
 D. Neuhauser,  E. Neuscamman,  C. M. Oana,  R. Olivares-Amaya,  R. Olson,  
 T. M. Perrine,  B. Peters,  P. A. Pieniazek,  A. Prociuk,  Y. M. Rhee,  
 J. Ritchie,  M. A. Rohrdanz,  E. Rosta,  N. J. Russ,  H. F. Schaefer III,  
 M. W. Schmidt,  N. E. Schultz,  S. Sharma,  N. Shenvi,  C. D. Sherrill,  
 A. C. Simmonett,  A. Sodt,  T. Stein,  D. Stuck,  K. S. Thanthiriwatte,  
 V. Vanovschi,  L. Vogt,  Tao Wang,  A. Warshel,  M. A. Watson,  
 C. F. Williams,  Q. Wu,  X. Xu,  Jun Yang,  W. Zhang,  Yan Zhao

   Please cite Q-Chem as follows:
  "Software for the frontiers of quantum chemistry:
   An overview of developments in the Q-Chem 5 package"
   J. Chem. Phys. 155, 084801 (2021)
   https://doi.org/10.1063/5.0055522 (open access)

 Q-Chem 5.4.2 for Intel X86 EM64T Linux

 Parts of Q-Chem use Armadillo 9.900.5 (Nocturnal Misbehaviour).
 http://arma.sourceforge.net/

 Q-Chem begins on Fri Jan 12 06:45:15 2024  

 Host: 
0

     Scratch files written to /scratch/qchem818947//
 Dec1321 |scratch|qcdevops|jenkins|workspace|build_RNUM 5684   
 Processing $rem in /home/kchung25/qchem/5.4.0/config/preferences:
 Processing $rem in /home/kchung25/.qchemrc:

 Q-Chem warning in module libgen/rem_setup.C, line 3079:

 Neither GIA nor STOLL is specified by user. Use STOLL as the default


 Checking the input file for inconsistencies... 	...done.

--------------------------------------------------------------
User input:
--------------------------------------------------------------
$molecule
1 1
--
1 1
K      0.000000     0.000000     0.000000
--
0 1
O     -0.031652     2.144978    -1.608259
H      0.277586     1.427590    -2.192862
H     -1.017221     2.264700    -1.738852
O     -0.788931    -0.740656     2.321277
H     -1.501247    -0.231443     2.705598
H     -0.076222    -0.711789     2.986251
O     -1.974576    -1.628499    -1.490287
H     -2.671600    -1.230877    -0.969768
H     -2.022568    -2.568609    -1.304728
O     -0.874063     1.982276     2.140067
H     -1.510546     2.328273     1.516840
H     -1.133805     2.374863     2.943937
O      2.540164     1.201918     0.024099
H      2.914567     1.138412     0.906595
H      2.914729     2.003474    -0.363718
$end

$rem
JOBTYPE          eda
EDA2             1
METHOD           wB97M-V
BASIS            def2-TZVPPD
SYMMETRY         false
MEM_TOTAL        50000
MEM_STATIC       10000
THRESH           14
SCF_CONVERGENCE  8
XC_GRID          000099000590
NL_GRID          1
EDA_CLS_DISP     true
FD_MAT_VEC_PROD  FALSE
$end
--------------------------------------------------------------
 ----------------------------------------------------------------
             Standard Nuclear Orientation (Angstroms)
    I     Atom           X                Y                Z
 ----------------------------------------------------------------
    1      K       0.2169071211    -0.2477820403    -0.4151683012
    2      O      -1.0020917924    -1.8699680454     1.3372539352
    3      H      -0.6188144701    -2.4868587112     0.6856568576
    4      H      -0.3802296060    -1.7997897783     2.1189805976
    5      O       0.9054259723     2.2037433936    -0.6895315322
    6      H       0.9806211923     2.7121615865     0.1168500240
    7      H       0.2818159510     2.7083996966    -1.2439775623
    8      O       2.9724232924    -1.2619113664    -0.0271128220
    9      H       3.0929957976    -0.6204759189     0.6721071566
   10      H       3.6343181052    -1.0465378392    -0.6874549206
   11      O      -0.9141003811     1.9742895495     1.3331196936
   12      H      -0.6129340796     1.4853748322     2.0969898952
   13      H      -1.1398828050     2.8039557025     1.6915521246
   14      O      -2.3934367700    -0.7730105551    -1.3139789402
   15      H      -2.7528235809     0.0158868778    -1.7280945871
   16      H      -3.1520643762    -1.2494014918    -0.9524145388
 ----------------------------------------------------------------
 Molecular Point Group                 C1    NOp =  1
 Largest Abelian Subgroup              C1    NOp =  1
 Nuclear Repulsion Energy =         347.83683833 hartrees
 There are       34 alpha and       34 beta electrons
 Requested basis set is def2-TZVPPD
 There are 154 shells and 406 basis functions

 Q-Chem warning in module libmdc/get_mega.C, line 171:

 Allowed MEM_STATIC has been capped at MEM_STATIC=8191.
 Reduce the value of MEM_STATIC to silence this warning.


 Total QAlloc Memory Limit  50000 MB
 Mega-Array Size      8007 MB
 MEM_STATIC part      8191 MB
 A cutoff of  1.0D-14 yielded  10153 shell pairs
 There are     68601 function pairs (     82618 Cartesian)
 Smallest overlap matrix eigenvalue = 9.07E-05

 Scale SEOQF with 1.000000e-01/1.000000e-01/1.000000e-01

 Standard Electronic Orientation quadrupole field applied
 Nucleus-field energy     =     0.0000000102 hartrees

 -----------------------------------------------------------------------
  General SCF calculation program by
  Eric Jon Sundstrom, Paul Horn, Yuezhi Mao, Dmitri Zuev, Alec White,
  David Stuck, Shaama M.S., Shane Yost, Joonho Lee, David Small,
  Daniel Levine, Susi Lehtola, Hugh Burton, Evgeny Epifanovsky,
  Bang C. Huynh
 -----------------------------------------------------------------------
================================================================
                 ALMO-EDA with the EDA2 driver                  
================================================================
 The second-generation ALMO-EDA (for DFT):                      
 P. R. Horn, Y. Mao and M. Head-Gordon, PCCP, 18, 23067 (2016)  
 Y. Mao et al. Annu. Rev. Phys. Chem. 72, 641 (2021)            
 Decomposition of the frozen energy:                            
 P. R. Horn, Y. Mao and M. Head-Gordon, JCP, 144, 114107 (2016) 
 FERF model for polarization:                                   
 P. R. Horn and M. Head-Gordon, JCP, 143, 114111 (2015)         
================================================================
 Using eda2 option set 1
 Option set summary: Frozen orbital wavefunction, initial wavefunction decomposition, and nDQ polarization.
--------------------------------
Printing EDA Options
--------------------------------
eda_child_super_basis      0
fragmo_guess_mode          0
child_mp                   1
child_mp_orders            232
cls_elec                   1
cls_disp                   1
scfmi_mode                 1
scfmi_occs                 0
scfmi_virts                0
frz_relax                  0
frz_relax_method           0
dc_pen_start               0
dc_pen_conv                0
dc_pen_increment           0
dc_pen_steps               0
dc_pen_thresh_factor       0
dc_pen_pre_newton_thresh   0
frz_ortho_decomp           1
frz_ortho_decomp_conv      6
plot_mo_ortho_frz          0
frgm_method                2
scfmi_freeze_ss            0
separate_rehyb             0
plot_diff_den              0
eda_nocv                   0
eda_vct_relax              1
disp_free_x                0
disp_free_c                0
eda_bsse                   0
eda_pct_a                  0
eda_covp                   0
--------------------------------
Attempting to make child job directory: /scratch/qchem818947//Frg1/
Attempting to make child job directory: /scratch/qchem818947//Frg2/
Creating input file /scratch/qchem818947/Frg1.input
using default PutDataFrgm: nothing
calling putenv with: QCSCRATCH=/scratch/qchem818947/ 
Spawning Job For Fragment 0
Done Job For Fragment 0
calling putenv with: QCSCRATCH=/scratch 
calling putenv with: QCTHREADS=6 
Creating input file /scratch/qchem818947/Frg2.input
using default PutDataFrgm: nothing
calling putenv with: QCSCRATCH=/scratch/qchem818947/ 
Spawning Job For Fragment 1
Done Job For Fragment 1
calling putenv with: QCSCRATCH=/scratch 
calling putenv with: QCTHREADS=6 
Doing General SCFMI
 Exchange:     0.1500 Hartree-Fock + 1.0000 wB97M-V + LR-HF
 Correlation:  1.0000 wB97M-V
 Using Euler-Maclaurin-Lebedev (99,590) quadrature formula
 Nonlocal Correlation:  VV10 with C = 0.0100 and b = 6.00 and scale = 1.00000
 Grid used for NLC:  SG-1 standard quadrature
performing fock build before subrot guess so that all methods have access
Printing subrot_rss_gen Method Specification:
Occupied Subspace Method is 0
Virtual Subspace Method is 0
Energy of the unrelaxed supersystem initial determinant -981.950657000234
write pseudocanon occs and virts to disk
write pseudocanon orbital energies to disk
Tolerance of ortho_decomp_scf: 1.00e-06
GDM subspace size: 20
Beginning the Orthogonal Decomposition of the Initial Supersystem Wavefunction
    1    -981.7815538440      2.66e-01     ortho_decomp Preconditoned Steepest Descent
    2    -981.8139137062      2.67e-03     ortho_decomp BFGS Step
    3    -981.8139311303      1.27e-04     ortho_decomp BFGS Step
    4    -981.8139311730      5.04e-06     ortho_decomp BFGS Step
    5    -981.8139311731      9.95e-08     ortho_decomp 00000 Convergence criterion met
 Hartree-Fock
 Hartree-Fock
 Hartree-Fock
 Exchange:     0.1500 Hartree-Fock + 1.0000 wB97M-V + LR-HF
 Correlation:  1.0000 wB97M-V
 Using Euler-Maclaurin-Lebedev (99,590) quadrature formula
 Nonlocal Correlation:  VV10 with C = 0.0100 and b = 6.00 and scale = 1.00000
 Grid used for NLC:  SG-1 standard quadrature
 Long-range K will be added via erf
 Coulomb attenuation parameter = 0.3 bohr**(-1)
 Nonlocal correlation = 2.838738799927e-01
Doing General SCFMI
 Exchange:     0.1500 Hartree-Fock + 1.0000 wB97M-V + LR-HF
 Correlation:  1.0000 wB97M-V
 Using Euler-Maclaurin-Lebedev (99,590) quadrature formula
 Nonlocal Correlation:  VV10 with C = 0.0100 and b = 6.00 and scale = 1.00000
 Grid used for NLC:  SG-1 standard quadrature
performing fock build at end of subrot_r(subrot) constructor so that all methods have access
<S^2> of initial wavefunction before polarization iterations 0.0000000000
Beginning iterations for the determination of the polarized wavefunction
Energy prior to optimization (guess energy) = -981.950657000235
Begin Timing: Total SCF Calculation
begin iterations for algorithm: DIIS         
the SCF tolerance is set to 1.00e-08
    1    -981.9506570002      7.05e-04     00000 
    2    -981.9724359813      2.73e-04     00000 
    3    -981.9739113849      1.26e-04     00000 
    4    -981.9742503191      4.23e-05     00000 
    5    -981.9743236877      1.18e-05     00000 
    6    -981.9743374719      3.71e-06     00000 
    7    -981.9743389774      1.86e-06     00000 
    8    -981.9743391668      7.07e-07     00000 
    9    -981.9743391901      2.11e-07     00000 
   10    -981.9743391931      3.44e-08     00000 
   11    -981.9743391932      1.56e-08     00000 
   12    -981.9743391932      7.63e-09     00000 Convergence criterion met
write pseudocanon occs and virts to disk
write pseudocanon orbital energies to disk
Timing for Total SCF: 177.00s (wall), 1058.69s (cpu)
<S^2> of polarized wavefunction after polarization iterations 0.0000000000
relaxing scfmi constraint to allow all rotations in the entire AO span
Doing General SCFMI
 Exchange:     0.1500 Hartree-Fock + 1.0000 wB97M-V + LR-HF
 Correlation:  1.0000 wB97M-V
 Using Euler-Maclaurin-Lebedev (99,590) quadrature formula
 Nonlocal Correlation:  VV10 with C = 0.0100 and b = 6.00 and scale = 1.00000
 Grid used for NLC:  SG-1 standard quadrature
performing fock build at end of subrot_r(subrot) constructor so that all methods have access
<S^2> of polarized wavefunction before ct-allowed iterations 0.0000000000
Beginning iterations for the determination of the CT-Allowed wavefunction
Energy prior to optimization (guess energy) = -981.974339193217
Begin Timing: Total SCF Calculation
begin iterations for algorithm: DIIS         
the SCF tolerance is set to 1.00e-08
    1    -981.9743391932      2.69e-04     00000 
    2    -981.9780121301      2.42e-05     00000 
    3    -981.9781149281      6.85e-06     00000 
    4    -981.9781178573      5.97e-06     00000 
    5    -981.9781197725      2.91e-07     00000 
    6    -981.9781197830      1.10e-07     00000 
    7    -981.9781197841      5.46e-08     00000 
    8    -981.9781197843      8.05e-09     00000 Convergence criterion met
write pseudocanon occs and virts to disk
write pseudocanon orbital energies to disk
Timing for Total SCF: 111.00s (wall), 668.60s (cpu)
<S^2> of ct_allowed wavefunction after ct-allowed iterations 0.0000000000

================================
        Results of EDA2         
================================
Basic EDA Quantities
--------------------
Fragment Energies (Ha):
1 -599.7243958034
2 -382.1717571673
--------------------
  E_prp (kJ/mol) = 0.0000
  E_frz (kJ/mol) = -143.1020
  E_pol (kJ/mol) = -62.1783
  E_vct (kJ/mol) = -9.9261
  E_int (kJ/mol) = -215.2064
--------------------


Decomposition of frozen interaction energy
--------------------
  --------------------
  Orthogonal Frozen Decomposition:
  --------------------
     E_elec   (ELEC)   (kJ/mol) = -297.0295
     E_pauli  (PAULI)  (kJ/mol) = 181.2242
     E_disp   (DISP)   (kJ/mol) = -27.2966
  --------------------
  Classical Frozen Decomposition:
  --------------------
     E_cls_elec  (CLS ELEC)  (kJ/mol) = -236.0416
     E_mod_pauli (MOD PAULI) (kJ/mol) = 117.6102 (FRZ - CLS ELEC - CLS DISP)
     E_cls_disp  (CLS DISP)  (kJ/mol) = -24.6707
  --------------------
--------------------

Simplified EDA Summary (kJ/mol)
--------------------
 PREPARATION      0.0000
 FROZEN           -143.1020 (ELEC + PAULI + DISP)
[ELEC + PAULI = -118.4314, DISP = -24.6707]
 POLARIZATION    -62.1783
 CHARGE TRANSFER -9.9261
 TOTAL           -215.2064     (PRP + FRZ + POL + CT)
--------------------
 
 --------------------------------------------------------------
 
                    Orbital Energies (a.u.)
 --------------------------------------------------------------
 
 Alpha MOs
 -- Occupied --
******** -19.4939 -19.4852 -19.4845 -19.4821 -19.4761 -13.5130 -10.7915
-10.7911 -10.7907  -1.6121  -1.3047  -1.2915  -1.2889  -1.2860  -1.2803
 -0.9644  -0.9624  -0.9593  -0.7980  -0.7926  -0.7912  -0.7887  -0.7809
 -0.6691  -0.6588  -0.6535  -0.6520  -0.6448  -0.5938  -0.5837  -0.5786
 -0.5678  -0.5624
 -- Virtual --
 -0.1287  -0.0983  -0.0943  -0.0893  -0.0587  -0.0519  -0.0478  -0.0415
 -0.0336  -0.0271  -0.0176  -0.0172  -0.0106  -0.0045  -0.0012  -0.0011
  0.0054   0.0068   0.0145   0.0183   0.0392   0.0426   0.0438   0.0536
  0.0574   0.0603   0.0662   0.0684   0.0780   0.0849   0.0940   0.0964
  0.1118   0.1180   0.1224   0.1273   0.1334   0.1466   0.1501   0.1608
  0.1622   0.1733   0.1759   0.1808   0.1858   0.1941   0.1982   0.2016
  0.2096   0.2155   0.2166   0.2201   0.2237   0.2286   0.2300   0.2356
  0.2382   0.2420   0.2443   0.2498   0.2555   0.2584   0.2658   0.2692
  0.2774   0.2800   0.2813   0.2941   0.2946   0.2978   0.3087   0.3148
  0.3203   0.3282   0.3323   0.3344   0.3412   0.3533   0.3567   0.3661
  0.3752   0.3967   0.3990   0.4019   0.4159   0.4212   0.4381   0.4487
  0.4564   0.4614   0.4720   0.4763   0.4837   0.4887   0.5140   0.5151
  0.5290   0.5389   0.5439   0.5446   0.5620   0.5760   0.5978   0.6097
  0.6264   0.6422   0.6540   0.6556   0.6636   0.6854   0.6942   0.6992
  0.7236   0.7294   0.7471   0.7491   0.7582   0.7688   0.7757   0.7883
  0.8008   0.8285   0.8362   0.8430   0.8586   0.8652   0.8835   0.9127
  0.9201   0.9320   0.9376   0.9516   0.9604   0.9730   0.9943   1.0158
  1.0289   1.0437   1.0520   1.0680   1.0712   1.0740   1.0935   1.1015
  1.1084   1.1156   1.1269   1.1370   1.1444   1.1523   1.1811   1.1897
  1.2061   1.2128   1.2525   1.2568   1.2641   1.2730   1.2934   1.2994
  1.3112   1.3134   1.3400   1.3434   1.3573   1.3640   1.3801   1.3931
  1.4002   1.4373   1.4727   1.5402   1.8360   1.8481   1.8575   1.8599
  1.8674   1.8697   1.8846   1.8925   1.8990   1.9236   1.9554   1.9563
  1.9697   1.9998   2.0066   2.0630   2.0924   2.1011   2.1119   2.1216
  2.1364   2.1640   2.1709   2.2201   2.2366   2.4920   2.5205   2.5484
  2.5783   2.6226   2.6681   2.6774   2.6946   2.7392   2.7681   2.8403
  2.8531   2.8886   2.8929   2.8980   3.0357   3.0461   3.0700   3.0803
  3.0861   3.0942   3.1195   3.1296   3.1387   3.1441   3.1572   3.1599
  3.1802   3.1947   3.2314   3.2332   3.2661   3.2751   3.2968   3.3039
  3.3103   3.3399   3.3467   3.3490   3.3546   3.3605   3.3634   3.3741
  3.3813   3.3839   3.3973   3.4027   3.4203   3.4367   3.4456   3.5352
  3.5721   3.5767   3.5913   3.6195   3.7862   3.8003   3.8122   3.8265
  3.8345   3.8468   3.8583   3.8620   3.8965   3.9028   3.9244   3.9327
  3.9537   3.9658   3.9790   3.9859   3.9928   4.0182   4.0304   4.0494
  4.0604   4.0674   4.0752   4.0800   4.1011   4.1129   4.1233   4.1271
  4.1326   4.1469   4.1566   4.1611   4.1734   4.2050   4.2268   4.5386
  4.5756   4.6034   4.6111   4.6157   4.6389   4.6534   4.6553   4.6627
  4.7312   4.8466   4.8593   4.8752   4.8933   4.9188   5.0037   5.0820
  5.0939   5.1063   5.1979   5.4886   5.5562   5.5655   5.5698   5.6087
  5.9483   6.1187   6.1307   6.1387   6.2545   6.3151   6.3846   6.4089
  6.4184   6.4238   6.4370   6.4632   6.4662   6.4674   6.4998   6.5328
  6.5371   6.5377   6.5457   6.5551   6.5617   6.5653   6.5689   6.5738
  6.5886   6.6186   6.6285   6.6556   6.6569   6.6865   6.7072   6.7439
  6.7471   6.7550   6.7909   6.9270   6.9285   6.9369   6.9411   6.9697
  7.2989   7.3469   7.3775   7.3915   7.3939   7.4439   7.4948   7.5015
  7.5141   7.6217   7.6966   7.7166   7.7246   7.7308   7.7748  44.1582
 44.2122  44.2169  44.2384  44.3113
 --------------------------------------------------------------
 
          Ground-State Mulliken Net Atomic Charges

     Atom                 Charge (a.u.)
  ----------------------------------------
      1 K                     0.928766
      2 O                    -0.419852
      3 H                     0.230091
      4 H                     0.218410
      5 O                    -0.361398
      6 H                     0.173135
      7 H                     0.190241
      8 O                    -0.339461
      9 H                     0.180097
     10 H                     0.174015
     11 O                    -0.255544
     12 H                     0.163702
     13 H                     0.107231
     14 O                    -0.316181
     15 H                     0.163674
     16 H                     0.163073
  ----------------------------------------
  Sum of atomic charges =     1.000000

 -----------------------------------------------------------------
                    Cartesian Multipole Moments
 -----------------------------------------------------------------
    Charge (ESU x 10^10)
                 4.8032
    Dipole Moment (Debye)
         X       0.7185      Y       2.3021      Z       0.9580
       Tot       2.5950
    Quadrupole Moments (Debye-Ang)
        XX     -24.2737     XY      -1.7667     YY     -25.7777
        XZ       4.4629     YZ       2.9235     ZZ     -29.2380
    Octopole Moments (Debye-Ang^2)
       XXX       6.8608    XXY      -3.7920    XYY     -17.0407
       YYY      42.3162    XXZ     -22.3403    XYZ       1.8578
       YYZ      11.7171    XZZ      -0.7889    YZZ      14.5721
       ZZZ      19.2737
    Hexadecapole Moments (Debye-Ang^3)
      XXXX    -393.5798   XXXY      13.8945   XXYY    -234.1757
      XYYY      -6.1081   YYYY    -434.0407   XXXZ      30.8465
      XXYZ      33.8774   XYYZ      -4.5482   YYYZ      34.7231
      XXZZ    -141.1145   XYZZ     -35.3718   YYZZ    -106.8480
      XZZZ      -2.9833   YZZZ      -0.7949   ZZZZ    -226.5267
 -----------------------------------------------------------------
 Total job time:  1440.25s(wall), 3318.55s(cpu) 
 Fri Jan 12 07:09:15 2024

        *************************************************************
        *                                                           *
        *  Thank you very much for using Q-Chem.  Have a nice day.  *
        *                                                           *
        *************************************************************


