
Running Job 1 of 1 120_K-Water_Cls_001_almo.in
qchem 120_K-Water_Cls_001_almo.in_808019.0 /scratch/qchem808019/ 6
/home/kchung25/qchem/5.4.0/exe/qcprog.exe_s 120_K-Water_Cls_001_almo.in_808019.0 /scratch/qchem808019/
                  Welcome to Q-Chem
     A Quantum Leap Into The Future Of Chemistry


 Q-Chem 5.4, Q-Chem, Inc., Pleasanton, CA (2021)

 E. Epifanovsky,  A. T. B. Gilbert,  Xintian Feng,  Joonho Lee,  Yuezhi Mao,  
 N. Mardirossian,  P. Pokhilko,  A. White,  M. Wormit,  M. P. Coons,  
 A. L. Dempwolff,  Zhengting Gan,  D. Hait,  P. R. Horn,  L. D. Jacobson,  
 I. Kaliman,  J. Kussmann,  A. W. Lange,  Ka Un Lao,  D. S. Levine,  Jie Liu,  
 S. C. McKenzie,  A. F. Morrison,  K. Nanda,  F. Plasser,  D. R. Rehn,  
 M. L. Vidal,  Zhi-Qiang You,  Ying Zhu,  B. Alam,  B. Albrecht,  
 A. Aldossary,  E. Alguire,  J. H. Andersen,  D. Barton,  K. Begam,  A. Behn,  
 Y. A. Bernard,  E. J. Berquist,  H. Burton,  A. Carreras,  K. Carter-Fenk,  
 Romit Chakraborty,  A. D. Chien,  K. D. Closser,  V. Cofer-Shabica,  
 S. Dasgupta,  Jia Deng,  M. de Wergifosse,  M. Diedenhofen,  Hainam Do,  
 S. Ehlert,  Po-Tung Fang,  S. Fatehi,  Qingguo Feng,  T. Friedhoff,  
 J. Gayvert,  Qinghui Ge,  G. Gidofalvi,  M. Goldey,  J. Gomes,  
 C. Gonzalez-Espinoza,  S. Gulania,  A. Gunina,  M. W. D. Hanson-Heine,  
 P. H. P. Harbach,  A. W. Hauser,  M. F. Herbst,  M. Hernandez Vera,  
 M. Hodecker,  Z. C. Holden,  S. Houck,  Xunkun Huang,  Kerwin Hui,  
 B. C. Huynh,  M. Ivanov,  Hyunjun Ji,  Hanjie Jiang,  B. Kaduk,  S. Kaehler,  
 K. Khistyaev,  Jaehoon Kim,  P. Klunzinger,  Z. Koczor-Benda,  
 Joong Hoon Koh,  D. Kosenkov,  L. Koulias,  T. Kowalczyk,  C. M. Krauter,  
 K. Kue,  A. Kunitsa,  T. Kus,  A. Landau,  K. V. Lawler,  D. Lefrancois,  
 S. Lehtola,  Rain Li,  Yi-Pei Li,  Jiashu Liang,  M. Liebenthal,  
 Hung-Hsuan Lin,  You-Sheng Lin,  Fenglai Liu,  Kuan-Yu Liu,  
 M. Loipersberger,  A. Luenser,  A. Manjanath,  P. Manohar,  E. Mansoor,  
 S. F. Manzer,  Shan-Ping Mao,  A. V. Marenich,  T. Markovich,  S. Mason,  
 S. A. Maurer,  P. F. McLaughlin,  M. F. S. J. Menger,  J.-M. Mewes,  
 S. A. Mewes,  P. Morgante,  J. W. Mullinax,  K. J. Oosterbaan,  G. Paran,  
 Alexander C. Paul,  Suranjan K. Paul,  F. Pavosevic,  Zheng Pei,  S. Prager,  
 E. I. Proynov,  E. Ramos,  B. Rana,  A. E. Rask,  A. Rettig,  R. M. Richard,  
 F. Rob,  E. Rossomme,  T. Scheele,  M. Scheurer,  M. Schneider,  
 N. Sergueev,  S. M. Sharada,  W. Skomorowski,  D. W. Small,  C. J. Stein,  
 Yu-Chuan Su,  E. J. Sundstrom,  Zhen Tao,  J. Thirman,  T. Tsuchimochi,  
 N. M. Tubman,  S. P. Veccham,  O. Vydrov,  J. Wenzel,  J. Witte,  A. Yamada,  
 Kun Yao,  S. Yeganeh,  S. R. Yost,  A. Zech,  Igor Ying Zhang,  Xing Zhang,  
 Yu Zhang,  D. Zuev,  A. Aspuru-Guzik,  A. T. Bell,  N. A. Besley,  
 K. B. Bravaya,  B. R. Brooks,  D. Casanova,  Jeng-Da Chai,  S. Coriani,  
 C. J. Cramer,  A. E. DePrince, III,  R. A. DiStasio Jr.,  A. Dreuw,  
 B. D. Dunietz,  T. R. Furlani,  W. A. Goddard III,  S. Grimme,  
 S. Hammes-Schiffer,  T. Head-Gordon,  W. J. Hehre,  Chao-Ping Hsu,  
 T.-C. Jagau,  Yousung Jung,  A. Klamt,  Jing Kong,  D. S. Lambrecht,  
 WanZhen Liang,  N. J. Mayhall,  C. W. McCurdy,  J. B. Neaton,  T. Neudecker,  
 C. Ochsenfeld,  J. A. Parkhill,  R. Peverati,  V. A. Rassolov,  Yihan Shao,  
 L. V. Slipchenko,  R. P. Steele,  J. E. Subotnik,  A. J. W. Thom,  
 A. Tkatchenko,  D. G. Truhlar,  T. Van Voorhis,  T. A. Wesolowski,  
 K. B. Whaley,  H. L. Woodcock III,  P. M. Zimmerman,  S. Faraji,  
 P. M. W. Gill,  M. Head-Gordon,  J. M. Herbert,  A. I. Krylov

 Additional authors since Version 5.4.0: 
 Chandrima Chakravarty,  L. Cunha,  R. Kang,  Yongbin Kim,  S. Kotaru,  
 Shaozhi Li,  Xiangyuan Li,  F. Matz,  A. Molle,  V. Parravicini,  
 Haisheng Ren,  Hengyuan Shen,  Yingli Su,  Hung-Yi Tsai,  C. Utku,  
 Fang Wang,  Jeff Yang,  F. Zeller

 Contributors to earlier versions of Q-Chem not listed above: 
 R. D. Adamson,  B. Austin,  R. Baer,  J. Baker,  G. J. O. Beran,  
 K. Brandhorst,  S. T. Brown,  E. F. C. Byrd,  Arup K. Chakraborty,  
 G. K. L. Chan,  Chun-Min Chang,  Yunqing Chen,  C.-L. Cheng,  
 Siu Hung Chien,  D. M. Chipman,  D. L. Crittenden,  H. Dachsel,  
 R. J. Doerksen,  A. D. Dutoi,  R. G. Edgar,  J. Fosso-Tande,  
 L. Fusti-Molnar,  D. Ghosh,  A. Ghysels,  A. Golubeva-Zadorozhnaya,  
 J. Gonthier,  M. S. Gordon,  S. R. Gwaltney,  G. Hawkins,  J. E. Herr,  
 A. Heyden,  S. Hirata,  E. G. Hohenstein,  G. Kedziora,  F. J. Keil,  
 C. Kelley,  Jihan Kim,  R. A. King,  R. Z. Khaliullin,  P. P. Korambath,  
 W. Kurlancheek,  A. Laurent,  A. M. Lee,  M. S. Lee,  S. V. Levchenko,  
 Ching Yeh Lin,  D. Liotard,  E. Livshits,  R. C. Lochan,  I. Lotan,  
 L. A. Martinez-Martinez,  P. E. Maslen,  N. Nair,  D. P. O'Neill,  
 D. Neuhauser,  E. Neuscamman,  C. M. Oana,  R. Olivares-Amaya,  R. Olson,  
 T. M. Perrine,  B. Peters,  P. A. Pieniazek,  A. Prociuk,  Y. M. Rhee,  
 J. Ritchie,  M. A. Rohrdanz,  E. Rosta,  N. J. Russ,  H. F. Schaefer III,  
 M. W. Schmidt,  N. E. Schultz,  S. Sharma,  N. Shenvi,  C. D. Sherrill,  
 A. C. Simmonett,  A. Sodt,  T. Stein,  D. Stuck,  K. S. Thanthiriwatte,  
 V. Vanovschi,  L. Vogt,  Tao Wang,  A. Warshel,  M. A. Watson,  
 C. F. Williams,  Q. Wu,  X. Xu,  Jun Yang,  W. Zhang,  Yan Zhao

   Please cite Q-Chem as follows:
  "Software for the frontiers of quantum chemistry:
   An overview of developments in the Q-Chem 5 package"
   J. Chem. Phys. 155, 084801 (2021)
   https://doi.org/10.1063/5.0055522 (open access)

 Q-Chem 5.4.2 for Intel X86 EM64T Linux

 Parts of Q-Chem use Armadillo 9.900.5 (Nocturnal Misbehaviour).
 http://arma.sourceforge.net/

 Q-Chem begins on Fri Jan 12 02:03:32 2024  

 Host: 
0

     Scratch files written to /scratch/qchem808019//
 Dec1321 |scratch|qcdevops|jenkins|workspace|build_RNUM 5684   
 Processing $rem in /home/kchung25/qchem/5.4.0/config/preferences:
 Processing $rem in /home/kchung25/.qchemrc:

 Q-Chem warning in module libgen/rem_setup.C, line 3079:

 Neither GIA nor STOLL is specified by user. Use STOLL as the default


 Checking the input file for inconsistencies... 	...done.

--------------------------------------------------------------
User input:
--------------------------------------------------------------
$molecule
1 1
--
1 1
K      0.000000     0.000000     0.000000
--
0 1
O     -1.624696     1.170589    -1.773297
H     -2.481887     0.884131    -1.505250
H     -1.740444     1.131366    -2.691646
O      1.825084     2.002345    -0.856271
H      2.736729     1.760906    -0.931498
H      1.835268     2.896585    -0.440370
O      2.864344    -0.844859     0.005723
H      2.698983    -1.133793    -0.900163
H      3.529909    -0.153569    -0.092673
O      0.154222    -1.854253     2.188230
H      0.676628    -2.434760     1.536156
H      0.442297    -1.788222     3.119830
O     -1.619276     1.879651     1.526773
H     -1.466252     1.473301     2.383724
H     -2.509648     2.026489     1.441369
O     -0.827346    -1.993974    -1.708939
H     -1.116939    -1.685994    -2.556826
H     -1.616419    -2.415908    -1.284760
$end

$rem
JOBTYPE          eda
EDA2             1
METHOD           wB97M-V
BASIS            def2-TZVPPD
SYMMETRY         false
MEM_TOTAL        50000
MEM_STATIC       10000
THRESH           14
SCF_CONVERGENCE  8
XC_GRID          000099000590
NL_GRID          1
EDA_CLS_DISP     true
FD_MAT_VEC_PROD  FALSE
$end
--------------------------------------------------------------
 ----------------------------------------------------------------
             Standard Nuclear Orientation (Angstroms)
    I     Atom           X                Y                Z
 ----------------------------------------------------------------
    1      K      -0.0255782365    -0.1172025801     0.0572859254
    2      O      -2.3969544898     0.3274904276    -1.0974091615
    3      H      -2.8430284451    -0.4976236831    -1.0031302075
    4      H      -2.6873458205     0.5517505937    -1.9481036907
    5      O       0.0628638866     2.7196539209     0.1912273867
    6      H       0.8986974782     3.1391444273     0.0481944521
    7      H      -0.3375850222     3.2085887873     0.9484102584
    8      O       2.7081104450     1.0549002524    -0.2099352854
    9      H       2.5238282087     1.0684776426    -1.1572009680
   10      H       2.8141454127     1.9867633395     0.0157374394
   11      O       1.6791439489    -2.0967863455     1.2512539035
   12      H       2.2626866801    -1.9530506685     0.4303307381
   13      H       2.0929383029    -2.2004581754     2.1306015269
   14      O      -1.9994166393    -0.3321876970     2.1889335976
   15      H      -1.4409937879    -0.8252644593     2.7955149268
   16      H      -2.8034783511    -0.7485410966     2.1470749043
   17      O       0.0461492149    -1.4290540554    -2.3623849410
   18      H      -0.5614585496    -1.0926864819    -3.0068209819
   19      H      -0.2315905442    -2.3623832280    -2.1825249803
 ----------------------------------------------------------------
 Molecular Point Group                 C1    NOp =  1
 Largest Abelian Subgroup              C1    NOp =  1
 Nuclear Repulsion Energy =         447.04268130 hartrees
 There are       39 alpha and       39 beta electrons
 Requested basis set is def2-TZVPPD
 There are 182 shells and 480 basis functions

 Q-Chem warning in module libmdc/get_mega.C, line 171:

 Allowed MEM_STATIC has been capped at MEM_STATIC=8191.
 Reduce the value of MEM_STATIC to silence this warning.


 Total QAlloc Memory Limit  50000 MB
 Mega-Array Size      8007 MB
 MEM_STATIC part      8191 MB
 A cutoff of  1.0D-14 yielded  13791 shell pairs
 There are     92679 function pairs (    111524 Cartesian)
 Smallest overlap matrix eigenvalue = 5.71E-05

 Scale SEOQF with 1.000000e-01/1.000000e-01/1.000000e-01

 Standard Electronic Orientation quadrupole field applied
 Nucleus-field energy     =     0.0000000038 hartrees

 -----------------------------------------------------------------------
  General SCF calculation program by
  Eric Jon Sundstrom, Paul Horn, Yuezhi Mao, Dmitri Zuev, Alec White,
  David Stuck, Shaama M.S., Shane Yost, Joonho Lee, David Small,
  Daniel Levine, Susi Lehtola, Hugh Burton, Evgeny Epifanovsky,
  Bang C. Huynh
 -----------------------------------------------------------------------
================================================================
                 ALMO-EDA with the EDA2 driver                  
================================================================
 The second-generation ALMO-EDA (for DFT):                      
 P. R. Horn, Y. Mao and M. Head-Gordon, PCCP, 18, 23067 (2016)  
 Y. Mao et al. Annu. Rev. Phys. Chem. 72, 641 (2021)            
 Decomposition of the frozen energy:                            
 P. R. Horn, Y. Mao and M. Head-Gordon, JCP, 144, 114107 (2016) 
 FERF model for polarization:                                   
 P. R. Horn and M. Head-Gordon, JCP, 143, 114111 (2015)         
================================================================
 Using eda2 option set 1
 Option set summary: Frozen orbital wavefunction, initial wavefunction decomposition, and nDQ polarization.
--------------------------------
Printing EDA Options
--------------------------------
eda_child_super_basis      0
fragmo_guess_mode          0
child_mp                   1
child_mp_orders            232
cls_elec                   1
cls_disp                   1
scfmi_mode                 1
scfmi_occs                 0
scfmi_virts                0
frz_relax                  0
frz_relax_method           0
dc_pen_start               0
dc_pen_conv                0
dc_pen_increment           0
dc_pen_steps               0
dc_pen_thresh_factor       0
dc_pen_pre_newton_thresh   0
frz_ortho_decomp           1
frz_ortho_decomp_conv      6
plot_mo_ortho_frz          0
frgm_method                2
scfmi_freeze_ss            0
separate_rehyb             0
plot_diff_den              0
eda_nocv                   0
eda_vct_relax              1
disp_free_x                0
disp_free_c                0
eda_bsse                   0
eda_pct_a                  0
eda_covp                   0
--------------------------------
Attempting to make child job directory: /scratch/qchem808019//Frg1/
Attempting to make child job directory: /scratch/qchem808019//Frg2/
Creating input file /scratch/qchem808019/Frg1.input
using default PutDataFrgm: nothing
calling putenv with: QCSCRATCH=/scratch/qchem808019/ 
Spawning Job For Fragment 0
Done Job For Fragment 0
calling putenv with: QCSCRATCH=/scratch 
calling putenv with: QCTHREADS=6 
Creating input file /scratch/qchem808019/Frg2.input
using default PutDataFrgm: nothing
calling putenv with: QCSCRATCH=/scratch/qchem808019/ 
Spawning Job For Fragment 1
Done Job For Fragment 1
calling putenv with: QCSCRATCH=/scratch 
calling putenv with: QCTHREADS=6 
Doing General SCFMI
 Exchange:     0.1500 Hartree-Fock + 1.0000 wB97M-V + LR-HF
 Correlation:  1.0000 wB97M-V
 Using Euler-Maclaurin-Lebedev (99,590) quadrature formula
 Nonlocal Correlation:  VV10 with C = 0.0100 and b = 6.00 and scale = 1.00000
 Grid used for NLC:  SG-1 standard quadrature
performing fock build before subrot guess so that all methods have access
Printing subrot_rss_gen Method Specification:
Occupied Subspace Method is 0
Virtual Subspace Method is 0
Energy of the unrelaxed supersystem initial determinant -1058.395000683781
write pseudocanon occs and virts to disk
write pseudocanon orbital energies to disk
Tolerance of ortho_decomp_scf: 1.00e-06
GDM subspace size: 20
Beginning the Orthogonal Decomposition of the Initial Supersystem Wavefunction
    1   -1058.2109062916      2.30e-01     ortho_decomp Preconditoned Steepest Descent
    2   -1058.2399225661      2.19e-03     ortho_decomp BFGS Step
    3   -1058.2399355100      9.37e-05     ortho_decomp BFGS Step
    4   -1058.2399355397      3.76e-06     ortho_decomp BFGS Step
    5   -1058.2399355397      6.89e-08     ortho_decomp 00000 Convergence criterion met
 Hartree-Fock
 Hartree-Fock
 Hartree-Fock
 Exchange:     0.1500 Hartree-Fock + 1.0000 wB97M-V + LR-HF
 Correlation:  1.0000 wB97M-V
 Using Euler-Maclaurin-Lebedev (99,590) quadrature formula
 Nonlocal Correlation:  VV10 with C = 0.0100 and b = 6.00 and scale = 1.00000
 Grid used for NLC:  SG-1 standard quadrature
 Long-range K will be added via erf
 Coulomb attenuation parameter = 0.3 bohr**(-1)
 Nonlocal correlation = 3.252206140342e-01
Doing General SCFMI
 Exchange:     0.1500 Hartree-Fock + 1.0000 wB97M-V + LR-HF
 Correlation:  1.0000 wB97M-V
 Using Euler-Maclaurin-Lebedev (99,590) quadrature formula
 Nonlocal Correlation:  VV10 with C = 0.0100 and b = 6.00 and scale = 1.00000
 Grid used for NLC:  SG-1 standard quadrature
performing fock build at end of subrot_r(subrot) constructor so that all methods have access
<S^2> of initial wavefunction before polarization iterations 0.0000000000
Beginning iterations for the determination of the polarized wavefunction
Energy prior to optimization (guess energy) = -1058.395000683780
Begin Timing: Total SCF Calculation
begin iterations for algorithm: DIIS         
the SCF tolerance is set to 1.00e-08
    1   -1058.3950006838      6.23e-04     00000 
    2   -1058.4192858779      2.49e-04     00000 
    3   -1058.4210115757      1.15e-04     00000 
    4   -1058.4214054315      3.61e-05     00000 
    5   -1058.4214854307      1.03e-05     00000 
    6   -1058.4214996105      3.33e-06     00000 
    7   -1058.4215008845      2.06e-06     00000 
    8   -1058.4215011401      4.57e-07     00000 
    9   -1058.4215011601      1.39e-07     00000 
   10   -1058.4215011620      3.35e-08     00000 
   11   -1058.4215011620      2.08e-08     00000 
   12   -1058.4215011621      4.93e-09     00000 Convergence criterion met
write pseudocanon occs and virts to disk
write pseudocanon orbital energies to disk
Timing for Total SCF: 277.00s (wall), 1663.50s (cpu)
<S^2> of polarized wavefunction after polarization iterations 0.0000000000
relaxing scfmi constraint to allow all rotations in the entire AO span
Doing General SCFMI
 Exchange:     0.1500 Hartree-Fock + 1.0000 wB97M-V + LR-HF
 Correlation:  1.0000 wB97M-V
 Using Euler-Maclaurin-Lebedev (99,590) quadrature formula
 Nonlocal Correlation:  VV10 with C = 0.0100 and b = 6.00 and scale = 1.00000
 Grid used for NLC:  SG-1 standard quadrature
performing fock build at end of subrot_r(subrot) constructor so that all methods have access
<S^2> of polarized wavefunction before ct-allowed iterations 0.0000000000
Beginning iterations for the determination of the CT-Allowed wavefunction
Energy prior to optimization (guess energy) = -1058.421501162058
Begin Timing: Total SCF Calculation
begin iterations for algorithm: DIIS         
the SCF tolerance is set to 1.00e-08
    1   -1058.4215011621      2.28e-04     00000 
    2   -1058.4248312768      1.84e-05     00000 
    3   -1058.4249151124      3.90e-06     00000 
    4   -1058.4249171256      3.42e-06     00000 
    5   -1058.4249179711      2.08e-07     00000 
    6   -1058.4249179770      5.86e-08     00000 
    7   -1058.4249179775      2.58e-08     00000 
    8   -1058.4249179775      5.53e-09     00000 Convergence criterion met
write pseudocanon occs and virts to disk
write pseudocanon orbital energies to disk
Timing for Total SCF: 174.00s (wall), 1042.19s (cpu)
<S^2> of ct_allowed wavefunction after ct-allowed iterations 0.0000000000

================================
        Results of EDA2         
================================
Basic EDA Quantities
--------------------
Fragment Energies (Ha):
1 -599.7243958034
2 -458.5915654393
--------------------
  E_prp (kJ/mol) = 0.0000
  E_frz (kJ/mol) = -207.5205
  E_pol (kJ/mol) = -69.5778
  E_vct (kJ/mol) = -8.9710
  E_int (kJ/mol) = -286.0693
--------------------


Decomposition of frozen interaction energy
--------------------
  --------------------
  Orthogonal Frozen Decomposition:
  --------------------
     E_elec   (ELEC)   (kJ/mol) = -344.5846
     E_pauli  (PAULI)  (kJ/mol) = 166.2430
     E_disp   (DISP)   (kJ/mol) = -29.1789
  --------------------
  Classical Frozen Decomposition:
  --------------------
     E_cls_elec  (CLS ELEC)  (kJ/mol) = -281.6893
     E_mod_pauli (MOD PAULI) (kJ/mol) = 100.1651 (FRZ - CLS ELEC - CLS DISP)
     E_cls_disp  (CLS DISP)  (kJ/mol) = -25.9963
  --------------------
--------------------

Simplified EDA Summary (kJ/mol)
--------------------
 PREPARATION      0.0000
 FROZEN           -207.5205 (ELEC + PAULI + DISP)
[ELEC + PAULI = -181.5242, DISP = -25.9963]
 POLARIZATION    -69.5778
 CHARGE TRANSFER -8.9710
 TOTAL           -286.0693     (PRP + FRZ + POL + CT)
--------------------
 
 --------------------------------------------------------------
 
                    Orbital Energies (a.u.)
 --------------------------------------------------------------
 
 Alpha MOs
 -- Occupied --
******** -19.4871 -19.4796 -19.4789 -19.4744 -19.4701 -19.4675 -13.4872
-10.7656 -10.7654 -10.7652  -1.5857  -1.3052  -1.2894  -1.2890  -1.2838
 -1.2772  -1.2538  -0.9369  -0.9360  -0.9353  -0.7946  -0.7908  -0.7857
 -0.7844  -0.7817  -0.7734  -0.6681  -0.6555  -0.6480  -0.6449  -0.6387
 -0.6122  -0.5903  -0.5769  -0.5690  -0.5674  -0.5596  -0.5577
 -- Virtual --
 -0.1184  -0.0986  -0.0909  -0.0840  -0.0550  -0.0522  -0.0458  -0.0390
 -0.0329  -0.0195  -0.0144  -0.0105  -0.0074  -0.0059  -0.0056   0.0026
  0.0033   0.0087   0.0090   0.0134   0.0347   0.0372   0.0421   0.0482
  0.0517   0.0522   0.0566   0.0627   0.0640   0.0757   0.0836   0.0881
  0.0942   0.1007   0.1057   0.1129   0.1215   0.1294   0.1339   0.1431
  0.1490   0.1555   0.1579   0.1620   0.1772   0.1782   0.1810   0.1846
  0.1870   0.1953   0.1977   0.2025   0.2067   0.2097   0.2168   0.2190
  0.2256   0.2300   0.2344   0.2372   0.2404   0.2431   0.2485   0.2537
  0.2537   0.2572   0.2604   0.2648   0.2666   0.2702   0.2757   0.2795
  0.2818   0.2913   0.2953   0.3012   0.3039   0.3060   0.3111   0.3114
  0.3173   0.3195   0.3288   0.3352   0.3406   0.3445   0.3577   0.3634
  0.3650   0.3692   0.3746   0.3825   0.3896   0.3927   0.4045   0.4075
  0.4225   0.4292   0.4369   0.4383   0.4489   0.4590   0.4775   0.4837
  0.4887   0.5021   0.5030   0.5072   0.5190   0.5266   0.5317   0.5497
  0.5553   0.5670   0.5706   0.5780   0.5876   0.5958   0.6066   0.6303
  0.6378   0.6383   0.6494   0.6623   0.6807   0.6881   0.6956   0.7054
  0.7088   0.7244   0.7306   0.7386   0.7535   0.7608   0.7705   0.7778
  0.7846   0.7932   0.8002   0.8041   0.8121   0.8348   0.8443   0.8534
  0.8580   0.8737   0.8953   0.8983   0.9123   0.9195   0.9367   0.9493
  0.9733   0.9852   0.9915   1.0045   1.0102   1.0247   1.0331   1.0395
  1.0517   1.0631   1.0672   1.0763   1.0888   1.1072   1.1106   1.1143
  1.1282   1.1327   1.1385   1.1393   1.1630   1.1687   1.1787   1.1827
  1.1932   1.2057   1.2202   1.2224   1.2388   1.2537   1.2834   1.2884
  1.2966   1.3039   1.3099   1.3225   1.3402   1.3520   1.3591   1.3645
  1.3808   1.3972   1.4053   1.4255   1.4436   1.4538   1.5029   1.5146
  1.5817   1.8415   1.8468   1.8583   1.8640   1.8700   1.8839   1.8869
  1.8902   1.9019   1.9058   1.9125   1.9219   1.9344   1.9739   1.9814
  2.0011   2.0191   2.0314   2.0615   2.0844   2.1027   2.1198   2.1415
  2.1550   2.1686   2.1829   2.1916   2.2068   2.2271   2.2410   2.5152
  2.5248   2.5402   2.5575   2.5752   2.6649   2.6760   2.6970   2.7257
  2.7431   2.7594   2.7752   2.8053   2.8383   2.8791   2.9023   2.9383
  2.9581   3.0201   3.0423   3.0672   3.0864   3.0972   3.1060   3.1219
  3.1365   3.1420   3.1488   3.1572   3.1643   3.1753   3.1871   3.1917
  3.2011   3.2086   3.2167   3.2462   3.2658   3.2724   3.2888   3.2990
  3.3053   3.3255   3.3323   3.3406   3.3443   3.3512   3.3571   3.3622
  3.3709   3.3771   3.3887   3.3930   3.4080   3.4149   3.4283   3.4516
  3.4558   3.4710   3.4984   3.5619   3.5727   3.5768   3.6071   3.6265
  3.6609   3.7785   3.7926   3.8016   3.8204   3.8420   3.8585   3.8729
  3.8885   3.8903   3.9032   3.9150   3.9248   3.9449   3.9532   3.9581
  3.9740   3.9909   3.9969   4.0062   4.0177   4.0217   4.0290   4.0369
  4.0508   4.0566   4.0643   4.0671   4.0830   4.0846   4.1063   4.1239
  4.1308   4.1316   4.1418   4.1496   4.1602   4.1707   4.1842   4.1856
  4.2029   4.2321   4.2469   4.5126   4.5868   4.6015   4.6141   4.6405
  4.6586   4.6642   4.6659   4.6695   4.6966   4.7356   4.8111   4.8525
  4.8616   4.8971   4.9137   4.9166   4.9537   5.0089   5.0902   5.0988
  5.1274   5.2045   5.2590   5.3986   5.5445   5.5712   5.5749   5.6221
  5.6322   5.6973   6.0822   6.1324   6.1585   6.1900   6.3084   6.3425
  6.3777   6.3870   6.4019   6.4536   6.4579   6.4694   6.4723   6.4847
  6.4960   6.4985   6.5154   6.5199   6.5212   6.5451   6.5482   6.5494
  6.5537   6.5560   6.5640   6.5781   6.5924   6.6008   6.6164   6.6437
  6.6563   6.6593   6.6915   6.6950   6.7432   6.7481   6.7590   6.7734
  6.8231   6.8283   6.8383   6.9266   6.9351   6.9431   6.9560   7.0096
  7.0138   7.0685   7.3183   7.3678   7.3870   7.4227   7.4591   7.4626
  7.4981   7.5010   7.5482   7.5807   7.6887   7.7055   7.7213   7.7578
  7.7699   7.7865   7.8774  44.1660  44.2162  44.2328  44.2652  44.3421
 44.3518
 --------------------------------------------------------------
 
          Ground-State Mulliken Net Atomic Charges

     Atom                 Charge (a.u.)
  ----------------------------------------
      1 K                     0.932859
      2 O                    -0.219364
      3 H                     0.147592
      4 H                     0.070391
      5 O                    -0.319852
      6 H                     0.139123
      7 H                     0.187215
      8 O                    -0.319371
      9 H                     0.201803
     10 H                     0.148075
     11 O                    -0.433417
     12 H                     0.260235
     13 H                     0.182152
     14 O                    -0.279006
     15 H                     0.194652
     16 H                     0.098354
     17 O                    -0.354550
     18 H                     0.147423
     19 H                     0.215687
  ----------------------------------------
  Sum of atomic charges =     1.000000

 -----------------------------------------------------------------
                    Cartesian Multipole Moments
 -----------------------------------------------------------------
    Charge (ESU x 10^10)
                 4.8032
    Dipole Moment (Debye)
         X      -1.0770      Y      -0.6856      Z      -0.8616
       Tot       1.5403
    Quadrupole Moments (Debye-Ang)
        XX     -28.8150     XY      10.7630     YY     -27.8978
        XZ       5.8225     YZ       0.0573     ZZ     -27.2072
    Octopole Moments (Debye-Ang^2)
       XXX     -30.1051    XXY     -12.4795    XYY      21.0063
       YYY      38.4050    XXZ      -5.2902    XYZ      -8.1263
       YYZ       8.7641    XZZ     -21.1145    YZZ     -22.6619
       ZZZ      -0.7400
    Hexadecapole Moments (Debye-Ang^3)
      XXXX    -691.6549   XXXY      51.4109   XXYY    -163.3389
      XYYY      61.2163   YYYY    -481.9886   XXXZ      25.7955
      XXYZ     -47.5227   XYYZ      11.5026   YYYZ      76.8575
      XXZZ    -140.3965   XYZZ      13.2373   YYZZ    -141.7867
      XZZZ      67.7352   YZZZ     -48.8084   ZZZZ    -407.8669
 -----------------------------------------------------------------
 Total job time:  2394.04s(wall), 5240.39s(cpu) 
 Fri Jan 12 02:43:26 2024

        *************************************************************
        *                                                           *
        *  Thank you very much for using Q-Chem.  Have a nice day.  *
        *                                                           *
        *************************************************************


