
Running Job 1 of 1 120_K-Water_Cls_032_almo.in
qchem 120_K-Water_Cls_032_almo.in_842633.0 /scratch/qchem842633/ 6
/home/kchung25/qchem/5.4.0/exe/qcprog.exe_s 120_K-Water_Cls_032_almo.in_842633.0 /scratch/qchem842633/
                  Welcome to Q-Chem
     A Quantum Leap Into The Future Of Chemistry


 Q-Chem 5.4, Q-Chem, Inc., Pleasanton, CA (2021)

 E. Epifanovsky,  A. T. B. Gilbert,  Xintian Feng,  Joonho Lee,  Yuezhi Mao,  
 N. Mardirossian,  P. Pokhilko,  A. White,  M. Wormit,  M. P. Coons,  
 A. L. Dempwolff,  Zhengting Gan,  D. Hait,  P. R. Horn,  L. D. Jacobson,  
 I. Kaliman,  J. Kussmann,  A. W. Lange,  Ka Un Lao,  D. S. Levine,  Jie Liu,  
 S. C. McKenzie,  A. F. Morrison,  K. Nanda,  F. Plasser,  D. R. Rehn,  
 M. L. Vidal,  Zhi-Qiang You,  Ying Zhu,  B. Alam,  B. Albrecht,  
 A. Aldossary,  E. Alguire,  J. H. Andersen,  D. Barton,  K. Begam,  A. Behn,  
 Y. A. Bernard,  E. J. Berquist,  H. Burton,  A. Carreras,  K. Carter-Fenk,  
 Romit Chakraborty,  A. D. Chien,  K. D. Closser,  V. Cofer-Shabica,  
 S. Dasgupta,  Jia Deng,  M. de Wergifosse,  M. Diedenhofen,  Hainam Do,  
 S. Ehlert,  Po-Tung Fang,  S. Fatehi,  Qingguo Feng,  T. Friedhoff,  
 J. Gayvert,  Qinghui Ge,  G. Gidofalvi,  M. Goldey,  J. Gomes,  
 C. Gonzalez-Espinoza,  S. Gulania,  A. Gunina,  M. W. D. Hanson-Heine,  
 P. H. P. Harbach,  A. W. Hauser,  M. F. Herbst,  M. Hernandez Vera,  
 M. Hodecker,  Z. C. Holden,  S. Houck,  Xunkun Huang,  Kerwin Hui,  
 B. C. Huynh,  M. Ivanov,  Hyunjun Ji,  Hanjie Jiang,  B. Kaduk,  S. Kaehler,  
 K. Khistyaev,  Jaehoon Kim,  P. Klunzinger,  Z. Koczor-Benda,  
 Joong Hoon Koh,  D. Kosenkov,  L. Koulias,  T. Kowalczyk,  C. M. Krauter,  
 K. Kue,  A. Kunitsa,  T. Kus,  A. Landau,  K. V. Lawler,  D. Lefrancois,  
 S. Lehtola,  Rain Li,  Yi-Pei Li,  Jiashu Liang,  M. Liebenthal,  
 Hung-Hsuan Lin,  You-Sheng Lin,  Fenglai Liu,  Kuan-Yu Liu,  
 M. Loipersberger,  A. Luenser,  A. Manjanath,  P. Manohar,  E. Mansoor,  
 S. F. Manzer,  Shan-Ping Mao,  A. V. Marenich,  T. Markovich,  S. Mason,  
 S. A. Maurer,  P. F. McLaughlin,  M. F. S. J. Menger,  J.-M. Mewes,  
 S. A. Mewes,  P. Morgante,  J. W. Mullinax,  K. J. Oosterbaan,  G. Paran,  
 Alexander C. Paul,  Suranjan K. Paul,  F. Pavosevic,  Zheng Pei,  S. Prager,  
 E. I. Proynov,  E. Ramos,  B. Rana,  A. E. Rask,  A. Rettig,  R. M. Richard,  
 F. Rob,  E. Rossomme,  T. Scheele,  M. Scheurer,  M. Schneider,  
 N. Sergueev,  S. M. Sharada,  W. Skomorowski,  D. W. Small,  C. J. Stein,  
 Yu-Chuan Su,  E. J. Sundstrom,  Zhen Tao,  J. Thirman,  T. Tsuchimochi,  
 N. M. Tubman,  S. P. Veccham,  O. Vydrov,  J. Wenzel,  J. Witte,  A. Yamada,  
 Kun Yao,  S. Yeganeh,  S. R. Yost,  A. Zech,  Igor Ying Zhang,  Xing Zhang,  
 Yu Zhang,  D. Zuev,  A. Aspuru-Guzik,  A. T. Bell,  N. A. Besley,  
 K. B. Bravaya,  B. R. Brooks,  D. Casanova,  Jeng-Da Chai,  S. Coriani,  
 C. J. Cramer,  A. E. DePrince, III,  R. A. DiStasio Jr.,  A. Dreuw,  
 B. D. Dunietz,  T. R. Furlani,  W. A. Goddard III,  S. Grimme,  
 S. Hammes-Schiffer,  T. Head-Gordon,  W. J. Hehre,  Chao-Ping Hsu,  
 T.-C. Jagau,  Yousung Jung,  A. Klamt,  Jing Kong,  D. S. Lambrecht,  
 WanZhen Liang,  N. J. Mayhall,  C. W. McCurdy,  J. B. Neaton,  T. Neudecker,  
 C. Ochsenfeld,  J. A. Parkhill,  R. Peverati,  V. A. Rassolov,  Yihan Shao,  
 L. V. Slipchenko,  R. P. Steele,  J. E. Subotnik,  A. J. W. Thom,  
 A. Tkatchenko,  D. G. Truhlar,  T. Van Voorhis,  T. A. Wesolowski,  
 K. B. Whaley,  H. L. Woodcock III,  P. M. Zimmerman,  S. Faraji,  
 P. M. W. Gill,  M. Head-Gordon,  J. M. Herbert,  A. I. Krylov

 Additional authors since Version 5.4.0: 
 Chandrima Chakravarty,  L. Cunha,  R. Kang,  Yongbin Kim,  S. Kotaru,  
 Shaozhi Li,  Xiangyuan Li,  F. Matz,  A. Molle,  V. Parravicini,  
 Haisheng Ren,  Hengyuan Shen,  Yingli Su,  Hung-Yi Tsai,  C. Utku,  
 Fang Wang,  Jeff Yang,  F. Zeller

 Contributors to earlier versions of Q-Chem not listed above: 
 R. D. Adamson,  B. Austin,  R. Baer,  J. Baker,  G. J. O. Beran,  
 K. Brandhorst,  S. T. Brown,  E. F. C. Byrd,  Arup K. Chakraborty,  
 G. K. L. Chan,  Chun-Min Chang,  Yunqing Chen,  C.-L. Cheng,  
 Siu Hung Chien,  D. M. Chipman,  D. L. Crittenden,  H. Dachsel,  
 R. J. Doerksen,  A. D. Dutoi,  R. G. Edgar,  J. Fosso-Tande,  
 L. Fusti-Molnar,  D. Ghosh,  A. Ghysels,  A. Golubeva-Zadorozhnaya,  
 J. Gonthier,  M. S. Gordon,  S. R. Gwaltney,  G. Hawkins,  J. E. Herr,  
 A. Heyden,  S. Hirata,  E. G. Hohenstein,  G. Kedziora,  F. J. Keil,  
 C. Kelley,  Jihan Kim,  R. A. King,  R. Z. Khaliullin,  P. P. Korambath,  
 W. Kurlancheek,  A. Laurent,  A. M. Lee,  M. S. Lee,  S. V. Levchenko,  
 Ching Yeh Lin,  D. Liotard,  E. Livshits,  R. C. Lochan,  I. Lotan,  
 L. A. Martinez-Martinez,  P. E. Maslen,  N. Nair,  D. P. O'Neill,  
 D. Neuhauser,  E. Neuscamman,  C. M. Oana,  R. Olivares-Amaya,  R. Olson,  
 T. M. Perrine,  B. Peters,  P. A. Pieniazek,  A. Prociuk,  Y. M. Rhee,  
 J. Ritchie,  M. A. Rohrdanz,  E. Rosta,  N. J. Russ,  H. F. Schaefer III,  
 M. W. Schmidt,  N. E. Schultz,  S. Sharma,  N. Shenvi,  C. D. Sherrill,  
 A. C. Simmonett,  A. Sodt,  T. Stein,  D. Stuck,  K. S. Thanthiriwatte,  
 V. Vanovschi,  L. Vogt,  Tao Wang,  A. Warshel,  M. A. Watson,  
 C. F. Williams,  Q. Wu,  X. Xu,  Jun Yang,  W. Zhang,  Yan Zhao

   Please cite Q-Chem as follows:
  "Software for the frontiers of quantum chemistry:
   An overview of developments in the Q-Chem 5 package"
   J. Chem. Phys. 155, 084801 (2021)
   https://doi.org/10.1063/5.0055522 (open access)

 Q-Chem 5.4.2 for Intel X86 EM64T Linux

 Parts of Q-Chem use Armadillo 9.900.5 (Nocturnal Misbehaviour).
 http://arma.sourceforge.net/

 Q-Chem begins on Fri Jan 12 18:06:05 2024  

 Host: 
0

     Scratch files written to /scratch/qchem842633//
 Dec1321 |scratch|qcdevops|jenkins|workspace|build_RNUM 5684   
 Processing $rem in /home/kchung25/qchem/5.4.0/config/preferences:
 Processing $rem in /home/kchung25/.qchemrc:

 Q-Chem warning in module libgen/rem_setup.C, line 3079:

 Neither GIA nor STOLL is specified by user. Use STOLL as the default


 Checking the input file for inconsistencies... 	...done.

--------------------------------------------------------------
User input:
--------------------------------------------------------------
$molecule
1 1
--
1 1
K      0.000000     0.000000     0.000000
--
0 1
O     -1.350579    -0.451019    -2.184171
H     -0.828374    -0.405480    -2.959027
H     -2.295838    -0.182448    -2.477727
O      0.811714    -2.953770    -0.024877
H      0.491865    -3.516386     0.715024
H      1.703134    -3.259401    -0.070729
O      1.439502    -0.931900     2.390588
H      1.923833    -1.620427     2.861863
H      0.879775    -0.561656     3.062076
O      2.556752     0.575285    -0.926306
H      2.963771     0.049734    -0.227753
H      2.591393     1.523133    -0.691197
O     -1.229385     2.374053     0.624562
H     -0.903017     3.116669     1.152358
H     -2.153941     2.270777     0.923160
O     -1.464224    -0.338413     2.131283
H     -1.017152    -0.390138     2.970331
H     -2.307745     0.086032     2.373066
$end

$rem
JOBTYPE          eda
EDA2             1
METHOD           wB97M-V
BASIS            def2-TZVPPD
SYMMETRY         false
MEM_TOTAL        50000
MEM_STATIC       10000
THRESH           14
SCF_CONVERGENCE  8
XC_GRID          000099000590
NL_GRID          1
EDA_CLS_DISP     true
FD_MAT_VEC_PROD  FALSE
$end
--------------------------------------------------------------
 ----------------------------------------------------------------
             Standard Nuclear Orientation (Angstroms)
    I     Atom           X                Y                Z
 ----------------------------------------------------------------
    1      K       0.2597392225     0.2683495420    -0.0595816342
    2      O       1.1430073468     2.2722648415     1.3554256534
    3      H       0.9458738322     3.1063291654     0.9803939691
    4      H       2.0086646999     2.4116367932     1.8874340090
    5      O      -2.4465149977     0.6240657436     1.3310692116
    6      H      -2.7584318814    -0.1091782390     1.9067034321
    7      H      -3.2537295762     0.8152079256     0.8816121825
    8      O      -1.7303944521    -1.8246232926    -0.6202484467
    9      H      -2.6267221484    -2.1720877226    -0.5389391386
   10      H      -1.1872451875    -2.5926064433    -0.4919448036
   11      O      -0.8697349738     1.4939103241    -2.2840512868
   12      H      -1.6286177867     0.8992139584    -2.2673862755
   13      H      -0.2298878053     1.1962348471    -2.9599780456
   14      O       2.7268494010    -0.6943818824    -0.7835349398
   15      H       2.9796588298    -1.2255896504    -1.5519546900
   16      H       3.2177373273    -1.1094099123    -0.0477283938
   17      O       0.6635350133    -2.0138400079     1.1359945134
   18      H       0.2060924668    -2.7768816502     0.7967834230
   19      H       1.4975833019    -2.4006761796     1.4598177416
 ----------------------------------------------------------------
 Molecular Point Group                 C1    NOp =  1
 Largest Abelian Subgroup              C1    NOp =  1
 Nuclear Repulsion Energy =         454.24178293 hartrees
 There are       39 alpha and       39 beta electrons
 Requested basis set is def2-TZVPPD
 There are 182 shells and 480 basis functions

 Q-Chem warning in module libmdc/get_mega.C, line 171:

 Allowed MEM_STATIC has been capped at MEM_STATIC=8191.
 Reduce the value of MEM_STATIC to silence this warning.


 Total QAlloc Memory Limit  50000 MB
 Mega-Array Size      8007 MB
 MEM_STATIC part      8191 MB
 A cutoff of  1.0D-14 yielded  13954 shell pairs
 There are     93928 function pairs (    113013 Cartesian)
 Smallest overlap matrix eigenvalue = 6.56E-05

 Scale SEOQF with 1.000000e-01/1.000000e-01/1.000000e-01

 Standard Electronic Orientation quadrupole field applied
 Nucleus-field energy     =     0.0000000072 hartrees

 -----------------------------------------------------------------------
  General SCF calculation program by
  Eric Jon Sundstrom, Paul Horn, Yuezhi Mao, Dmitri Zuev, Alec White,
  David Stuck, Shaama M.S., Shane Yost, Joonho Lee, David Small,
  Daniel Levine, Susi Lehtola, Hugh Burton, Evgeny Epifanovsky,
  Bang C. Huynh
 -----------------------------------------------------------------------
================================================================
                 ALMO-EDA with the EDA2 driver                  
================================================================
 The second-generation ALMO-EDA (for DFT):                      
 P. R. Horn, Y. Mao and M. Head-Gordon, PCCP, 18, 23067 (2016)  
 Y. Mao et al. Annu. Rev. Phys. Chem. 72, 641 (2021)            
 Decomposition of the frozen energy:                            
 P. R. Horn, Y. Mao and M. Head-Gordon, JCP, 144, 114107 (2016) 
 FERF model for polarization:                                   
 P. R. Horn and M. Head-Gordon, JCP, 143, 114111 (2015)         
================================================================
 Using eda2 option set 1
 Option set summary: Frozen orbital wavefunction, initial wavefunction decomposition, and nDQ polarization.
--------------------------------
Printing EDA Options
--------------------------------
eda_child_super_basis      0
fragmo_guess_mode          0
child_mp                   1
child_mp_orders            232
cls_elec                   1
cls_disp                   1
scfmi_mode                 1
scfmi_occs                 0
scfmi_virts                0
frz_relax                  0
frz_relax_method           0
dc_pen_start               0
dc_pen_conv                0
dc_pen_increment           0
dc_pen_steps               0
dc_pen_thresh_factor       0
dc_pen_pre_newton_thresh   0
frz_ortho_decomp           1
frz_ortho_decomp_conv      6
plot_mo_ortho_frz          0
frgm_method                2
scfmi_freeze_ss            0
separate_rehyb             0
plot_diff_den              0
eda_nocv                   0
eda_vct_relax              1
disp_free_x                0
disp_free_c                0
eda_bsse                   0
eda_pct_a                  0
eda_covp                   0
--------------------------------
Attempting to make child job directory: /scratch/qchem842633//Frg1/
Attempting to make child job directory: /scratch/qchem842633//Frg2/
Creating input file /scratch/qchem842633/Frg1.input
using default PutDataFrgm: nothing
calling putenv with: QCSCRATCH=/scratch/qchem842633/ 
Spawning Job For Fragment 0
Done Job For Fragment 0
calling putenv with: QCSCRATCH=/scratch 
calling putenv with: QCTHREADS=6 
Creating input file /scratch/qchem842633/Frg2.input
using default PutDataFrgm: nothing
calling putenv with: QCSCRATCH=/scratch/qchem842633/ 
Spawning Job For Fragment 1
Done Job For Fragment 1
calling putenv with: QCSCRATCH=/scratch 
calling putenv with: QCTHREADS=6 
Doing General SCFMI
 Exchange:     0.1500 Hartree-Fock + 1.0000 wB97M-V + LR-HF
 Correlation:  1.0000 wB97M-V
 Using Euler-Maclaurin-Lebedev (99,590) quadrature formula
 Nonlocal Correlation:  VV10 with C = 0.0100 and b = 6.00 and scale = 1.00000
 Grid used for NLC:  SG-1 standard quadrature
performing fock build before subrot guess so that all methods have access
Printing subrot_rss_gen Method Specification:
Occupied Subspace Method is 0
Virtual Subspace Method is 0
Energy of the unrelaxed supersystem initial determinant -1058.400815931242
write pseudocanon occs and virts to disk
write pseudocanon orbital energies to disk
Tolerance of ortho_decomp_scf: 1.00e-06
GDM subspace size: 20
Beginning the Orthogonal Decomposition of the Initial Supersystem Wavefunction
    1   -1058.1880097107      2.57e-01     ortho_decomp Preconditoned Steepest Descent
    2   -1058.2240158966      2.47e-03     ortho_decomp BFGS Step
    3   -1058.2240316199      1.03e-04     ortho_decomp BFGS Step
    4   -1058.2240316567      4.39e-06     ortho_decomp BFGS Step
    5   -1058.2240316567      8.33e-08     ortho_decomp 00000 Convergence criterion met
 Hartree-Fock
 Hartree-Fock
 Hartree-Fock
 Exchange:     0.1500 Hartree-Fock + 1.0000 wB97M-V + LR-HF
 Correlation:  1.0000 wB97M-V
 Using Euler-Maclaurin-Lebedev (99,590) quadrature formula
 Nonlocal Correlation:  VV10 with C = 0.0100 and b = 6.00 and scale = 1.00000
 Grid used for NLC:  SG-1 standard quadrature
 Long-range K will be added via erf
 Coulomb attenuation parameter = 0.3 bohr**(-1)
 Nonlocal correlation = 3.244924024188e-01
Doing General SCFMI
 Exchange:     0.1500 Hartree-Fock + 1.0000 wB97M-V + LR-HF
 Correlation:  1.0000 wB97M-V
 Using Euler-Maclaurin-Lebedev (99,590) quadrature formula
 Nonlocal Correlation:  VV10 with C = 0.0100 and b = 6.00 and scale = 1.00000
 Grid used for NLC:  SG-1 standard quadrature
performing fock build at end of subrot_r(subrot) constructor so that all methods have access
<S^2> of initial wavefunction before polarization iterations 0.0000000000
Beginning iterations for the determination of the polarized wavefunction
Energy prior to optimization (guess energy) = -1058.400815931241
Begin Timing: Total SCF Calculation
begin iterations for algorithm: DIIS         
the SCF tolerance is set to 1.00e-08
    1   -1058.4008159312      6.48e-04     00000 
    2   -1058.4257925679      3.01e-04     00000 
    3   -1058.4280749217      1.39e-04     00000 
    4   -1058.4286120750      3.39e-05     00000 
    5   -1058.4286895302      1.01e-05     00000 
    6   -1058.4287030529      3.15e-06     00000 
    7   -1058.4287044529      1.58e-06     00000 
    8   -1058.4287046218      5.97e-07     00000 
    9   -1058.4287046445      1.77e-07     00000 
   10   -1058.4287046470      2.91e-08     00000 
   11   -1058.4287046471      1.19e-08     00000 
   12   -1058.4287046471      6.49e-09     00000 Convergence criterion met
write pseudocanon occs and virts to disk
write pseudocanon orbital energies to disk
Timing for Total SCF: 283.00s (wall), 1695.80s (cpu)
<S^2> of polarized wavefunction after polarization iterations 0.0000000000
relaxing scfmi constraint to allow all rotations in the entire AO span
Doing General SCFMI
 Exchange:     0.1500 Hartree-Fock + 1.0000 wB97M-V + LR-HF
 Correlation:  1.0000 wB97M-V
 Using Euler-Maclaurin-Lebedev (99,590) quadrature formula
 Nonlocal Correlation:  VV10 with C = 0.0100 and b = 6.00 and scale = 1.00000
 Grid used for NLC:  SG-1 standard quadrature
performing fock build at end of subrot_r(subrot) constructor so that all methods have access
<S^2> of polarized wavefunction before ct-allowed iterations 0.0000000000
Beginning iterations for the determination of the CT-Allowed wavefunction
Energy prior to optimization (guess energy) = -1058.428704647134
Begin Timing: Total SCF Calculation
begin iterations for algorithm: DIIS         
the SCF tolerance is set to 1.00e-08
    1   -1058.4287046471      2.38e-04     00000 
    2   -1058.4325718426      2.03e-05     00000 
    3   -1058.4326692480      4.62e-06     00000 
    4   -1058.4326714148      4.19e-06     00000 
    5   -1058.4326726951      2.31e-07     00000 
    6   -1058.4326727025      5.58e-08     00000 
    7   -1058.4326727031      1.57e-08     00000 
    8   -1058.4326727031      8.59e-09     00000 Convergence criterion met
write pseudocanon occs and virts to disk
write pseudocanon orbital energies to disk
Timing for Total SCF: 178.00s (wall), 1065.41s (cpu)
<S^2> of ct_allowed wavefunction after ct-allowed iterations 0.0000000000

================================
        Results of EDA2         
================================
Basic EDA Quantities
--------------------
Fragment Energies (Ha):
1 -599.7243958034
2 -458.5910659021
--------------------
  E_prp (kJ/mol) = 0.0000
  E_frz (kJ/mol) = -224.1002
  E_pol (kJ/mol) = -73.2227
  E_vct (kJ/mol) = -10.4183
  E_int (kJ/mol) = -307.7411
--------------------


Decomposition of frozen interaction energy
--------------------
  --------------------
  Orthogonal Frozen Decomposition:
  --------------------
     E_elec   (ELEC)   (kJ/mol) = -393.5615
     E_pauli  (PAULI)  (kJ/mol) = 201.3208
     E_disp   (DISP)   (kJ/mol) = -31.8595
  --------------------
  Classical Frozen Decomposition:
  --------------------
     E_cls_elec  (CLS ELEC)  (kJ/mol) = -320.5927
     E_mod_pauli (MOD PAULI) (kJ/mol) = 125.5287 (FRZ - CLS ELEC - CLS DISP)
     E_cls_disp  (CLS DISP)  (kJ/mol) = -29.0362
  --------------------
--------------------

Simplified EDA Summary (kJ/mol)
--------------------
 PREPARATION      0.0000
 FROZEN           -224.1002 (ELEC + PAULI + DISP)
[ELEC + PAULI = -195.0640, DISP = -29.0362]
 POLARIZATION    -73.2227
 CHARGE TRANSFER -10.4183
 TOTAL           -307.7411     (PRP + FRZ + POL + CT)
--------------------
 
 --------------------------------------------------------------
 
                    Orbital Energies (a.u.)
 --------------------------------------------------------------
 
 Alpha MOs
 -- Occupied --
******** -19.4935 -19.4850 -19.4829 -19.4701 -19.4689 -19.4574 -13.4712
-10.7496 -10.7494 -10.7493  -1.5710  -1.3028  -1.2930  -1.2835  -1.2689
 -1.2684  -1.2638  -0.9229  -0.9228  -0.9209  -0.8064  -0.7811  -0.7783
 -0.7759  -0.7663  -0.7477  -0.6718  -0.6592  -0.6552  -0.6400  -0.6354
 -0.6266  -0.5931  -0.5790  -0.5666  -0.5622  -0.5603  -0.5452
 -- Virtual --
 -0.1206  -0.0950  -0.0892  -0.0835  -0.0608  -0.0510  -0.0434  -0.0395
 -0.0329  -0.0189  -0.0156  -0.0100  -0.0068  -0.0056  -0.0026   0.0032
  0.0072   0.0093   0.0156   0.0229   0.0331   0.0422   0.0438   0.0464
  0.0499   0.0592   0.0628   0.0722   0.0749   0.0774   0.0850   0.0987
  0.1004   0.1070   0.1146   0.1183   0.1206   0.1267   0.1342   0.1382
  0.1450   0.1513   0.1622   0.1658   0.1699   0.1750   0.1793   0.1848
  0.1879   0.1959   0.2024   0.2071   0.2092   0.2136   0.2171   0.2201
  0.2256   0.2277   0.2317   0.2385   0.2392   0.2413   0.2477   0.2506
  0.2611   0.2627   0.2679   0.2706   0.2727   0.2804   0.2814   0.2866
  0.2925   0.2972   0.3001   0.3034   0.3158   0.3172   0.3213   0.3233
  0.3301   0.3317   0.3350   0.3388   0.3469   0.3506   0.3557   0.3651
  0.3726   0.3774   0.3886   0.3950   0.4002   0.4025   0.4054   0.4126
  0.4258   0.4321   0.4383   0.4543   0.4590   0.4632   0.4755   0.4810
  0.4922   0.4966   0.4989   0.5116   0.5182   0.5297   0.5323   0.5420
  0.5591   0.5620   0.5732   0.5782   0.5943   0.5973   0.6163   0.6333
  0.6475   0.6558   0.6660   0.6762   0.6830   0.6884   0.6911   0.6981
  0.7122   0.7275   0.7384   0.7492   0.7538   0.7662   0.7700   0.7763
  0.7835   0.8069   0.8149   0.8224   0.8387   0.8554   0.8706   0.8749
  0.8847   0.8924   0.9082   0.9146   0.9276   0.9367   0.9626   0.9717
  0.9764   0.9854   0.9940   1.0020   1.0157   1.0391   1.0422   1.0461
  1.0505   1.0684   1.0763   1.0873   1.0935   1.1078   1.1134   1.1248
  1.1264   1.1366   1.1443   1.1520   1.1616   1.1765   1.1878   1.1895
  1.1934   1.2067   1.2175   1.2315   1.2565   1.2650   1.2780   1.2851
  1.2940   1.2997   1.3103   1.3299   1.3407   1.3628   1.3729   1.3770
  1.3929   1.4042   1.4129   1.4313   1.4461   1.4768   1.5330   1.5566
  1.6164   1.8287   1.8440   1.8571   1.8657   1.8765   1.8825   1.8898
  1.8949   1.9023   1.9149   1.9169   1.9426   1.9584   1.9656   1.9793
  2.0032   2.0046   2.0714   2.0942   2.1023   2.1229   2.1265   2.1372
  2.1461   2.1574   2.1742   2.2052   2.2153   2.2470   2.2750   2.5122
  2.5355   2.5615   2.5737   2.6128   2.6369   2.6961   2.7123   2.7249
  2.7504   2.7559   2.7644   2.8097   2.8498   2.8815   2.9100   2.9373
  2.9787   3.0360   3.0552   3.0634   3.0850   3.0990   3.1181   3.1292
  3.1351   3.1384   3.1469   3.1495   3.1604   3.1711   3.1755   3.1915
  3.1968   3.2173   3.2321   3.2555   3.2687   3.2877   3.2988   3.3058
  3.3098   3.3198   3.3248   3.3293   3.3362   3.3501   3.3617   3.3667
  3.3692   3.3767   3.3850   3.4009   3.4175   3.4201   3.4360   3.4470
  3.4567   3.4583   3.5164   3.5631   3.5654   3.5892   3.5985   3.6428
  3.7202   3.7691   3.7992   3.8017   3.8090   3.8439   3.8463   3.8533
  3.8647   3.9022   3.9159   3.9217   3.9269   3.9451   3.9463   3.9692
  3.9737   3.9871   3.9880   4.0048   4.0131   4.0149   4.0204   4.0357
  4.0448   4.0534   4.0726   4.0730   4.0793   4.0976   4.1076   4.1168
  4.1179   4.1277   4.1322   4.1589   4.1615   4.1680   4.1777   4.1992
  4.2049   4.2291   4.2364   4.5625   4.5874   4.6019   4.6073   4.6265
  4.6402   4.6465   4.6474   4.6509   4.6977   4.7345   4.7498   4.8302
  4.8412   4.8584   4.8857   4.8995   4.9017   5.0477   5.0748   5.1088
  5.1445   5.1568   5.1842   5.5349   5.5460   5.5504   5.5645   5.6056
  5.6085   6.0100   6.0591   6.1276   6.1743   6.2229   6.2443   6.2635
  6.3633   6.3793   6.3799   6.4159   6.4256   6.4446   6.4540   6.4698
  6.4760   6.4865   6.5017   6.5091   6.5131   6.5171   6.5357   6.5428
  6.5481   6.5539   6.5662   6.5724   6.5834   6.6024   6.6251   6.6592
  6.6662   6.6728   6.6783   6.6931   6.7253   6.7342   6.7427   6.7513
  6.7523   6.7731   6.7856   6.8977   6.9101   6.9246   6.9452   6.9490
  6.9893   7.3366   7.3598   7.3755   7.4087   7.4165   7.4344   7.4512
  7.4584   7.5085   7.5656   7.5883   7.6095   7.6722   7.6814   7.7144
  7.7341   7.7553   7.7891  44.1584  44.1732  44.2283  44.2559  44.2776
 44.3165
 --------------------------------------------------------------
 
          Ground-State Mulliken Net Atomic Charges

     Atom                 Charge (a.u.)
  ----------------------------------------
      1 K                     0.955793
      2 O                    -0.356233
      3 H                     0.146396
      4 H                     0.202868
      5 O                    -0.280606
      6 H                     0.171764
      7 H                     0.126457
      8 O                    -0.252628
      9 H                     0.129477
     10 H                     0.148172
     11 O                    -0.417907
     12 H                     0.222406
     13 H                     0.214437
     14 O                    -0.315781
     15 H                     0.156532
     16 H                     0.161764
     17 O                    -0.265934
     18 H                     0.119602
     19 H                     0.133419
  ----------------------------------------
  Sum of atomic charges =     1.000000

 -----------------------------------------------------------------
                    Cartesian Multipole Moments
 -----------------------------------------------------------------
    Charge (ESU x 10^10)
                 4.8032
    Dipole Moment (Debye)
         X       1.4001      Y      -4.5964      Z      -0.3989
       Tot       4.8215
    Quadrupole Moments (Debye-Ang)
        XX     -16.0516     XY       2.7646     YY     -23.5315
        XZ       2.3039     YZ       1.7162     ZZ     -38.5656
    Octopole Moments (Debye-Ang^2)
       XXX     -19.9584    XXY     -31.0759    XYY      23.5329
       YYY     -29.5887    XXZ      16.4867    XYZ      10.4003
       YYZ      21.4448    XZZ      15.7240    YZZ      -3.3970
       ZZZ     -20.8885
    Hexadecapole Moments (Debye-Ang^3)
      XXXX    -462.8882   XXXY     -32.6797   XXYY    -142.9511
      XYYY      71.3889   YYYY    -425.4849   XXXZ      -8.8965
      XXYZ      28.4693   XYYZ      34.7194   YYYZ      39.3735
      XXZZ    -143.1848   XYZZ      16.0098   YYZZ    -191.2901
      XZZZ     -10.5773   YZZZ      -6.4430   ZZZZ    -402.4780
 -----------------------------------------------------------------
 Total job time:  2423.47s(wall), 5351.16s(cpu) 
 Fri Jan 12 18:46:29 2024

        *************************************************************
        *                                                           *
        *  Thank you very much for using Q-Chem.  Have a nice day.  *
        *                                                           *
        *************************************************************


