
Running Job 1 of 1 120_K-Water_Cls_015_almo.in
qchem 120_K-Water_Cls_015_almo.in_823983.0 /scratch/qchem823983/ 6
/home/kchung25/qchem/5.4.0/exe/qcprog.exe_s 120_K-Water_Cls_015_almo.in_823983.0 /scratch/qchem823983/
                  Welcome to Q-Chem
     A Quantum Leap Into The Future Of Chemistry


 Q-Chem 5.4, Q-Chem, Inc., Pleasanton, CA (2021)

 E. Epifanovsky,  A. T. B. Gilbert,  Xintian Feng,  Joonho Lee,  Yuezhi Mao,  
 N. Mardirossian,  P. Pokhilko,  A. White,  M. Wormit,  M. P. Coons,  
 A. L. Dempwolff,  Zhengting Gan,  D. Hait,  P. R. Horn,  L. D. Jacobson,  
 I. Kaliman,  J. Kussmann,  A. W. Lange,  Ka Un Lao,  D. S. Levine,  Jie Liu,  
 S. C. McKenzie,  A. F. Morrison,  K. Nanda,  F. Plasser,  D. R. Rehn,  
 M. L. Vidal,  Zhi-Qiang You,  Ying Zhu,  B. Alam,  B. Albrecht,  
 A. Aldossary,  E. Alguire,  J. H. Andersen,  D. Barton,  K. Begam,  A. Behn,  
 Y. A. Bernard,  E. J. Berquist,  H. Burton,  A. Carreras,  K. Carter-Fenk,  
 Romit Chakraborty,  A. D. Chien,  K. D. Closser,  V. Cofer-Shabica,  
 S. Dasgupta,  Jia Deng,  M. de Wergifosse,  M. Diedenhofen,  Hainam Do,  
 S. Ehlert,  Po-Tung Fang,  S. Fatehi,  Qingguo Feng,  T. Friedhoff,  
 J. Gayvert,  Qinghui Ge,  G. Gidofalvi,  M. Goldey,  J. Gomes,  
 C. Gonzalez-Espinoza,  S. Gulania,  A. Gunina,  M. W. D. Hanson-Heine,  
 P. H. P. Harbach,  A. W. Hauser,  M. F. Herbst,  M. Hernandez Vera,  
 M. Hodecker,  Z. C. Holden,  S. Houck,  Xunkun Huang,  Kerwin Hui,  
 B. C. Huynh,  M. Ivanov,  Hyunjun Ji,  Hanjie Jiang,  B. Kaduk,  S. Kaehler,  
 K. Khistyaev,  Jaehoon Kim,  P. Klunzinger,  Z. Koczor-Benda,  
 Joong Hoon Koh,  D. Kosenkov,  L. Koulias,  T. Kowalczyk,  C. M. Krauter,  
 K. Kue,  A. Kunitsa,  T. Kus,  A. Landau,  K. V. Lawler,  D. Lefrancois,  
 S. Lehtola,  Rain Li,  Yi-Pei Li,  Jiashu Liang,  M. Liebenthal,  
 Hung-Hsuan Lin,  You-Sheng Lin,  Fenglai Liu,  Kuan-Yu Liu,  
 M. Loipersberger,  A. Luenser,  A. Manjanath,  P. Manohar,  E. Mansoor,  
 S. F. Manzer,  Shan-Ping Mao,  A. V. Marenich,  T. Markovich,  S. Mason,  
 S. A. Maurer,  P. F. McLaughlin,  M. F. S. J. Menger,  J.-M. Mewes,  
 S. A. Mewes,  P. Morgante,  J. W. Mullinax,  K. J. Oosterbaan,  G. Paran,  
 Alexander C. Paul,  Suranjan K. Paul,  F. Pavosevic,  Zheng Pei,  S. Prager,  
 E. I. Proynov,  E. Ramos,  B. Rana,  A. E. Rask,  A. Rettig,  R. M. Richard,  
 F. Rob,  E. Rossomme,  T. Scheele,  M. Scheurer,  M. Schneider,  
 N. Sergueev,  S. M. Sharada,  W. Skomorowski,  D. W. Small,  C. J. Stein,  
 Yu-Chuan Su,  E. J. Sundstrom,  Zhen Tao,  J. Thirman,  T. Tsuchimochi,  
 N. M. Tubman,  S. P. Veccham,  O. Vydrov,  J. Wenzel,  J. Witte,  A. Yamada,  
 Kun Yao,  S. Yeganeh,  S. R. Yost,  A. Zech,  Igor Ying Zhang,  Xing Zhang,  
 Yu Zhang,  D. Zuev,  A. Aspuru-Guzik,  A. T. Bell,  N. A. Besley,  
 K. B. Bravaya,  B. R. Brooks,  D. Casanova,  Jeng-Da Chai,  S. Coriani,  
 C. J. Cramer,  A. E. DePrince, III,  R. A. DiStasio Jr.,  A. Dreuw,  
 B. D. Dunietz,  T. R. Furlani,  W. A. Goddard III,  S. Grimme,  
 S. Hammes-Schiffer,  T. Head-Gordon,  W. J. Hehre,  Chao-Ping Hsu,  
 T.-C. Jagau,  Yousung Jung,  A. Klamt,  Jing Kong,  D. S. Lambrecht,  
 WanZhen Liang,  N. J. Mayhall,  C. W. McCurdy,  J. B. Neaton,  T. Neudecker,  
 C. Ochsenfeld,  J. A. Parkhill,  R. Peverati,  V. A. Rassolov,  Yihan Shao,  
 L. V. Slipchenko,  R. P. Steele,  J. E. Subotnik,  A. J. W. Thom,  
 A. Tkatchenko,  D. G. Truhlar,  T. Van Voorhis,  T. A. Wesolowski,  
 K. B. Whaley,  H. L. Woodcock III,  P. M. Zimmerman,  S. Faraji,  
 P. M. W. Gill,  M. Head-Gordon,  J. M. Herbert,  A. I. Krylov

 Additional authors since Version 5.4.0: 
 Chandrima Chakravarty,  L. Cunha,  R. Kang,  Yongbin Kim,  S. Kotaru,  
 Shaozhi Li,  Xiangyuan Li,  F. Matz,  A. Molle,  V. Parravicini,  
 Haisheng Ren,  Hengyuan Shen,  Yingli Su,  Hung-Yi Tsai,  C. Utku,  
 Fang Wang,  Jeff Yang,  F. Zeller

 Contributors to earlier versions of Q-Chem not listed above: 
 R. D. Adamson,  B. Austin,  R. Baer,  J. Baker,  G. J. O. Beran,  
 K. Brandhorst,  S. T. Brown,  E. F. C. Byrd,  Arup K. Chakraborty,  
 G. K. L. Chan,  Chun-Min Chang,  Yunqing Chen,  C.-L. Cheng,  
 Siu Hung Chien,  D. M. Chipman,  D. L. Crittenden,  H. Dachsel,  
 R. J. Doerksen,  A. D. Dutoi,  R. G. Edgar,  J. Fosso-Tande,  
 L. Fusti-Molnar,  D. Ghosh,  A. Ghysels,  A. Golubeva-Zadorozhnaya,  
 J. Gonthier,  M. S. Gordon,  S. R. Gwaltney,  G. Hawkins,  J. E. Herr,  
 A. Heyden,  S. Hirata,  E. G. Hohenstein,  G. Kedziora,  F. J. Keil,  
 C. Kelley,  Jihan Kim,  R. A. King,  R. Z. Khaliullin,  P. P. Korambath,  
 W. Kurlancheek,  A. Laurent,  A. M. Lee,  M. S. Lee,  S. V. Levchenko,  
 Ching Yeh Lin,  D. Liotard,  E. Livshits,  R. C. Lochan,  I. Lotan,  
 L. A. Martinez-Martinez,  P. E. Maslen,  N. Nair,  D. P. O'Neill,  
 D. Neuhauser,  E. Neuscamman,  C. M. Oana,  R. Olivares-Amaya,  R. Olson,  
 T. M. Perrine,  B. Peters,  P. A. Pieniazek,  A. Prociuk,  Y. M. Rhee,  
 J. Ritchie,  M. A. Rohrdanz,  E. Rosta,  N. J. Russ,  H. F. Schaefer III,  
 M. W. Schmidt,  N. E. Schultz,  S. Sharma,  N. Shenvi,  C. D. Sherrill,  
 A. C. Simmonett,  A. Sodt,  T. Stein,  D. Stuck,  K. S. Thanthiriwatte,  
 V. Vanovschi,  L. Vogt,  Tao Wang,  A. Warshel,  M. A. Watson,  
 C. F. Williams,  Q. Wu,  X. Xu,  Jun Yang,  W. Zhang,  Yan Zhao

   Please cite Q-Chem as follows:
  "Software for the frontiers of quantum chemistry:
   An overview of developments in the Q-Chem 5 package"
   J. Chem. Phys. 155, 084801 (2021)
   https://doi.org/10.1063/5.0055522 (open access)

 Q-Chem 5.4.2 for Intel X86 EM64T Linux

 Parts of Q-Chem use Armadillo 9.900.5 (Nocturnal Misbehaviour).
 http://arma.sourceforge.net/

 Q-Chem begins on Fri Jan 12 09:06:24 2024  

 Host: 
0

     Scratch files written to /scratch/qchem823983//
 Dec1321 |scratch|qcdevops|jenkins|workspace|build_RNUM 5684   
 Processing $rem in /home/kchung25/qchem/5.4.0/config/preferences:
 Processing $rem in /home/kchung25/.qchemrc:

 Q-Chem warning in module libgen/rem_setup.C, line 3079:

 Neither GIA nor STOLL is specified by user. Use STOLL as the default


 Checking the input file for inconsistencies... 	...done.

--------------------------------------------------------------
User input:
--------------------------------------------------------------
$molecule
1 1
--
1 1
K      0.000000     0.000000     0.000000
--
0 1
O     -0.347802    -2.893565    -0.197304
H     -0.264219    -2.627410    -1.107839
H     -1.076793    -3.520369    -0.191568
O      0.677953     2.028113    -2.098824
H      1.086568     2.053260    -2.956022
H     -0.287647     1.928353    -2.270876
O      0.133021    -0.422807     2.580598
H      0.877410    -0.317211     3.203899
H     -0.629250     0.024130     3.083095
O     -2.438966     0.372415     0.851527
H     -2.595398     1.157685     1.350948
H     -3.271474     0.106554     0.425933
O     -2.066921     1.281430    -1.668738
H     -2.570671     0.992410    -2.390640
H     -2.616813     1.957975    -1.327306
O      0.369724    -1.327390    -2.368648
H     -0.386802    -1.039991    -2.929204
H      1.195348    -0.840736    -2.656566
$end

$rem
JOBTYPE          eda
EDA2             1
METHOD           wB97M-V
BASIS            def2-TZVPPD
SYMMETRY         false
MEM_TOTAL        50000
MEM_STATIC       10000
THRESH           14
SCF_CONVERGENCE  8
XC_GRID          000099000590
NL_GRID          1
EDA_CLS_DISP     true
FD_MAT_VEC_PROD  FALSE
$end
--------------------------------------------------------------
 ----------------------------------------------------------------
             Standard Nuclear Orientation (Angstroms)
    I     Atom           X                Y                Z
 ----------------------------------------------------------------
    1      K       0.2783369345     0.0013084660    -0.5843563436
    2      O       1.4887825584    -2.1969967648     0.9105981750
    3      H       0.5583091895    -2.3935148896     0.9605834189
    4      H       1.8192412759    -2.3497739529     1.8004297327
    5      O      -2.5554288487     0.4375647550    -1.4546302832
    6      H      -3.3375585656    -0.0784613049    -1.6107623191
    7      H      -2.6217464629     0.7383930131    -0.5181252691
    8      O       2.7439456708     0.6475778267    -1.1835690410
    9      H       3.2132001071     0.6362683031    -2.0399813271
   10      H       3.0042536187     1.5569199957    -0.8112122413
   11      O       0.9467045400     1.7721964994     1.2127487257
   12      H       1.0203404558     2.6652989929     0.9169667674
   13      H       0.7307595624     1.7779452253     2.1604916302
   14      O      -1.7158735440     1.2986576665     1.1588938957
   15      H      -2.1944361570     1.0137621127     1.8993339469
   16      H      -1.7143433009     2.2252302738     1.2935453757
   17      O      -1.1915617430    -2.1724452557     0.2051663166
   18      H      -1.7912606604    -1.8204621861     0.9020321073
   19      H      -1.7077098856    -2.2889042545    -0.6441936049
 ----------------------------------------------------------------
 Molecular Point Group                 C1    NOp =  1
 Largest Abelian Subgroup              C1    NOp =  1
 Nuclear Repulsion Energy =         465.45713636 hartrees
 There are       39 alpha and       39 beta electrons
 Requested basis set is def2-TZVPPD
 There are 182 shells and 480 basis functions

 Q-Chem warning in module libmdc/get_mega.C, line 171:

 Allowed MEM_STATIC has been capped at MEM_STATIC=8191.
 Reduce the value of MEM_STATIC to silence this warning.


 Total QAlloc Memory Limit  50000 MB
 Mega-Array Size      8007 MB
 MEM_STATIC part      8191 MB
 A cutoff of  1.0D-14 yielded  14139 shell pairs
 There are     95713 function pairs (    115429 Cartesian)
 Smallest overlap matrix eigenvalue = 5.02E-05

 Scale SEOQF with 1.000000e-01/1.000000e-01/1.000000e-01

 Standard Electronic Orientation quadrupole field applied
 Nucleus-field energy     =     0.0000000102 hartrees

 -----------------------------------------------------------------------
  General SCF calculation program by
  Eric Jon Sundstrom, Paul Horn, Yuezhi Mao, Dmitri Zuev, Alec White,
  David Stuck, Shaama M.S., Shane Yost, Joonho Lee, David Small,
  Daniel Levine, Susi Lehtola, Hugh Burton, Evgeny Epifanovsky,
  Bang C. Huynh
 -----------------------------------------------------------------------
================================================================
                 ALMO-EDA with the EDA2 driver                  
================================================================
 The second-generation ALMO-EDA (for DFT):                      
 P. R. Horn, Y. Mao and M. Head-Gordon, PCCP, 18, 23067 (2016)  
 Y. Mao et al. Annu. Rev. Phys. Chem. 72, 641 (2021)            
 Decomposition of the frozen energy:                            
 P. R. Horn, Y. Mao and M. Head-Gordon, JCP, 144, 114107 (2016) 
 FERF model for polarization:                                   
 P. R. Horn and M. Head-Gordon, JCP, 143, 114111 (2015)         
================================================================
 Using eda2 option set 1
 Option set summary: Frozen orbital wavefunction, initial wavefunction decomposition, and nDQ polarization.
--------------------------------
Printing EDA Options
--------------------------------
eda_child_super_basis      0
fragmo_guess_mode          0
child_mp                   1
child_mp_orders            232
cls_elec                   1
cls_disp                   1
scfmi_mode                 1
scfmi_occs                 0
scfmi_virts                0
frz_relax                  0
frz_relax_method           0
dc_pen_start               0
dc_pen_conv                0
dc_pen_increment           0
dc_pen_steps               0
dc_pen_thresh_factor       0
dc_pen_pre_newton_thresh   0
frz_ortho_decomp           1
frz_ortho_decomp_conv      6
plot_mo_ortho_frz          0
frgm_method                2
scfmi_freeze_ss            0
separate_rehyb             0
plot_diff_den              0
eda_nocv                   0
eda_vct_relax              1
disp_free_x                0
disp_free_c                0
eda_bsse                   0
eda_pct_a                  0
eda_covp                   0
--------------------------------
Attempting to make child job directory: /scratch/qchem823983//Frg1/
Attempting to make child job directory: /scratch/qchem823983//Frg2/
Creating input file /scratch/qchem823983/Frg1.input
using default PutDataFrgm: nothing
calling putenv with: QCSCRATCH=/scratch/qchem823983/ 
Spawning Job For Fragment 0
Done Job For Fragment 0
calling putenv with: QCSCRATCH=/scratch 
calling putenv with: QCTHREADS=6 
Creating input file /scratch/qchem823983/Frg2.input
using default PutDataFrgm: nothing
calling putenv with: QCSCRATCH=/scratch/qchem823983/ 
Spawning Job For Fragment 1
Done Job For Fragment 1
calling putenv with: QCSCRATCH=/scratch 
calling putenv with: QCTHREADS=6 
Doing General SCFMI
 Exchange:     0.1500 Hartree-Fock + 1.0000 wB97M-V + LR-HF
 Correlation:  1.0000 wB97M-V
 Using Euler-Maclaurin-Lebedev (99,590) quadrature formula
 Nonlocal Correlation:  VV10 with C = 0.0100 and b = 6.00 and scale = 1.00000
 Grid used for NLC:  SG-1 standard quadrature
performing fock build before subrot guess so that all methods have access
Printing subrot_rss_gen Method Specification:
Occupied Subspace Method is 0
Virtual Subspace Method is 0
Energy of the unrelaxed supersystem initial determinant -1058.401910049209
write pseudocanon occs and virts to disk
write pseudocanon orbital energies to disk
Tolerance of ortho_decomp_scf: 1.00e-06
GDM subspace size: 20
Beginning the Orthogonal Decomposition of the Initial Supersystem Wavefunction
    1   -1058.2071188522      2.49e-01     ortho_decomp Preconditoned Steepest Descent
    2   -1058.2408851959      2.39e-03     ortho_decomp BFGS Step
    3   -1058.2409001718      1.01e-04     ortho_decomp BFGS Step
    4   -1058.2409002067      4.24e-06     ortho_decomp BFGS Step
    5   -1058.2409002067      7.94e-08     ortho_decomp 00000 Convergence criterion met
 Hartree-Fock
 Hartree-Fock
 Hartree-Fock
 Exchange:     0.1500 Hartree-Fock + 1.0000 wB97M-V + LR-HF
 Correlation:  1.0000 wB97M-V
 Using Euler-Maclaurin-Lebedev (99,590) quadrature formula
 Nonlocal Correlation:  VV10 with C = 0.0100 and b = 6.00 and scale = 1.00000
 Grid used for NLC:  SG-1 standard quadrature
 Long-range K will be added via erf
 Coulomb attenuation parameter = 0.3 bohr**(-1)
 Nonlocal correlation = 3.226219114483e-01
Doing General SCFMI
 Exchange:     0.1500 Hartree-Fock + 1.0000 wB97M-V + LR-HF
 Correlation:  1.0000 wB97M-V
 Using Euler-Maclaurin-Lebedev (99,590) quadrature formula
 Nonlocal Correlation:  VV10 with C = 0.0100 and b = 6.00 and scale = 1.00000
 Grid used for NLC:  SG-1 standard quadrature
performing fock build at end of subrot_r(subrot) constructor so that all methods have access
<S^2> of initial wavefunction before polarization iterations 0.0000000000
Beginning iterations for the determination of the polarized wavefunction
Energy prior to optimization (guess energy) = -1058.401910049209
Begin Timing: Total SCF Calculation
begin iterations for algorithm: DIIS         
the SCF tolerance is set to 1.00e-08
    1   -1058.4019100492      6.48e-04     00000 
    2   -1058.4264742756      2.93e-04     00000 
    3   -1058.4287060919      1.27e-04     00000 
    4   -1058.4291631927      3.66e-05     00000 
    5   -1058.4292432137      1.08e-05     00000 
    6   -1058.4292573335      4.78e-06     00000 
    7   -1058.4292592057      2.49e-06     00000 
    8   -1058.4292597360      6.53e-07     00000 
    9   -1058.4292597790      1.81e-07     00000 
   10   -1058.4292597826      4.83e-08     00000 
   11   -1058.4292597827      2.55e-08     00000 
   12   -1058.4292597827      6.32e-09     00000 Convergence criterion met
write pseudocanon occs and virts to disk
write pseudocanon orbital energies to disk
Timing for Total SCF: 303.00s (wall), 1817.09s (cpu)
<S^2> of polarized wavefunction after polarization iterations 0.0000000000
relaxing scfmi constraint to allow all rotations in the entire AO span
Doing General SCFMI
 Exchange:     0.1500 Hartree-Fock + 1.0000 wB97M-V + LR-HF
 Correlation:  1.0000 wB97M-V
 Using Euler-Maclaurin-Lebedev (99,590) quadrature formula
 Nonlocal Correlation:  VV10 with C = 0.0100 and b = 6.00 and scale = 1.00000
 Grid used for NLC:  SG-1 standard quadrature
performing fock build at end of subrot_r(subrot) constructor so that all methods have access
<S^2> of polarized wavefunction before ct-allowed iterations 0.0000000000
Beginning iterations for the determination of the CT-Allowed wavefunction
Energy prior to optimization (guess energy) = -1058.429259782691
Begin Timing: Total SCF Calculation
begin iterations for algorithm: DIIS         
the SCF tolerance is set to 1.00e-08
    1   -1058.4292597827      2.42e-04     00000 
    2   -1058.4330079590      2.00e-05     00000 
    3   -1058.4331031655      4.80e-06     00000 
    4   -1058.4331054356      4.38e-06     00000 
    5   -1058.4331068481      2.36e-07     00000 
    6   -1058.4331068561      7.95e-08     00000 
    7   -1058.4331068569      4.01e-08     00000 
    8   -1058.4331068571      6.31e-09     00000 Convergence criterion met
write pseudocanon occs and virts to disk
write pseudocanon orbital energies to disk
Timing for Total SCF: 190.00s (wall), 1138.14s (cpu)
<S^2> of ct_allowed wavefunction after ct-allowed iterations 0.0000000000

================================
        Results of EDA2         
================================
Basic EDA Quantities
--------------------
Fragment Energies (Ha):
1 -599.7243958034
2 -458.6025391289
--------------------
  E_prp (kJ/mol) = 0.0000
  E_frz (kJ/mol) = -196.8495
  E_pol (kJ/mol) = -71.8076
  E_vct (kJ/mol) = -10.1006
  E_int (kJ/mol) = -278.7577
--------------------


Decomposition of frozen interaction energy
--------------------
  --------------------
  Orthogonal Frozen Decomposition:
  --------------------
     E_elec   (ELEC)   (kJ/mol) = -354.8904
     E_pauli  (PAULI)  (kJ/mol) = 189.1923
     E_disp   (DISP)   (kJ/mol) = -31.1514
  --------------------
  Classical Frozen Decomposition:
  --------------------
     E_cls_elec  (CLS ELEC)  (kJ/mol) = -286.5417
     E_mod_pauli (MOD PAULI) (kJ/mol) = 117.8936 (FRZ - CLS ELEC - CLS DISP)
     E_cls_disp  (CLS DISP)  (kJ/mol) = -28.2014
  --------------------
--------------------

Simplified EDA Summary (kJ/mol)
--------------------
 PREPARATION      0.0000
 FROZEN           -196.8495 (ELEC + PAULI + DISP)
[ELEC + PAULI = -168.6481, DISP = -28.2014]
 POLARIZATION    -71.8076
 CHARGE TRANSFER -10.1006
 TOTAL           -278.7577     (PRP + FRZ + POL + CT)
--------------------
 
 --------------------------------------------------------------
 
                    Orbital Energies (a.u.)
 --------------------------------------------------------------
 
 Alpha MOs
 -- Occupied --
******** -19.5053 -19.5000 -19.4870 -19.4773 -19.4650 -19.4401 -13.4861
-10.7644 -10.7644 -10.7640  -1.5852  -1.3332  -1.2973  -1.2912  -1.2684
 -1.2658  -1.2497  -0.9374  -0.9367  -0.9341  -0.8194  -0.8048  -0.7983
 -0.7751  -0.7572  -0.7566  -0.6928  -0.6585  -0.6565  -0.6457  -0.6382
 -0.6129  -0.6097  -0.5920  -0.5705  -0.5635  -0.5570  -0.5362
 -- Virtual --
 -0.1261  -0.1012  -0.0914  -0.0799  -0.0603  -0.0565  -0.0442  -0.0419
 -0.0388  -0.0195  -0.0184  -0.0143  -0.0125  -0.0054  -0.0016   0.0023
  0.0070   0.0124   0.0170   0.0197   0.0286   0.0342   0.0439   0.0499
  0.0513   0.0538   0.0569   0.0628   0.0722   0.0744   0.0828   0.0870
  0.0980   0.1111   0.1183   0.1247   0.1286   0.1293   0.1392   0.1468
  0.1534   0.1553   0.1598   0.1610   0.1661   0.1707   0.1773   0.1795
  0.1874   0.1944   0.1972   0.2013   0.2041   0.2129   0.2140   0.2170
  0.2226   0.2257   0.2338   0.2378   0.2406   0.2419   0.2461   0.2532
  0.2569   0.2576   0.2598   0.2666   0.2714   0.2739   0.2832   0.2854
  0.2917   0.2935   0.2970   0.2983   0.3070   0.3158   0.3179   0.3242
  0.3296   0.3324   0.3381   0.3437   0.3498   0.3540   0.3589   0.3651
  0.3810   0.3895   0.3986   0.4025   0.4087   0.4156   0.4267   0.4343
  0.4393   0.4472   0.4529   0.4611   0.4648   0.4748   0.4883   0.4982
  0.5025   0.5117   0.5217   0.5288   0.5304   0.5383   0.5485   0.5538
  0.5597   0.5703   0.5789   0.5824   0.6041   0.6055   0.6233   0.6431
  0.6508   0.6633   0.6640   0.6790   0.6904   0.6937   0.7054   0.7144
  0.7315   0.7384   0.7464   0.7611   0.7667   0.7697   0.7776   0.7939
  0.8067   0.8117   0.8186   0.8286   0.8556   0.8596   0.8750   0.8861
  0.8884   0.9006   0.9233   0.9283   0.9404   0.9522   0.9550   0.9715
  0.9859   0.9928   1.0006   1.0137   1.0183   1.0311   1.0427   1.0588
  1.0616   1.0876   1.0975   1.1050   1.1061   1.1141   1.1299   1.1421
  1.1530   1.1562   1.1685   1.1786   1.1901   1.2038   1.2093   1.2196
  1.2355   1.2388   1.2538   1.2557   1.2816   1.2930   1.2980   1.3064
  1.3148   1.3388   1.3410   1.3483   1.3604   1.3642   1.3836   1.3986
  1.4209   1.4316   1.4466   1.4610   1.4718   1.5250   1.5963   1.6025
  1.6715   1.8282   1.8476   1.8508   1.8634   1.8746   1.8835   1.8906
  1.8991   1.9106   1.9180   1.9339   1.9517   1.9643   1.9749   1.9900
  2.0155   2.0600   2.0948   2.1174   2.1346   2.1398   2.1740   2.1802
  2.1883   2.1961   2.2023   2.2382   2.2430   2.2575   2.2719   2.5565
  2.5699   2.6139   2.6429   2.6634   2.7062   2.7071   2.7148   2.7440
  2.7520   2.8121   2.8254   2.8337   2.8971   2.9203   2.9313   2.9460
  2.9852   3.0542   3.0555   3.0886   3.0917   3.1113   3.1192   3.1408
  3.1439   3.1557   3.1776   3.1863   3.1999   3.2085   3.2134   3.2223
  3.2354   3.2467   3.2610   3.2711   3.2818   3.2956   3.3046   3.3178
  3.3270   3.3432   3.3471   3.3545   3.3579   3.3670   3.3758   3.3847
  3.3901   3.4104   3.4168   3.4245   3.4329   3.4467   3.4638   3.4794
  3.5074   3.5204   3.5537   3.5726   3.5857   3.6007   3.6570   3.7347
  3.7580   3.7854   3.8164   3.8376   3.8559   3.8590   3.8659   3.8709
  3.8932   3.9134   3.9315   3.9463   3.9506   3.9632   3.9691   3.9845
  3.9914   4.0160   4.0170   4.0275   4.0393   4.0461   4.0513   4.0635
  4.0738   4.0767   4.0920   4.0997   4.1072   4.1282   4.1443   4.1476
  4.1617   4.1668   4.1736   4.1743   4.1807   4.1953   4.2054   4.2291
  4.2388   4.2470   4.2589   4.5484   4.5576   4.6022   4.6145   4.6180
  4.6278   4.6504   4.6747   4.7007   4.7239   4.7461   4.7757   4.8092
  4.8766   4.9108   4.9343   4.9515   4.9610   5.0334   5.0507   5.1356
  5.1424   5.1753   5.2709   5.4787   5.5201   5.5533   5.5753   5.6212
  5.6242   5.9478   6.0680   6.0818   6.1147   6.2053   6.2504   6.3104
  6.3565   6.3672   6.3847   6.3959   6.4227   6.4277   6.4690   6.4786
  6.4912   6.5055   6.5187   6.5244   6.5362   6.5536   6.5560   6.5572
  6.5699   6.5749   6.5823   6.6007   6.6146   6.6322   6.6381   6.6567
  6.6727   6.6757   6.6884   6.7149   6.7184   6.7303   6.7382   6.7670
  6.7931   6.8114   6.8159   6.8809   6.9370   6.9699   6.9976   7.0142
  7.0298   7.2932   7.3353   7.3706   7.3813   7.4140   7.4522   7.4651
  7.4671   7.5057   7.5441   7.6217   7.6331   7.7238   7.7381   7.7613
  7.7857   7.8032   7.8335  44.1394  44.2456  44.2846  44.3058  44.3589
 44.4178
 --------------------------------------------------------------
 
          Ground-State Mulliken Net Atomic Charges

     Atom                 Charge (a.u.)
  ----------------------------------------
      1 K                     0.903597
      2 O                    -0.356003
      3 H                     0.243654
      4 H                     0.147520
      5 O                    -0.370102
      6 H                     0.132137
      7 H                     0.260692
      8 O                    -0.364093
      9 H                     0.162731
     10 H                     0.217166
     11 O                    -0.293009
     12 H                     0.142795
     13 H                     0.153386
     14 O                    -0.210796
     15 H                     0.128013
     16 H                     0.112419
     17 O                    -0.491127
     18 H                     0.241000
     19 H                     0.240021
  ----------------------------------------
  Sum of atomic charges =     1.000000

 -----------------------------------------------------------------
                    Cartesian Multipole Moments
 -----------------------------------------------------------------
    Charge (ESU x 10^10)
                 4.8032
    Dipole Moment (Debye)
         X      -2.7995      Y       3.5988      Z       2.3563
       Tot       5.1323
    Quadrupole Moments (Debye-Ang)
        XX     -25.2215     XY      10.5188     YY     -32.3929
        XZ      -8.9183     YZ       4.8594     ZZ     -30.6874
    Octopole Moments (Debye-Ang^2)
       XXX     -22.9550    XXY      12.1677    XYY      -0.5335
       YYY      45.1126    XXZ     -12.6365    XYZ     -25.0289
       YYZ      22.0626    XZZ      10.6232    YZZ      -0.2770
       ZZZ      22.2212
    Hexadecapole Moments (Debye-Ang^3)
      XXXX    -650.1673   XXXY      91.7199   XXYY    -200.8029
      XYYY      37.0568   YYYY    -560.9643   XXXZ     -64.7661
      XXYZ      -1.1443   XYYZ       1.0055   YYYZ      36.4957
      XXZZ    -106.1772   XYZZ       1.1105   YYZZ    -109.7060
      XZZZ     -46.1980   YZZZ      20.1814   ZZZZ    -278.2558
 -----------------------------------------------------------------
 Total job time:  2629.41s(wall), 5729.33s(cpu) 
 Fri Jan 12 09:50:14 2024

        *************************************************************
        *                                                           *
        *  Thank you very much for using Q-Chem.  Have a nice day.  *
        *                                                           *
        *************************************************************


