
Running Job 1 of 1 120_K-Water_Cls_058_almo.in
qchem 120_K-Water_Cls_058_almo.in_871491.0 /scratch/qchem871491/ 6
/home/kchung25/qchem/5.4.0/exe/qcprog.exe_s 120_K-Water_Cls_058_almo.in_871491.0 /scratch/qchem871491/
                  Welcome to Q-Chem
     A Quantum Leap Into The Future Of Chemistry


 Q-Chem 5.4, Q-Chem, Inc., Pleasanton, CA (2021)

 E. Epifanovsky,  A. T. B. Gilbert,  Xintian Feng,  Joonho Lee,  Yuezhi Mao,  
 N. Mardirossian,  P. Pokhilko,  A. White,  M. Wormit,  M. P. Coons,  
 A. L. Dempwolff,  Zhengting Gan,  D. Hait,  P. R. Horn,  L. D. Jacobson,  
 I. Kaliman,  J. Kussmann,  A. W. Lange,  Ka Un Lao,  D. S. Levine,  Jie Liu,  
 S. C. McKenzie,  A. F. Morrison,  K. Nanda,  F. Plasser,  D. R. Rehn,  
 M. L. Vidal,  Zhi-Qiang You,  Ying Zhu,  B. Alam,  B. Albrecht,  
 A. Aldossary,  E. Alguire,  J. H. Andersen,  D. Barton,  K. Begam,  A. Behn,  
 Y. A. Bernard,  E. J. Berquist,  H. Burton,  A. Carreras,  K. Carter-Fenk,  
 Romit Chakraborty,  A. D. Chien,  K. D. Closser,  V. Cofer-Shabica,  
 S. Dasgupta,  Jia Deng,  M. de Wergifosse,  M. Diedenhofen,  Hainam Do,  
 S. Ehlert,  Po-Tung Fang,  S. Fatehi,  Qingguo Feng,  T. Friedhoff,  
 J. Gayvert,  Qinghui Ge,  G. Gidofalvi,  M. Goldey,  J. Gomes,  
 C. Gonzalez-Espinoza,  S. Gulania,  A. Gunina,  M. W. D. Hanson-Heine,  
 P. H. P. Harbach,  A. W. Hauser,  M. F. Herbst,  M. Hernandez Vera,  
 M. Hodecker,  Z. C. Holden,  S. Houck,  Xunkun Huang,  Kerwin Hui,  
 B. C. Huynh,  M. Ivanov,  Hyunjun Ji,  Hanjie Jiang,  B. Kaduk,  S. Kaehler,  
 K. Khistyaev,  Jaehoon Kim,  P. Klunzinger,  Z. Koczor-Benda,  
 Joong Hoon Koh,  D. Kosenkov,  L. Koulias,  T. Kowalczyk,  C. M. Krauter,  
 K. Kue,  A. Kunitsa,  T. Kus,  A. Landau,  K. V. Lawler,  D. Lefrancois,  
 S. Lehtola,  Rain Li,  Yi-Pei Li,  Jiashu Liang,  M. Liebenthal,  
 Hung-Hsuan Lin,  You-Sheng Lin,  Fenglai Liu,  Kuan-Yu Liu,  
 M. Loipersberger,  A. Luenser,  A. Manjanath,  P. Manohar,  E. Mansoor,  
 S. F. Manzer,  Shan-Ping Mao,  A. V. Marenich,  T. Markovich,  S. Mason,  
 S. A. Maurer,  P. F. McLaughlin,  M. F. S. J. Menger,  J.-M. Mewes,  
 S. A. Mewes,  P. Morgante,  J. W. Mullinax,  K. J. Oosterbaan,  G. Paran,  
 Alexander C. Paul,  Suranjan K. Paul,  F. Pavosevic,  Zheng Pei,  S. Prager,  
 E. I. Proynov,  E. Ramos,  B. Rana,  A. E. Rask,  A. Rettig,  R. M. Richard,  
 F. Rob,  E. Rossomme,  T. Scheele,  M. Scheurer,  M. Schneider,  
 N. Sergueev,  S. M. Sharada,  W. Skomorowski,  D. W. Small,  C. J. Stein,  
 Yu-Chuan Su,  E. J. Sundstrom,  Zhen Tao,  J. Thirman,  T. Tsuchimochi,  
 N. M. Tubman,  S. P. Veccham,  O. Vydrov,  J. Wenzel,  J. Witte,  A. Yamada,  
 Kun Yao,  S. Yeganeh,  S. R. Yost,  A. Zech,  Igor Ying Zhang,  Xing Zhang,  
 Yu Zhang,  D. Zuev,  A. Aspuru-Guzik,  A. T. Bell,  N. A. Besley,  
 K. B. Bravaya,  B. R. Brooks,  D. Casanova,  Jeng-Da Chai,  S. Coriani,  
 C. J. Cramer,  A. E. DePrince, III,  R. A. DiStasio Jr.,  A. Dreuw,  
 B. D. Dunietz,  T. R. Furlani,  W. A. Goddard III,  S. Grimme,  
 S. Hammes-Schiffer,  T. Head-Gordon,  W. J. Hehre,  Chao-Ping Hsu,  
 T.-C. Jagau,  Yousung Jung,  A. Klamt,  Jing Kong,  D. S. Lambrecht,  
 WanZhen Liang,  N. J. Mayhall,  C. W. McCurdy,  J. B. Neaton,  T. Neudecker,  
 C. Ochsenfeld,  J. A. Parkhill,  R. Peverati,  V. A. Rassolov,  Yihan Shao,  
 L. V. Slipchenko,  R. P. Steele,  J. E. Subotnik,  A. J. W. Thom,  
 A. Tkatchenko,  D. G. Truhlar,  T. Van Voorhis,  T. A. Wesolowski,  
 K. B. Whaley,  H. L. Woodcock III,  P. M. Zimmerman,  S. Faraji,  
 P. M. W. Gill,  M. Head-Gordon,  J. M. Herbert,  A. I. Krylov

 Additional authors since Version 5.4.0: 
 Chandrima Chakravarty,  L. Cunha,  R. Kang,  Yongbin Kim,  S. Kotaru,  
 Shaozhi Li,  Xiangyuan Li,  F. Matz,  A. Molle,  V. Parravicini,  
 Haisheng Ren,  Hengyuan Shen,  Yingli Su,  Hung-Yi Tsai,  C. Utku,  
 Fang Wang,  Jeff Yang,  F. Zeller

 Contributors to earlier versions of Q-Chem not listed above: 
 R. D. Adamson,  B. Austin,  R. Baer,  J. Baker,  G. J. O. Beran,  
 K. Brandhorst,  S. T. Brown,  E. F. C. Byrd,  Arup K. Chakraborty,  
 G. K. L. Chan,  Chun-Min Chang,  Yunqing Chen,  C.-L. Cheng,  
 Siu Hung Chien,  D. M. Chipman,  D. L. Crittenden,  H. Dachsel,  
 R. J. Doerksen,  A. D. Dutoi,  R. G. Edgar,  J. Fosso-Tande,  
 L. Fusti-Molnar,  D. Ghosh,  A. Ghysels,  A. Golubeva-Zadorozhnaya,  
 J. Gonthier,  M. S. Gordon,  S. R. Gwaltney,  G. Hawkins,  J. E. Herr,  
 A. Heyden,  S. Hirata,  E. G. Hohenstein,  G. Kedziora,  F. J. Keil,  
 C. Kelley,  Jihan Kim,  R. A. King,  R. Z. Khaliullin,  P. P. Korambath,  
 W. Kurlancheek,  A. Laurent,  A. M. Lee,  M. S. Lee,  S. V. Levchenko,  
 Ching Yeh Lin,  D. Liotard,  E. Livshits,  R. C. Lochan,  I. Lotan,  
 L. A. Martinez-Martinez,  P. E. Maslen,  N. Nair,  D. P. O'Neill,  
 D. Neuhauser,  E. Neuscamman,  C. M. Oana,  R. Olivares-Amaya,  R. Olson,  
 T. M. Perrine,  B. Peters,  P. A. Pieniazek,  A. Prociuk,  Y. M. Rhee,  
 J. Ritchie,  M. A. Rohrdanz,  E. Rosta,  N. J. Russ,  H. F. Schaefer III,  
 M. W. Schmidt,  N. E. Schultz,  S. Sharma,  N. Shenvi,  C. D. Sherrill,  
 A. C. Simmonett,  A. Sodt,  T. Stein,  D. Stuck,  K. S. Thanthiriwatte,  
 V. Vanovschi,  L. Vogt,  Tao Wang,  A. Warshel,  M. A. Watson,  
 C. F. Williams,  Q. Wu,  X. Xu,  Jun Yang,  W. Zhang,  Yan Zhao

   Please cite Q-Chem as follows:
  "Software for the frontiers of quantum chemistry:
   An overview of developments in the Q-Chem 5 package"
   J. Chem. Phys. 155, 084801 (2021)
   https://doi.org/10.1063/5.0055522 (open access)

 Q-Chem 5.4.2 for Intel X86 EM64T Linux

 Parts of Q-Chem use Armadillo 9.900.5 (Nocturnal Misbehaviour).
 http://arma.sourceforge.net/

 Q-Chem begins on Sat Jan 13 08:11:56 2024  

 Host: 
0

     Scratch files written to /scratch/qchem871491//
 Dec1321 |scratch|qcdevops|jenkins|workspace|build_RNUM 5684   
 Processing $rem in /home/kchung25/qchem/5.4.0/config/preferences:
 Processing $rem in /home/kchung25/.qchemrc:

 Q-Chem warning in module libgen/rem_setup.C, line 3079:

 Neither GIA nor STOLL is specified by user. Use STOLL as the default


 Checking the input file for inconsistencies... 	...done.

--------------------------------------------------------------
User input:
--------------------------------------------------------------
$molecule
1 1
--
1 1
K      0.000000     0.000000     0.000000
--
0 1
O      1.395321     2.485796    -0.499111
H      0.475724     2.530364    -0.908150
H      1.541025     3.296659     0.059292
O     -0.298366     0.277828    -2.884288
H     -1.052425    -0.252557    -3.266455
H     -0.007761     0.938512    -3.499209
O     -0.844454     0.705415     2.485358
H     -0.439561     1.442536     2.982417
H     -0.765232    -0.044769     3.073039
O      2.206718    -0.416213    -1.515557
H      2.624132    -1.306624    -1.434775
H      1.710832    -0.523339    -2.322752
O      2.287985     0.406779     1.536207
H      1.848703     0.878967     2.243779
H      2.356853     1.050663     0.803187
O     -0.926946    -2.528131    -0.885140
H     -0.638585    -2.814555    -0.002462
H     -0.175227    -2.863224    -1.473137
O     -2.524902     0.657056     0.276186
H     -2.345141     0.830225     1.144007
H     -3.348189     0.216696     0.083786
$end

$rem
JOBTYPE          eda
EDA2             1
METHOD           wB97M-V
BASIS            def2-TZVPPD
SYMMETRY         false
MEM_TOTAL        50000
MEM_STATIC       10000
THRESH           14
SCF_CONVERGENCE  8
XC_GRID          000099000590
NL_GRID          1
EDA_CLS_DISP     true
FD_MAT_VEC_PROD  FALSE
$end
--------------------------------------------------------------
 ----------------------------------------------------------------
             Standard Nuclear Orientation (Angstroms)
    I     Atom           X                Y                Z
 ----------------------------------------------------------------
    1      K      -0.0843947453    -0.2105359208     0.1614495911
    2      O      -0.5336345402     2.0642298434    -1.5702659056
    3      H      -0.2342439450     1.2769519459    -2.1230014990
    4      H      -1.3591007026     2.4475204286    -1.9730515965
    5      O       2.4246758521    -0.0840162489    -1.3129606111
    6      H       2.9392577017    -0.9390987840    -1.3109069281
    7      H       2.7414647813     0.4962383460    -1.9926898436
    8      O      -2.6918631513    -0.9758975222     0.2166528476
    9      H      -3.4157123083    -0.3757133425    -0.0482522447
   10      H      -2.9250848198    -1.2469195918     1.1035439390
   11      O       1.6049133312     1.8180222139     0.7704986284
   12      H       1.9123266972     1.8571757987     1.7072781900
   13      H       2.3553417187     1.4041093992     0.3527952768
   14      O      -1.5102471322     1.8907200874     1.3068511017
   15      H      -2.3732319883     1.5924331085     1.0189790219
   16      H      -1.0924612978     2.2727275116     0.5092465307
   17      O       1.6770494164    -1.9282981696     1.5688427066
   18      H       1.0018084781    -1.8618501332     2.2645046644
   19      H       2.3952886597    -1.3029875935     1.9097654522
   20      O      -0.7558219637    -2.3136062256    -1.2560877759
   21      H      -1.6076660882    -2.1718096977    -0.9921367579
   22      H      -0.4550612232    -3.2178267286    -1.2818643696
 ----------------------------------------------------------------
 Molecular Point Group                 C1    NOp =  1
 Largest Abelian Subgroup              C1    NOp =  1
 Nuclear Repulsion Energy =         588.26180664 hartrees
 There are       44 alpha and       44 beta electrons
 Requested basis set is def2-TZVPPD
 There are 210 shells and 554 basis functions

 Q-Chem warning in module libmdc/get_mega.C, line 171:

 Allowed MEM_STATIC has been capped at MEM_STATIC=8191.
 Reduce the value of MEM_STATIC to silence this warning.


 Total QAlloc Memory Limit  50000 MB
 Mega-Array Size      8007 MB
 MEM_STATIC part      8191 MB
 A cutoff of  1.0D-14 yielded  18667 shell pairs
 There are    126183 function pairs (    152158 Cartesian)
 Smallest overlap matrix eigenvalue = 4.47E-05

 Scale SEOQF with 1.000000e-01/1.000000e-01/1.000000e-01

 Standard Electronic Orientation quadrupole field applied
 Nucleus-field energy     =     0.0000000113 hartrees

 -----------------------------------------------------------------------
  General SCF calculation program by
  Eric Jon Sundstrom, Paul Horn, Yuezhi Mao, Dmitri Zuev, Alec White,
  David Stuck, Shaama M.S., Shane Yost, Joonho Lee, David Small,
  Daniel Levine, Susi Lehtola, Hugh Burton, Evgeny Epifanovsky,
  Bang C. Huynh
 -----------------------------------------------------------------------
================================================================
                 ALMO-EDA with the EDA2 driver                  
================================================================
 The second-generation ALMO-EDA (for DFT):                      
 P. R. Horn, Y. Mao and M. Head-Gordon, PCCP, 18, 23067 (2016)  
 Y. Mao et al. Annu. Rev. Phys. Chem. 72, 641 (2021)            
 Decomposition of the frozen energy:                            
 P. R. Horn, Y. Mao and M. Head-Gordon, JCP, 144, 114107 (2016) 
 FERF model for polarization:                                   
 P. R. Horn and M. Head-Gordon, JCP, 143, 114111 (2015)         
================================================================
 Using eda2 option set 1
 Option set summary: Frozen orbital wavefunction, initial wavefunction decomposition, and nDQ polarization.
--------------------------------
Printing EDA Options
--------------------------------
eda_child_super_basis      0
fragmo_guess_mode          0
child_mp                   1
child_mp_orders            232
cls_elec                   1
cls_disp                   1
scfmi_mode                 1
scfmi_occs                 0
scfmi_virts                0
frz_relax                  0
frz_relax_method           0
dc_pen_start               0
dc_pen_conv                0
dc_pen_increment           0
dc_pen_steps               0
dc_pen_thresh_factor       0
dc_pen_pre_newton_thresh   0
frz_ortho_decomp           1
frz_ortho_decomp_conv      6
plot_mo_ortho_frz          0
frgm_method                2
scfmi_freeze_ss            0
separate_rehyb             0
plot_diff_den              0
eda_nocv                   0
eda_vct_relax              1
disp_free_x                0
disp_free_c                0
eda_bsse                   0
eda_pct_a                  0
eda_covp                   0
--------------------------------
Attempting to make child job directory: /scratch/qchem871491//Frg1/
Attempting to make child job directory: /scratch/qchem871491//Frg2/
Creating input file /scratch/qchem871491/Frg1.input
using default PutDataFrgm: nothing
calling putenv with: QCSCRATCH=/scratch/qchem871491/ 
Spawning Job For Fragment 0
Done Job For Fragment 0
calling putenv with: QCSCRATCH=/scratch 
calling putenv with: QCTHREADS=6 
Creating input file /scratch/qchem871491/Frg2.input
using default PutDataFrgm: nothing
calling putenv with: QCSCRATCH=/scratch/qchem871491/ 
Spawning Job For Fragment 1
Done Job For Fragment 1
calling putenv with: QCSCRATCH=/scratch 
calling putenv with: QCTHREADS=6 
Doing General SCFMI
 Exchange:     0.1500 Hartree-Fock + 1.0000 wB97M-V + LR-HF
 Correlation:  1.0000 wB97M-V
 Using Euler-Maclaurin-Lebedev (99,590) quadrature formula
 Nonlocal Correlation:  VV10 with C = 0.0100 and b = 6.00 and scale = 1.00000
 Grid used for NLC:  SG-1 standard quadrature
performing fock build before subrot guess so that all methods have access
Printing subrot_rss_gen Method Specification:
Occupied Subspace Method is 0
Virtual Subspace Method is 0
Energy of the unrelaxed supersystem initial determinant -1134.835102987105
write pseudocanon occs and virts to disk
write pseudocanon orbital energies to disk
Tolerance of ortho_decomp_scf: 1.00e-06
GDM subspace size: 20
Beginning the Orthogonal Decomposition of the Initial Supersystem Wavefunction
    1   -1134.6172771086      2.58e-01     ortho_decomp Preconditoned Steepest Descent
    2   -1134.6597881645      2.53e-03     ortho_decomp BFGS Step
    3   -1134.6598091567      1.13e-04     ortho_decomp BFGS Step
    4   -1134.6598092051      4.48e-06     ortho_decomp BFGS Step
    5   -1134.6598092051      8.25e-08     ortho_decomp 00000 Convergence criterion met
 Hartree-Fock
 Hartree-Fock
 Hartree-Fock
 Exchange:     0.1500 Hartree-Fock + 1.0000 wB97M-V + LR-HF
 Correlation:  1.0000 wB97M-V
 Using Euler-Maclaurin-Lebedev (99,590) quadrature formula
 Nonlocal Correlation:  VV10 with C = 0.0100 and b = 6.00 and scale = 1.00000
 Grid used for NLC:  SG-1 standard quadrature
 Long-range K will be added via erf
 Coulomb attenuation parameter = 0.3 bohr**(-1)
 Nonlocal correlation = 3.624996006261e-01
Doing General SCFMI
 Exchange:     0.1500 Hartree-Fock + 1.0000 wB97M-V + LR-HF
 Correlation:  1.0000 wB97M-V
 Using Euler-Maclaurin-Lebedev (99,590) quadrature formula
 Nonlocal Correlation:  VV10 with C = 0.0100 and b = 6.00 and scale = 1.00000
 Grid used for NLC:  SG-1 standard quadrature
performing fock build at end of subrot_r(subrot) constructor so that all methods have access
<S^2> of initial wavefunction before polarization iterations 0.0000000000
Beginning iterations for the determination of the polarized wavefunction
Energy prior to optimization (guess energy) = -1134.835102987105
Begin Timing: Total SCF Calculation
begin iterations for algorithm: DIIS         
the SCF tolerance is set to 1.00e-08
    1   -1134.8351029871      6.14e-04     00000 
    2   -1134.8645756278      2.48e-04     00000 
    3   -1134.8668702876      9.67e-05     00000 
    4   -1134.8672421676      3.73e-05     00000 
    5   -1134.8673387362      1.09e-05     00000 
    6   -1134.8673595067      4.46e-06     00000 
    7   -1134.8673621591      2.68e-06     00000 
    8   -1134.8673629617      7.25e-07     00000 
    9   -1134.8673630387      2.80e-07     00000 
   10   -1134.8673630460      1.22e-07     00000 
   11   -1134.8673630466      5.39e-08     00000 
   12   -1134.8673630467      2.09e-08     00000 
   13   -1134.8673630467      8.24e-09     00000 Convergence criterion met
write pseudocanon occs and virts to disk
write pseudocanon orbital energies to disk
Timing for Total SCF: 507.00s (wall), 3035.14s (cpu)
<S^2> of polarized wavefunction after polarization iterations 0.0000000000
relaxing scfmi constraint to allow all rotations in the entire AO span
Doing General SCFMI
 Exchange:     0.1500 Hartree-Fock + 1.0000 wB97M-V + LR-HF
 Correlation:  1.0000 wB97M-V
 Using Euler-Maclaurin-Lebedev (99,590) quadrature formula
 Nonlocal Correlation:  VV10 with C = 0.0100 and b = 6.00 and scale = 1.00000
 Grid used for NLC:  SG-1 standard quadrature
performing fock build at end of subrot_r(subrot) constructor so that all methods have access
<S^2> of polarized wavefunction before ct-allowed iterations 0.0000000000
Beginning iterations for the determination of the CT-Allowed wavefunction
Energy prior to optimization (guess energy) = -1134.867363046729
Begin Timing: Total SCF Calculation
begin iterations for algorithm: DIIS         
the SCF tolerance is set to 1.00e-08
    1   -1134.8673630467      2.29e-04     00000 
    2   -1134.8719686355      1.92e-05     00000 
    3   -1134.8720823931      4.92e-06     00000 
    4   -1134.8720852091      4.32e-06     00000 
    5   -1134.8720870300      2.67e-07     00000 
    6   -1134.8720870415      8.55e-08     00000 
    7   -1134.8720870425      4.62e-08     00000 
    8   -1134.8720870428      5.09e-09     00000 Convergence criterion met
write pseudocanon occs and virts to disk
write pseudocanon orbital energies to disk
Timing for Total SCF: 292.00s (wall), 1749.13s (cpu)
<S^2> of ct_allowed wavefunction after ct-allowed iterations 0.0000000000

================================
        Results of EDA2         
================================
Basic EDA Quantities
--------------------
Fragment Energies (Ha):
1 -599.7243958034
2 -535.0462063009
--------------------
  E_prp (kJ/mol) = -0.0000
  E_frz (kJ/mol) = -169.3491
  E_pol (kJ/mol) = -84.6998
  E_vct (kJ/mol) = -12.4030
  E_int (kJ/mol) = -266.4519
--------------------


Decomposition of frozen interaction energy
--------------------
  --------------------
  Orthogonal Frozen Decomposition:
  --------------------
     E_elec   (ELEC)   (kJ/mol) = -373.1030
     E_pauli  (PAULI)  (kJ/mol) = 243.1487
     E_disp   (DISP)   (kJ/mol) = -39.3948
  --------------------
  Classical Frozen Decomposition:
  --------------------
     E_cls_elec  (CLS ELEC)  (kJ/mol) = -287.7915
     E_mod_pauli (MOD PAULI) (kJ/mol) = 153.4177 (FRZ - CLS ELEC - CLS DISP)
     E_cls_disp  (CLS DISP)  (kJ/mol) = -34.9753
  --------------------
--------------------

Simplified EDA Summary (kJ/mol)
--------------------
 PREPARATION      -0.0000
 FROZEN           -169.3491 (ELEC + PAULI + DISP)
[ELEC + PAULI = -134.3738, DISP = -34.9753]
 POLARIZATION    -84.6998
 CHARGE TRANSFER -12.4030
 TOTAL           -266.4519     (PRP + FRZ + POL + CT)
--------------------
 
 --------------------------------------------------------------
 
                    Orbital Energies (a.u.)
 --------------------------------------------------------------
 
 Alpha MOs
 -- Occupied --
******** -19.5102 -19.4896 -19.4872 -19.4864 -19.4648 -19.4570 -19.4561
-13.4803 -10.7590 -10.7584 -10.7581  -1.5805  -1.3160  -1.2850  -1.2812
 -1.2776  -1.2741  -1.2685  -1.2608  -0.9353  -0.9323  -0.9289  -0.8110
 -0.8104  -0.7959  -0.7816  -0.7695  -0.7626  -0.7571  -0.6838  -0.6522
 -0.6506  -0.6476  -0.6374  -0.6245  -0.6199  -0.6033  -0.5794  -0.5757
 -0.5719  -0.5627  -0.5564  -0.5487
 -- Virtual --
 -0.1220  -0.1027  -0.0961  -0.0800  -0.0634  -0.0556  -0.0456  -0.0395
 -0.0318  -0.0256  -0.0211  -0.0184  -0.0159  -0.0127  -0.0058  -0.0044
  0.0009   0.0064   0.0085   0.0140   0.0285   0.0316   0.0353   0.0404
  0.0451   0.0460   0.0499   0.0554   0.0664   0.0697   0.0748   0.0797
  0.0810   0.0849   0.0934   0.0995   0.1040   0.1119   0.1209   0.1214
  0.1295   0.1314   0.1411   0.1509   0.1544   0.1570   0.1598   0.1629
  0.1694   0.1751   0.1769   0.1808   0.1835   0.1899   0.1916   0.2010
  0.2075   0.2080   0.2155   0.2165   0.2242   0.2260   0.2314   0.2318
  0.2368   0.2384   0.2412   0.2500   0.2513   0.2546   0.2573   0.2622
  0.2695   0.2724   0.2772   0.2785   0.2819   0.2844   0.2884   0.2911
  0.2926   0.2974   0.3044   0.3077   0.3147   0.3156   0.3215   0.3255
  0.3303   0.3306   0.3343   0.3397   0.3453   0.3500   0.3566   0.3604
  0.3702   0.3758   0.3819   0.3912   0.3963   0.4021   0.4095   0.4115
  0.4184   0.4317   0.4366   0.4530   0.4542   0.4617   0.4651   0.4817
  0.4862   0.4869   0.4907   0.5033   0.5044   0.5087   0.5145   0.5167
  0.5332   0.5418   0.5476   0.5505   0.5607   0.5630   0.5737   0.5821
  0.5882   0.5958   0.6040   0.6095   0.6196   0.6367   0.6454   0.6518
  0.6637   0.6680   0.6904   0.6996   0.7061   0.7174   0.7249   0.7279
  0.7373   0.7423   0.7518   0.7574   0.7650   0.7734   0.7781   0.7836
  0.7881   0.8001   0.8128   0.8232   0.8305   0.8342   0.8428   0.8610
  0.8625   0.8758   0.8888   0.8976   0.9040   0.9055   0.9196   0.9226
  0.9402   0.9524   0.9620   0.9704   0.9866   0.9941   1.0071   1.0149
  1.0194   1.0409   1.0425   1.0501   1.0536   1.0578   1.0623   1.0806
  1.0928   1.0971   1.1006   1.1066   1.1109   1.1272   1.1346   1.1437
  1.1523   1.1659   1.1772   1.1793   1.1851   1.1969   1.2181   1.2309
  1.2333   1.2468   1.2589   1.2616   1.2821   1.2864   1.2924   1.3016
  1.3152   1.3223   1.3353   1.3482   1.3537   1.3619   1.3813   1.3887
  1.3954   1.4171   1.4245   1.4332   1.4444   1.4498   1.4719   1.4774
  1.5018   1.5080   1.5492   1.5585   1.6338   1.7670   1.8405   1.8475
  1.8562   1.8726   1.8820   1.8893   1.8989   1.9072   1.9163   1.9345
  1.9391   1.9504   1.9590   1.9629   1.9740   1.9872   1.9943   2.0178
  2.0473   2.0789   2.0827   2.1072   2.1250   2.1417   2.1537   2.1678
  2.1729   2.1889   2.1911   2.2096   2.2187   2.2387   2.2523   2.2681
  2.3332   2.5418   2.5675   2.6075   2.6642   2.6833   2.7119   2.7221
  2.7349   2.7543   2.7830   2.7927   2.7949   2.8399   2.8647   2.8826
  2.9082   2.9246   2.9421   2.9503   2.9740   3.0026   3.0584   3.0706
  3.0939   3.0966   3.1100   3.1191   3.1406   3.1470   3.1547   3.1681
  3.1723   3.1878   3.2108   3.2122   3.2189   3.2253   3.2388   3.2474
  3.2554   3.2633   3.2709   3.2815   3.2946   3.2976   3.2988   3.3059
  3.3181   3.3207   3.3298   3.3343   3.3382   3.3433   3.3461   3.3584
  3.3687   3.3768   3.3852   3.3891   3.4017   3.4088   3.4187   3.4256
  3.4277   3.4518   3.4757   3.4921   3.5099   3.5410   3.5650   3.5710
  3.5881   3.6213   3.6542   3.6881   3.6968   3.7054   3.7900   3.8038
  3.8203   3.8291   3.8386   3.8666   3.8810   3.8930   3.9049   3.9254
  3.9342   3.9402   3.9427   3.9500   3.9672   3.9784   3.9897   4.0008
  4.0137   4.0199   4.0316   4.0415   4.0447   4.0527   4.0641   4.0682
  4.0714   4.0811   4.0837   4.0920   4.1075   4.1127   4.1188   4.1212
  4.1276   4.1390   4.1414   4.1432   4.1550   4.1611   4.1693   4.1907
  4.2043   4.2173   4.2305   4.2419   4.2513   4.2659   4.3084   4.5453
  4.5513   4.5652   4.5875   4.6034   4.6152   4.6265   4.6403   4.6409
  4.6565   4.7006   4.7368   4.7469   4.7863   4.8192   4.8492   4.8772
  4.8963   4.9293   4.9448   5.0147   5.0444   5.0706   5.0979   5.1197
  5.1480   5.1728   5.2279   5.4847   5.5089   5.5245   5.5396   5.5774
  5.5880   5.5910   5.9317   5.9923   6.0052   6.0717   6.1232   6.1405
  6.2293   6.2654   6.3008   6.3442   6.3592   6.3697   6.3734   6.4090
  6.4175   6.4364   6.4493   6.4766   6.4917   6.4953   6.5071   6.5127
  6.5266   6.5335   6.5472   6.5604   6.5690   6.5869   6.5933   6.5945
  6.5968   6.6069   6.6149   6.6414   6.6477   6.6756   6.6789   6.6889
  6.6988   6.7140   6.7185   6.7268   6.7314   6.7343   6.7579   6.7793
  6.8134   6.8581   6.8730   6.9281   6.9446   6.9624   6.9817   6.9870
  7.0021   7.1885   7.2968   7.3118   7.3454   7.3493   7.3542   7.4208
  7.4247   7.4354   7.4396   7.4658   7.4886   7.5242   7.5606   7.6159
  7.6313   7.6956   7.7270   7.7397   7.7944   7.8090   8.0247  44.1744
 44.2039  44.2637  44.2738  44.3196  44.3974  44.4797
 --------------------------------------------------------------
 
          Ground-State Mulliken Net Atomic Charges

     Atom                 Charge (a.u.)
  ----------------------------------------
      1 K                     0.862150
      2 O                    -0.367734
      3 H                     0.206211
      4 H                     0.183636
      5 O                    -0.302975
      6 H                     0.192149
      7 H                     0.142958
      8 O                    -0.347220
      9 H                     0.177622
     10 H                     0.184462
     11 O                    -0.313316
     12 H                     0.165162
     13 H                     0.187614
     14 O                    -0.433130
     15 H                     0.172906
     16 H                     0.268856
     17 O                    -0.402906
     18 H                     0.188402
     19 H                     0.226828
     20 O                    -0.342136
     21 H                     0.211739
     22 H                     0.138720
  ----------------------------------------
  Sum of atomic charges =     1.000000

 -----------------------------------------------------------------
                    Cartesian Multipole Moments
 -----------------------------------------------------------------
    Charge (ESU x 10^10)
                 4.8032
    Dipole Moment (Debye)
         X      -1.0769      Y      -2.0913      Z      -0.3405
       Tot       2.3767
    Quadrupole Moments (Debye-Ang)
        XX     -17.8802     XY       0.5132     YY     -50.0289
        XZ       0.3061     YZ      -7.1278     ZZ     -39.7766
    Octopole Moments (Debye-Ang^2)
       XXX     -13.5650    XXY       3.6084    XYY     -16.8563
       YYY     -33.5355    XXZ      -2.7647    XYZ      22.3287
       YYZ     -19.7414    XZZ      21.9856    YZZ      -0.9109
       ZZZ       1.5164
    Hexadecapole Moments (Debye-Ang^3)
      XXXX    -543.4229   XXXY      -5.4215   XXYY    -271.4326
      XYYY       8.0878   YYYY    -794.8073   XXXZ     -58.5165
      XXYZ     -18.9242   XYYZ      18.2786   YYYZ      24.7817
      XXZZ    -139.5579   XYZZ      11.7022   YYZZ    -196.7623
      XZZZ      16.1479   YZZZ     -64.7569   ZZZZ    -412.5397
 -----------------------------------------------------------------
 Total job time:  4252.08s(wall), 9139.48s(cpu) 
 Sat Jan 13 09:22:48 2024

        *************************************************************
        *                                                           *
        *  Thank you very much for using Q-Chem.  Have a nice day.  *
        *                                                           *
        *************************************************************


