
Running Job 1 of 1 120_K-Water_Cls_002_almo.in
qchem 120_K-Water_Cls_002_almo.in_809293.0 /scratch/qchem809293/ 6
/home/kchung25/qchem/5.4.0/exe/qcprog.exe_s 120_K-Water_Cls_002_almo.in_809293.0 /scratch/qchem809293/
                  Welcome to Q-Chem
     A Quantum Leap Into The Future Of Chemistry


 Q-Chem 5.4, Q-Chem, Inc., Pleasanton, CA (2021)

 E. Epifanovsky,  A. T. B. Gilbert,  Xintian Feng,  Joonho Lee,  Yuezhi Mao,  
 N. Mardirossian,  P. Pokhilko,  A. White,  M. Wormit,  M. P. Coons,  
 A. L. Dempwolff,  Zhengting Gan,  D. Hait,  P. R. Horn,  L. D. Jacobson,  
 I. Kaliman,  J. Kussmann,  A. W. Lange,  Ka Un Lao,  D. S. Levine,  Jie Liu,  
 S. C. McKenzie,  A. F. Morrison,  K. Nanda,  F. Plasser,  D. R. Rehn,  
 M. L. Vidal,  Zhi-Qiang You,  Ying Zhu,  B. Alam,  B. Albrecht,  
 A. Aldossary,  E. Alguire,  J. H. Andersen,  D. Barton,  K. Begam,  A. Behn,  
 Y. A. Bernard,  E. J. Berquist,  H. Burton,  A. Carreras,  K. Carter-Fenk,  
 Romit Chakraborty,  A. D. Chien,  K. D. Closser,  V. Cofer-Shabica,  
 S. Dasgupta,  Jia Deng,  M. de Wergifosse,  M. Diedenhofen,  Hainam Do,  
 S. Ehlert,  Po-Tung Fang,  S. Fatehi,  Qingguo Feng,  T. Friedhoff,  
 J. Gayvert,  Qinghui Ge,  G. Gidofalvi,  M. Goldey,  J. Gomes,  
 C. Gonzalez-Espinoza,  S. Gulania,  A. Gunina,  M. W. D. Hanson-Heine,  
 P. H. P. Harbach,  A. W. Hauser,  M. F. Herbst,  M. Hernandez Vera,  
 M. Hodecker,  Z. C. Holden,  S. Houck,  Xunkun Huang,  Kerwin Hui,  
 B. C. Huynh,  M. Ivanov,  Hyunjun Ji,  Hanjie Jiang,  B. Kaduk,  S. Kaehler,  
 K. Khistyaev,  Jaehoon Kim,  P. Klunzinger,  Z. Koczor-Benda,  
 Joong Hoon Koh,  D. Kosenkov,  L. Koulias,  T. Kowalczyk,  C. M. Krauter,  
 K. Kue,  A. Kunitsa,  T. Kus,  A. Landau,  K. V. Lawler,  D. Lefrancois,  
 S. Lehtola,  Rain Li,  Yi-Pei Li,  Jiashu Liang,  M. Liebenthal,  
 Hung-Hsuan Lin,  You-Sheng Lin,  Fenglai Liu,  Kuan-Yu Liu,  
 M. Loipersberger,  A. Luenser,  A. Manjanath,  P. Manohar,  E. Mansoor,  
 S. F. Manzer,  Shan-Ping Mao,  A. V. Marenich,  T. Markovich,  S. Mason,  
 S. A. Maurer,  P. F. McLaughlin,  M. F. S. J. Menger,  J.-M. Mewes,  
 S. A. Mewes,  P. Morgante,  J. W. Mullinax,  K. J. Oosterbaan,  G. Paran,  
 Alexander C. Paul,  Suranjan K. Paul,  F. Pavosevic,  Zheng Pei,  S. Prager,  
 E. I. Proynov,  E. Ramos,  B. Rana,  A. E. Rask,  A. Rettig,  R. M. Richard,  
 F. Rob,  E. Rossomme,  T. Scheele,  M. Scheurer,  M. Schneider,  
 N. Sergueev,  S. M. Sharada,  W. Skomorowski,  D. W. Small,  C. J. Stein,  
 Yu-Chuan Su,  E. J. Sundstrom,  Zhen Tao,  J. Thirman,  T. Tsuchimochi,  
 N. M. Tubman,  S. P. Veccham,  O. Vydrov,  J. Wenzel,  J. Witte,  A. Yamada,  
 Kun Yao,  S. Yeganeh,  S. R. Yost,  A. Zech,  Igor Ying Zhang,  Xing Zhang,  
 Yu Zhang,  D. Zuev,  A. Aspuru-Guzik,  A. T. Bell,  N. A. Besley,  
 K. B. Bravaya,  B. R. Brooks,  D. Casanova,  Jeng-Da Chai,  S. Coriani,  
 C. J. Cramer,  A. E. DePrince, III,  R. A. DiStasio Jr.,  A. Dreuw,  
 B. D. Dunietz,  T. R. Furlani,  W. A. Goddard III,  S. Grimme,  
 S. Hammes-Schiffer,  T. Head-Gordon,  W. J. Hehre,  Chao-Ping Hsu,  
 T.-C. Jagau,  Yousung Jung,  A. Klamt,  Jing Kong,  D. S. Lambrecht,  
 WanZhen Liang,  N. J. Mayhall,  C. W. McCurdy,  J. B. Neaton,  T. Neudecker,  
 C. Ochsenfeld,  J. A. Parkhill,  R. Peverati,  V. A. Rassolov,  Yihan Shao,  
 L. V. Slipchenko,  R. P. Steele,  J. E. Subotnik,  A. J. W. Thom,  
 A. Tkatchenko,  D. G. Truhlar,  T. Van Voorhis,  T. A. Wesolowski,  
 K. B. Whaley,  H. L. Woodcock III,  P. M. Zimmerman,  S. Faraji,  
 P. M. W. Gill,  M. Head-Gordon,  J. M. Herbert,  A. I. Krylov

 Additional authors since Version 5.4.0: 
 Chandrima Chakravarty,  L. Cunha,  R. Kang,  Yongbin Kim,  S. Kotaru,  
 Shaozhi Li,  Xiangyuan Li,  F. Matz,  A. Molle,  V. Parravicini,  
 Haisheng Ren,  Hengyuan Shen,  Yingli Su,  Hung-Yi Tsai,  C. Utku,  
 Fang Wang,  Jeff Yang,  F. Zeller

 Contributors to earlier versions of Q-Chem not listed above: 
 R. D. Adamson,  B. Austin,  R. Baer,  J. Baker,  G. J. O. Beran,  
 K. Brandhorst,  S. T. Brown,  E. F. C. Byrd,  Arup K. Chakraborty,  
 G. K. L. Chan,  Chun-Min Chang,  Yunqing Chen,  C.-L. Cheng,  
 Siu Hung Chien,  D. M. Chipman,  D. L. Crittenden,  H. Dachsel,  
 R. J. Doerksen,  A. D. Dutoi,  R. G. Edgar,  J. Fosso-Tande,  
 L. Fusti-Molnar,  D. Ghosh,  A. Ghysels,  A. Golubeva-Zadorozhnaya,  
 J. Gonthier,  M. S. Gordon,  S. R. Gwaltney,  G. Hawkins,  J. E. Herr,  
 A. Heyden,  S. Hirata,  E. G. Hohenstein,  G. Kedziora,  F. J. Keil,  
 C. Kelley,  Jihan Kim,  R. A. King,  R. Z. Khaliullin,  P. P. Korambath,  
 W. Kurlancheek,  A. Laurent,  A. M. Lee,  M. S. Lee,  S. V. Levchenko,  
 Ching Yeh Lin,  D. Liotard,  E. Livshits,  R. C. Lochan,  I. Lotan,  
 L. A. Martinez-Martinez,  P. E. Maslen,  N. Nair,  D. P. O'Neill,  
 D. Neuhauser,  E. Neuscamman,  C. M. Oana,  R. Olivares-Amaya,  R. Olson,  
 T. M. Perrine,  B. Peters,  P. A. Pieniazek,  A. Prociuk,  Y. M. Rhee,  
 J. Ritchie,  M. A. Rohrdanz,  E. Rosta,  N. J. Russ,  H. F. Schaefer III,  
 M. W. Schmidt,  N. E. Schultz,  S. Sharma,  N. Shenvi,  C. D. Sherrill,  
 A. C. Simmonett,  A. Sodt,  T. Stein,  D. Stuck,  K. S. Thanthiriwatte,  
 V. Vanovschi,  L. Vogt,  Tao Wang,  A. Warshel,  M. A. Watson,  
 C. F. Williams,  Q. Wu,  X. Xu,  Jun Yang,  W. Zhang,  Yan Zhao

   Please cite Q-Chem as follows:
  "Software for the frontiers of quantum chemistry:
   An overview of developments in the Q-Chem 5 package"
   J. Chem. Phys. 155, 084801 (2021)
   https://doi.org/10.1063/5.0055522 (open access)

 Q-Chem 5.4.2 for Intel X86 EM64T Linux

 Parts of Q-Chem use Armadillo 9.900.5 (Nocturnal Misbehaviour).
 http://arma.sourceforge.net/

 Q-Chem begins on Fri Jan 12 02:43:26 2024  

 Host: 
0

     Scratch files written to /scratch/qchem809293//
 Dec1321 |scratch|qcdevops|jenkins|workspace|build_RNUM 5684   
 Processing $rem in /home/kchung25/qchem/5.4.0/config/preferences:
 Processing $rem in /home/kchung25/.qchemrc:

 Q-Chem warning in module libgen/rem_setup.C, line 3079:

 Neither GIA nor STOLL is specified by user. Use STOLL as the default


 Checking the input file for inconsistencies... 	...done.

--------------------------------------------------------------
User input:
--------------------------------------------------------------
$molecule
1 1
--
1 1
K      0.000000     0.000000     0.000000
--
0 1
O      2.396279     0.775608    -0.451841
H      2.861485     0.358524    -1.212679
H      2.964841     0.677780     0.338905
O     -0.804734     2.543152     1.001045
H     -0.610352     3.441400     0.770337
H     -0.791853     2.593161     1.934941
O      1.230894    -1.869188    -1.275336
H      1.585639    -1.664232    -2.153730
H      1.204694    -2.795554    -1.187042
O     -1.211205     1.758805    -1.667366
H     -1.911099     2.172143    -1.102733
H     -0.856874     2.386555    -2.247478
O      0.894477    -0.492812     2.544623
H      1.829653    -0.334025     2.571714
H      0.668104    -0.888251     3.434370
O     -1.983101    -1.526150     1.175537
H     -2.303839    -1.002062     1.943197
H     -1.706738    -2.417397     1.491046
$end

$rem
JOBTYPE          eda
EDA2             1
METHOD           wB97M-V
BASIS            def2-TZVPPD
SYMMETRY         false
MEM_TOTAL        50000
MEM_STATIC       10000
THRESH           14
SCF_CONVERGENCE  8
XC_GRID          000099000590
NL_GRID          1
EDA_CLS_DISP     true
FD_MAT_VEC_PROD  FALSE
$end
--------------------------------------------------------------
 ----------------------------------------------------------------
             Standard Nuclear Orientation (Angstroms)
    I     Atom           X                Y                Z
 ----------------------------------------------------------------
    1      K      -0.0665195818    -0.0645220377    -0.2444460429
    2      O      -0.4843921212    -1.9898350326     1.3884757303
    3      H      -0.9788196331    -2.7669482849     1.0407882610
    4      H      -0.9361232775    -1.6848732727     2.2015252918
    5      O       2.4111194391     0.6415608599     0.9721318715
    6      H       3.1270906758     0.1540283999     1.3562637517
    7      H       2.3367645680     1.3523982079     1.5754644306
    8      O      -2.1289861365    -1.3798290300    -1.0516913329
    9      H      -2.0153828904    -2.3178564918    -1.2676213670
   10      H      -2.9328595508    -1.0960834318    -1.4257397333
   11      O       2.2424516003    -1.0345767100    -1.2779681623
   12      H       2.8693847105    -0.2721912312    -1.2056245707
   13      H       2.6883687518    -1.8304960148    -1.1236282552
   14      O      -1.2275637528     1.5036877819     1.6818855427
   15      H      -1.5401554032     0.9421233759     2.3800497516
   16      H      -1.5696527892     2.4162920610     1.9041353632
   17      O      -0.5858067924     2.3450679799    -1.4966151117
   18      H      -0.0682397608     3.0197322314    -1.0028586054
   19      H      -1.5310812393     2.6211863755    -1.5180278033
 ----------------------------------------------------------------
 Molecular Point Group                 C1    NOp =  1
 Largest Abelian Subgroup              C1    NOp =  1
 Nuclear Repulsion Energy =         464.74273176 hartrees
 There are       39 alpha and       39 beta electrons
 Requested basis set is def2-TZVPPD
 There are 182 shells and 480 basis functions

 Q-Chem warning in module libmdc/get_mega.C, line 171:

 Allowed MEM_STATIC has been capped at MEM_STATIC=8191.
 Reduce the value of MEM_STATIC to silence this warning.


 Total QAlloc Memory Limit  50000 MB
 Mega-Array Size      8007 MB
 MEM_STATIC part      8191 MB
 A cutoff of  1.0D-14 yielded  14041 shell pairs
 There are     94729 function pairs (    114093 Cartesian)
 Smallest overlap matrix eigenvalue = 4.42E-05

 Scale SEOQF with 1.000000e-01/1.000000e-01/1.000000e-01

 Standard Electronic Orientation quadrupole field applied
 Nucleus-field energy     =     0.0000000063 hartrees

 -----------------------------------------------------------------------
  General SCF calculation program by
  Eric Jon Sundstrom, Paul Horn, Yuezhi Mao, Dmitri Zuev, Alec White,
  David Stuck, Shaama M.S., Shane Yost, Joonho Lee, David Small,
  Daniel Levine, Susi Lehtola, Hugh Burton, Evgeny Epifanovsky,
  Bang C. Huynh
 -----------------------------------------------------------------------
================================================================
                 ALMO-EDA with the EDA2 driver                  
================================================================
 The second-generation ALMO-EDA (for DFT):                      
 P. R. Horn, Y. Mao and M. Head-Gordon, PCCP, 18, 23067 (2016)  
 Y. Mao et al. Annu. Rev. Phys. Chem. 72, 641 (2021)            
 Decomposition of the frozen energy:                            
 P. R. Horn, Y. Mao and M. Head-Gordon, JCP, 144, 114107 (2016) 
 FERF model for polarization:                                   
 P. R. Horn and M. Head-Gordon, JCP, 143, 114111 (2015)         
================================================================
 Using eda2 option set 1
 Option set summary: Frozen orbital wavefunction, initial wavefunction decomposition, and nDQ polarization.
--------------------------------
Printing EDA Options
--------------------------------
eda_child_super_basis      0
fragmo_guess_mode          0
child_mp                   1
child_mp_orders            232
cls_elec                   1
cls_disp                   1
scfmi_mode                 1
scfmi_occs                 0
scfmi_virts                0
frz_relax                  0
frz_relax_method           0
dc_pen_start               0
dc_pen_conv                0
dc_pen_increment           0
dc_pen_steps               0
dc_pen_thresh_factor       0
dc_pen_pre_newton_thresh   0
frz_ortho_decomp           1
frz_ortho_decomp_conv      6
plot_mo_ortho_frz          0
frgm_method                2
scfmi_freeze_ss            0
separate_rehyb             0
plot_diff_den              0
eda_nocv                   0
eda_vct_relax              1
disp_free_x                0
disp_free_c                0
eda_bsse                   0
eda_pct_a                  0
eda_covp                   0
--------------------------------
Attempting to make child job directory: /scratch/qchem809293//Frg1/
Attempting to make child job directory: /scratch/qchem809293//Frg2/
Creating input file /scratch/qchem809293/Frg1.input
using default PutDataFrgm: nothing
calling putenv with: QCSCRATCH=/scratch/qchem809293/ 
Spawning Job For Fragment 0
Done Job For Fragment 0
calling putenv with: QCSCRATCH=/scratch 
calling putenv with: QCTHREADS=6 
Creating input file /scratch/qchem809293/Frg2.input
using default PutDataFrgm: nothing
calling putenv with: QCSCRATCH=/scratch/qchem809293/ 
Spawning Job For Fragment 1
Done Job For Fragment 1
calling putenv with: QCSCRATCH=/scratch 
calling putenv with: QCTHREADS=6 
Doing General SCFMI
 Exchange:     0.1500 Hartree-Fock + 1.0000 wB97M-V + LR-HF
 Correlation:  1.0000 wB97M-V
 Using Euler-Maclaurin-Lebedev (99,590) quadrature formula
 Nonlocal Correlation:  VV10 with C = 0.0100 and b = 6.00 and scale = 1.00000
 Grid used for NLC:  SG-1 standard quadrature
performing fock build before subrot guess so that all methods have access
Printing subrot_rss_gen Method Specification:
Occupied Subspace Method is 0
Virtual Subspace Method is 0
Energy of the unrelaxed supersystem initial determinant -1058.404962386369
write pseudocanon occs and virts to disk
write pseudocanon orbital energies to disk
Tolerance of ortho_decomp_scf: 1.00e-06
GDM subspace size: 20
Beginning the Orthogonal Decomposition of the Initial Supersystem Wavefunction
    1   -1058.1588021114      2.86e-01     ortho_decomp Preconditoned Steepest Descent
    2   -1058.2033520076      2.75e-03     ortho_decomp BFGS Step
    3   -1058.2033710212      1.13e-04     ortho_decomp BFGS Step
    4   -1058.2033710670      5.13e-06     ortho_decomp BFGS Step
    5   -1058.2033710670      1.06e-07     ortho_decomp 00000 Convergence criterion met
 Hartree-Fock
 Hartree-Fock
 Hartree-Fock
 Exchange:     0.1500 Hartree-Fock + 1.0000 wB97M-V + LR-HF
 Correlation:  1.0000 wB97M-V
 Using Euler-Maclaurin-Lebedev (99,590) quadrature formula
 Nonlocal Correlation:  VV10 with C = 0.0100 and b = 6.00 and scale = 1.00000
 Grid used for NLC:  SG-1 standard quadrature
 Long-range K will be added via erf
 Coulomb attenuation parameter = 0.3 bohr**(-1)
 Nonlocal correlation = 3.236090287368e-01
Doing General SCFMI
 Exchange:     0.1500 Hartree-Fock + 1.0000 wB97M-V + LR-HF
 Correlation:  1.0000 wB97M-V
 Using Euler-Maclaurin-Lebedev (99,590) quadrature formula
 Nonlocal Correlation:  VV10 with C = 0.0100 and b = 6.00 and scale = 1.00000
 Grid used for NLC:  SG-1 standard quadrature
performing fock build at end of subrot_r(subrot) constructor so that all methods have access
<S^2> of initial wavefunction before polarization iterations 0.0000000000
Beginning iterations for the determination of the polarized wavefunction
Energy prior to optimization (guess energy) = -1058.404962386370
Begin Timing: Total SCF Calculation
begin iterations for algorithm: DIIS         
the SCF tolerance is set to 1.00e-08
    1   -1058.4049623864      6.82e-04     00000 
    2   -1058.4319250655      3.18e-04     00000 
    3   -1058.4344297225      1.44e-04     00000 
    4   -1058.4349958241      3.50e-05     00000 
    5   -1058.4350754172      1.07e-05     00000 
    6   -1058.4350898367      4.40e-06     00000 
    7   -1058.4350914849      2.51e-06     00000 
    8   -1058.4350919628      5.73e-07     00000 
    9   -1058.4350919969      1.83e-07     00000 
   10   -1058.4350919999      4.08e-08     00000 
   11   -1058.4350920000      2.39e-08     00000 
   12   -1058.4350920000      1.13e-08     00000 
   13   -1058.4350920000      3.80e-09     00000 Convergence criterion met
write pseudocanon occs and virts to disk
write pseudocanon orbital energies to disk
Timing for Total SCF: 314.00s (wall), 1884.52s (cpu)
<S^2> of polarized wavefunction after polarization iterations 0.0000000000
relaxing scfmi constraint to allow all rotations in the entire AO span
Doing General SCFMI
 Exchange:     0.1500 Hartree-Fock + 1.0000 wB97M-V + LR-HF
 Correlation:  1.0000 wB97M-V
 Using Euler-Maclaurin-Lebedev (99,590) quadrature formula
 Nonlocal Correlation:  VV10 with C = 0.0100 and b = 6.00 and scale = 1.00000
 Grid used for NLC:  SG-1 standard quadrature
performing fock build at end of subrot_r(subrot) constructor so that all methods have access
<S^2> of polarized wavefunction before ct-allowed iterations 0.0000000000
Beginning iterations for the determination of the CT-Allowed wavefunction
Energy prior to optimization (guess energy) = -1058.435092000024
Begin Timing: Total SCF Calculation
begin iterations for algorithm: DIIS         
the SCF tolerance is set to 1.00e-08
    1   -1058.4350920000      2.49e-04     00000 
    2   -1058.4395454819      2.19e-05     00000 
    3   -1058.4396552739      4.80e-06     00000 
    4   -1058.4396575924      4.24e-06     00000 
    5   -1058.4396588976      2.85e-07     00000 
    6   -1058.4396589071      6.59e-08     00000 
    7   -1058.4396589078      2.82e-08     00000 
    8   -1058.4396589079      7.33e-09     00000 Convergence criterion met
write pseudocanon occs and virts to disk
write pseudocanon orbital energies to disk
Timing for Total SCF: 182.00s (wall), 1092.91s (cpu)
<S^2> of ct_allowed wavefunction after ct-allowed iterations 0.0000000000

================================
        Results of EDA2         
================================
Basic EDA Quantities
--------------------
Fragment Energies (Ha):
1 -599.7243958034
2 -458.5908816858
--------------------
  E_prp (kJ/mol) = -0.0000
  E_frz (kJ/mol) = -235.4705
  E_pol (kJ/mol) = -79.1062
  E_vct (kJ/mol) = -11.9906
  E_int (kJ/mol) = -326.5673
--------------------


Decomposition of frozen interaction energy
--------------------
  --------------------
  Orthogonal Frozen Decomposition:
  --------------------
     E_elec   (ELEC)   (kJ/mol) = -446.3625
     E_pauli  (PAULI)  (kJ/mol) = 247.3211
     E_disp   (DISP)   (kJ/mol) = -36.4292
  --------------------
  Classical Frozen Decomposition:
  --------------------
     E_cls_elec  (CLS ELEC)  (kJ/mol) = -358.3675
     E_mod_pauli (MOD PAULI) (kJ/mol) = 156.3313 (FRZ - CLS ELEC - CLS DISP)
     E_cls_disp  (CLS DISP)  (kJ/mol) = -33.4343
  --------------------
--------------------

Simplified EDA Summary (kJ/mol)
--------------------
 PREPARATION      -0.0000
 FROZEN           -235.4705 (ELEC + PAULI + DISP)
[ELEC + PAULI = -202.0361, DISP = -33.4343]
 POLARIZATION    -79.1062
 CHARGE TRANSFER -11.9906
 TOTAL           -326.5673     (PRP + FRZ + POL + CT)
--------------------
 
 --------------------------------------------------------------
 
                    Orbital Energies (a.u.)
 --------------------------------------------------------------
 
 Alpha MOs
 -- Occupied --
******** -19.4854 -19.4795 -19.4782 -19.4703 -19.4692 -19.4527 -13.4549
-10.7332 -10.7329 -10.7329  -1.5560  -1.2922  -1.2902  -1.2849  -1.2759
 -1.2619  -1.2618  -0.9098  -0.9089  -0.9069  -0.7990  -0.7863  -0.7805
 -0.7791  -0.7704  -0.7697  -0.6582  -0.6542  -0.6492  -0.6434  -0.6279
 -0.6206  -0.5819  -0.5761  -0.5674  -0.5638  -0.5571  -0.5466
 -- Virtual --
 -0.1160  -0.0941  -0.0880  -0.0844  -0.0540  -0.0509  -0.0469  -0.0396
 -0.0317  -0.0166  -0.0139  -0.0097  -0.0071  -0.0035  -0.0004   0.0041
  0.0070   0.0092   0.0133   0.0192   0.0387   0.0414   0.0455   0.0552
  0.0570   0.0659   0.0661   0.0719   0.0787   0.0848   0.0893   0.0978
  0.1000   0.1023   0.1142   0.1219   0.1239   0.1372   0.1425   0.1489
  0.1514   0.1526   0.1622   0.1732   0.1762   0.1807   0.1815   0.1925
  0.1940   0.1992   0.2023   0.2034   0.2105   0.2176   0.2238   0.2276
  0.2287   0.2301   0.2368   0.2389   0.2408   0.2466   0.2499   0.2569
  0.2611   0.2633   0.2707   0.2750   0.2777   0.2797   0.2831   0.2887
  0.2922   0.2958   0.3023   0.3059   0.3097   0.3156   0.3187   0.3259
  0.3275   0.3317   0.3327   0.3385   0.3522   0.3527   0.3612   0.3633
  0.3699   0.3777   0.3859   0.3956   0.4009   0.4145   0.4184   0.4291
  0.4354   0.4464   0.4553   0.4599   0.4702   0.4776   0.4973   0.5032
  0.5148   0.5177   0.5208   0.5237   0.5376   0.5451   0.5505   0.5564
  0.5690   0.5714   0.5796   0.5895   0.5933   0.6046   0.6162   0.6344
  0.6367   0.6548   0.6678   0.6832   0.6860   0.7007   0.7015   0.7022
  0.7082   0.7225   0.7435   0.7489   0.7580   0.7662   0.7696   0.7869
  0.8003   0.8106   0.8190   0.8250   0.8314   0.8523   0.8794   0.8841
  0.8936   0.9178   0.9378   0.9467   0.9523   0.9635   0.9697   0.9792
  0.9959   1.0011   1.0193   1.0202   1.0355   1.0439   1.0535   1.0548
  1.0562   1.0721   1.0838   1.0907   1.1013   1.1104   1.1224   1.1287
  1.1395   1.1474   1.1579   1.1744   1.1836   1.1868   1.1930   1.2081
  1.2318   1.2400   1.2468   1.2653   1.2780   1.2848   1.2966   1.3013
  1.3104   1.3169   1.3224   1.3435   1.3655   1.3898   1.3919   1.3962
  1.4057   1.4197   1.4292   1.4476   1.4762   1.4795   1.5502   1.5918
  1.6216   1.8355   1.8405   1.8548   1.8698   1.8816   1.8894   1.8952
  1.9010   1.9072   1.9220   1.9285   1.9405   1.9733   1.9824   1.9929
  2.0033   2.0199   2.0312   2.0958   2.1062   2.1104   2.1304   2.1447
  2.1730   2.1836   2.2027   2.2099   2.2155   2.2325   2.2501   2.5648
  2.5836   2.5934   2.6059   2.6376   2.6927   2.7120   2.7201   2.7366
  2.7619   2.7797   2.8000   2.8356   2.8486   2.8745   2.9004   2.9379
  2.9534   3.0512   3.0604   3.0743   3.0879   3.0927   3.1227   3.1349
  3.1437   3.1562   3.1635   3.1745   3.1896   3.1950   3.2078   3.2129
  3.2496   3.2510   3.2614   3.2720   3.2797   3.2923   3.3136   3.3157
  3.3194   3.3287   3.3361   3.3420   3.3499   3.3543   3.3581   3.3640
  3.3702   3.3735   3.3796   3.4102   3.4202   3.4420   3.4463   3.4546
  3.4665   3.4867   3.5356   3.5484   3.5557   3.5783   3.6054   3.6222
  3.6690   3.7861   3.8002   3.8099   3.8411   3.8490   3.8506   3.8587
  3.8728   3.8868   3.9074   3.9140   3.9278   3.9574   3.9713   3.9820
  3.9859   4.0034   4.0042   4.0117   4.0174   4.0321   4.0410   4.0500
  4.0570   4.0604   4.0695   4.0784   4.1122   4.1211   4.1264   4.1351
  4.1402   4.1447   4.1481   4.1671   4.1713   4.1828   4.1831   4.1984
  4.2010   4.2210   4.2956   4.5780   4.5823   4.5950   4.5999   4.6037
  4.6376   4.6429   4.6455   4.6557   4.6872   4.6970   4.7845   4.8604
  4.8690   4.8862   4.9109   4.9189   4.9596   5.0326   5.0451   5.0906
  5.1518   5.1646   5.2502   5.5154   5.5188   5.5408   5.5709   5.5757
  5.6297   5.9899   6.0130   6.0706   6.0920   6.1293   6.3106   6.3336
  6.3692   6.3754   6.3914   6.4145   6.4235   6.4298   6.4683   6.4793
  6.5104   6.5170   6.5264   6.5389   6.5434   6.5472   6.5532   6.5588
  6.5652   6.5751   6.5797   6.5991   6.6201   6.6239   6.6403   6.6584
  6.6622   6.6707   6.6773   6.6832   6.7215   6.7291   6.7409   6.7500
  6.7660   6.7911   6.8094   6.9301   6.9500   6.9562   6.9621   6.9804
  7.0254   7.3092   7.3333   7.3672   7.3779   7.3892   7.4048   7.4161
  7.4582   7.4854   7.5075   7.5186   7.6941   7.7123   7.7240   7.7505
  7.7894   7.8194   7.8643  44.1737  44.1870  44.2257  44.2824  44.3124
 44.3546
 --------------------------------------------------------------
 
          Ground-State Mulliken Net Atomic Charges

     Atom                 Charge (a.u.)
  ----------------------------------------
      1 K                     0.998192
      2 O                    -0.360373
      3 H                     0.181529
      4 H                     0.180796
      5 O                    -0.208724
      6 H                     0.124082
      7 H                     0.098993
      8 O                    -0.284238
      9 H                     0.177515
     10 H                     0.096375
     11 O                    -0.327462
     12 H                     0.217274
     13 H                     0.103194
     14 O                    -0.308054
     15 H                     0.137564
     16 H                     0.168330
     17 O                    -0.387337
     18 H                     0.200899
     19 H                     0.191445
  ----------------------------------------
  Sum of atomic charges =     1.000000

 -----------------------------------------------------------------
                    Cartesian Multipole Moments
 -----------------------------------------------------------------
    Charge (ESU x 10^10)
                 4.8032
    Dipole Moment (Debye)
         X      -2.0462      Y       0.2819      Z       3.1337
       Tot       3.7532
    Quadrupole Moments (Debye-Ang)
        XX     -18.0734     XY       0.8088     YY     -21.0174
        XZ       2.8651     YZ       6.1147     ZZ     -37.0666
    Octopole Moments (Debye-Ang^2)
       XXX      22.4788    XXY      -9.5002    XYY     -28.6484
       YYY       9.5616    XXZ       0.7178    XYZ       0.3374
       YYZ       1.8844    XZZ     -21.0150    YZZ       2.4481
       ZZZ      42.6497
    Hexadecapole Moments (Debye-Ang^3)
      XXXX    -470.1337   XXXY     -24.1068   XXYY    -135.9575
      XYYY      -3.9146   YYYY    -393.4483   XXXZ      77.0017
      XXYZ      37.2576   XYYZ      -4.1866   YYYZ      38.3797
      XXZZ    -108.8154   XYZZ      10.2176   YYZZ    -152.6590
      XZZZ      -8.2283   YZZZ      29.9125   ZZZZ    -435.5279
 -----------------------------------------------------------------
 Total job time:  2522.94s(wall), 5637.90s(cpu) 
 Fri Jan 12 03:25:29 2024

        *************************************************************
        *                                                           *
        *  Thank you very much for using Q-Chem.  Have a nice day.  *
        *                                                           *
        *************************************************************


