
Running Job 1 of 1 120_K-Water_Cls_006_almo.in
qchem 120_K-Water_Cls_006_almo.in_813542.0 /scratch/qchem813542/ 6
/home/kchung25/qchem/5.4.0/exe/qcprog.exe_s 120_K-Water_Cls_006_almo.in_813542.0 /scratch/qchem813542/
                  Welcome to Q-Chem
     A Quantum Leap Into The Future Of Chemistry


 Q-Chem 5.4, Q-Chem, Inc., Pleasanton, CA (2021)

 E. Epifanovsky,  A. T. B. Gilbert,  Xintian Feng,  Joonho Lee,  Yuezhi Mao,  
 N. Mardirossian,  P. Pokhilko,  A. White,  M. Wormit,  M. P. Coons,  
 A. L. Dempwolff,  Zhengting Gan,  D. Hait,  P. R. Horn,  L. D. Jacobson,  
 I. Kaliman,  J. Kussmann,  A. W. Lange,  Ka Un Lao,  D. S. Levine,  Jie Liu,  
 S. C. McKenzie,  A. F. Morrison,  K. Nanda,  F. Plasser,  D. R. Rehn,  
 M. L. Vidal,  Zhi-Qiang You,  Ying Zhu,  B. Alam,  B. Albrecht,  
 A. Aldossary,  E. Alguire,  J. H. Andersen,  D. Barton,  K. Begam,  A. Behn,  
 Y. A. Bernard,  E. J. Berquist,  H. Burton,  A. Carreras,  K. Carter-Fenk,  
 Romit Chakraborty,  A. D. Chien,  K. D. Closser,  V. Cofer-Shabica,  
 S. Dasgupta,  Jia Deng,  M. de Wergifosse,  M. Diedenhofen,  Hainam Do,  
 S. Ehlert,  Po-Tung Fang,  S. Fatehi,  Qingguo Feng,  T. Friedhoff,  
 J. Gayvert,  Qinghui Ge,  G. Gidofalvi,  M. Goldey,  J. Gomes,  
 C. Gonzalez-Espinoza,  S. Gulania,  A. Gunina,  M. W. D. Hanson-Heine,  
 P. H. P. Harbach,  A. W. Hauser,  M. F. Herbst,  M. Hernandez Vera,  
 M. Hodecker,  Z. C. Holden,  S. Houck,  Xunkun Huang,  Kerwin Hui,  
 B. C. Huynh,  M. Ivanov,  Hyunjun Ji,  Hanjie Jiang,  B. Kaduk,  S. Kaehler,  
 K. Khistyaev,  Jaehoon Kim,  P. Klunzinger,  Z. Koczor-Benda,  
 Joong Hoon Koh,  D. Kosenkov,  L. Koulias,  T. Kowalczyk,  C. M. Krauter,  
 K. Kue,  A. Kunitsa,  T. Kus,  A. Landau,  K. V. Lawler,  D. Lefrancois,  
 S. Lehtola,  Rain Li,  Yi-Pei Li,  Jiashu Liang,  M. Liebenthal,  
 Hung-Hsuan Lin,  You-Sheng Lin,  Fenglai Liu,  Kuan-Yu Liu,  
 M. Loipersberger,  A. Luenser,  A. Manjanath,  P. Manohar,  E. Mansoor,  
 S. F. Manzer,  Shan-Ping Mao,  A. V. Marenich,  T. Markovich,  S. Mason,  
 S. A. Maurer,  P. F. McLaughlin,  M. F. S. J. Menger,  J.-M. Mewes,  
 S. A. Mewes,  P. Morgante,  J. W. Mullinax,  K. J. Oosterbaan,  G. Paran,  
 Alexander C. Paul,  Suranjan K. Paul,  F. Pavosevic,  Zheng Pei,  S. Prager,  
 E. I. Proynov,  E. Ramos,  B. Rana,  A. E. Rask,  A. Rettig,  R. M. Richard,  
 F. Rob,  E. Rossomme,  T. Scheele,  M. Scheurer,  M. Schneider,  
 N. Sergueev,  S. M. Sharada,  W. Skomorowski,  D. W. Small,  C. J. Stein,  
 Yu-Chuan Su,  E. J. Sundstrom,  Zhen Tao,  J. Thirman,  T. Tsuchimochi,  
 N. M. Tubman,  S. P. Veccham,  O. Vydrov,  J. Wenzel,  J. Witte,  A. Yamada,  
 Kun Yao,  S. Yeganeh,  S. R. Yost,  A. Zech,  Igor Ying Zhang,  Xing Zhang,  
 Yu Zhang,  D. Zuev,  A. Aspuru-Guzik,  A. T. Bell,  N. A. Besley,  
 K. B. Bravaya,  B. R. Brooks,  D. Casanova,  Jeng-Da Chai,  S. Coriani,  
 C. J. Cramer,  A. E. DePrince, III,  R. A. DiStasio Jr.,  A. Dreuw,  
 B. D. Dunietz,  T. R. Furlani,  W. A. Goddard III,  S. Grimme,  
 S. Hammes-Schiffer,  T. Head-Gordon,  W. J. Hehre,  Chao-Ping Hsu,  
 T.-C. Jagau,  Yousung Jung,  A. Klamt,  Jing Kong,  D. S. Lambrecht,  
 WanZhen Liang,  N. J. Mayhall,  C. W. McCurdy,  J. B. Neaton,  T. Neudecker,  
 C. Ochsenfeld,  J. A. Parkhill,  R. Peverati,  V. A. Rassolov,  Yihan Shao,  
 L. V. Slipchenko,  R. P. Steele,  J. E. Subotnik,  A. J. W. Thom,  
 A. Tkatchenko,  D. G. Truhlar,  T. Van Voorhis,  T. A. Wesolowski,  
 K. B. Whaley,  H. L. Woodcock III,  P. M. Zimmerman,  S. Faraji,  
 P. M. W. Gill,  M. Head-Gordon,  J. M. Herbert,  A. I. Krylov

 Additional authors since Version 5.4.0: 
 Chandrima Chakravarty,  L. Cunha,  R. Kang,  Yongbin Kim,  S. Kotaru,  
 Shaozhi Li,  Xiangyuan Li,  F. Matz,  A. Molle,  V. Parravicini,  
 Haisheng Ren,  Hengyuan Shen,  Yingli Su,  Hung-Yi Tsai,  C. Utku,  
 Fang Wang,  Jeff Yang,  F. Zeller

 Contributors to earlier versions of Q-Chem not listed above: 
 R. D. Adamson,  B. Austin,  R. Baer,  J. Baker,  G. J. O. Beran,  
 K. Brandhorst,  S. T. Brown,  E. F. C. Byrd,  Arup K. Chakraborty,  
 G. K. L. Chan,  Chun-Min Chang,  Yunqing Chen,  C.-L. Cheng,  
 Siu Hung Chien,  D. M. Chipman,  D. L. Crittenden,  H. Dachsel,  
 R. J. Doerksen,  A. D. Dutoi,  R. G. Edgar,  J. Fosso-Tande,  
 L. Fusti-Molnar,  D. Ghosh,  A. Ghysels,  A. Golubeva-Zadorozhnaya,  
 J. Gonthier,  M. S. Gordon,  S. R. Gwaltney,  G. Hawkins,  J. E. Herr,  
 A. Heyden,  S. Hirata,  E. G. Hohenstein,  G. Kedziora,  F. J. Keil,  
 C. Kelley,  Jihan Kim,  R. A. King,  R. Z. Khaliullin,  P. P. Korambath,  
 W. Kurlancheek,  A. Laurent,  A. M. Lee,  M. S. Lee,  S. V. Levchenko,  
 Ching Yeh Lin,  D. Liotard,  E. Livshits,  R. C. Lochan,  I. Lotan,  
 L. A. Martinez-Martinez,  P. E. Maslen,  N. Nair,  D. P. O'Neill,  
 D. Neuhauser,  E. Neuscamman,  C. M. Oana,  R. Olivares-Amaya,  R. Olson,  
 T. M. Perrine,  B. Peters,  P. A. Pieniazek,  A. Prociuk,  Y. M. Rhee,  
 J. Ritchie,  M. A. Rohrdanz,  E. Rosta,  N. J. Russ,  H. F. Schaefer III,  
 M. W. Schmidt,  N. E. Schultz,  S. Sharma,  N. Shenvi,  C. D. Sherrill,  
 A. C. Simmonett,  A. Sodt,  T. Stein,  D. Stuck,  K. S. Thanthiriwatte,  
 V. Vanovschi,  L. Vogt,  Tao Wang,  A. Warshel,  M. A. Watson,  
 C. F. Williams,  Q. Wu,  X. Xu,  Jun Yang,  W. Zhang,  Yan Zhao

   Please cite Q-Chem as follows:
  "Software for the frontiers of quantum chemistry:
   An overview of developments in the Q-Chem 5 package"
   J. Chem. Phys. 155, 084801 (2021)
   https://doi.org/10.1063/5.0055522 (open access)

 Q-Chem 5.4.2 for Intel X86 EM64T Linux

 Parts of Q-Chem use Armadillo 9.900.5 (Nocturnal Misbehaviour).
 http://arma.sourceforge.net/

 Q-Chem begins on Fri Jan 12 04:54:28 2024  

 Host: 
0

     Scratch files written to /scratch/qchem813542//
 Dec1321 |scratch|qcdevops|jenkins|workspace|build_RNUM 5684   
 Processing $rem in /home/kchung25/qchem/5.4.0/config/preferences:
 Processing $rem in /home/kchung25/.qchemrc:

 Q-Chem warning in module libgen/rem_setup.C, line 3079:

 Neither GIA nor STOLL is specified by user. Use STOLL as the default


 Checking the input file for inconsistencies... 	...done.

--------------------------------------------------------------
User input:
--------------------------------------------------------------
$molecule
1 1
--
1 1
K      0.000000     0.000000     0.000000
--
0 1
O      2.076023    -1.563908     0.741741
H      2.860617    -0.996316     0.828705
H      1.615351    -1.618906     1.563939
O     -1.095486     0.399597     2.643072
H     -0.801901     1.238172     2.228137
H     -2.076198     0.356254     2.753986
O     -2.028741     1.602653    -1.083314
H     -2.848075     1.047294    -0.966116
H     -1.766923     1.523944    -2.040760
O      0.327369     2.348814     1.409380
H      0.118789     3.251871     1.602415
H      1.209539     2.243806     1.770572
O      2.277164     1.411722    -0.881632
H      2.742637     1.640937    -0.087027
H      2.895810     0.946922    -1.465846
O      0.049667    -1.666994    -2.004447
H     -0.029129    -1.163117    -2.830753
H      0.898871    -2.063134    -2.055004
$end

$rem
JOBTYPE          eda
EDA2             1
METHOD           wB97M-V
BASIS            def2-TZVPPD
SYMMETRY         false
MEM_TOTAL        50000
MEM_STATIC       10000
THRESH           14
SCF_CONVERGENCE  8
XC_GRID          000099000590
NL_GRID          1
EDA_CLS_DISP     true
FD_MAT_VEC_PROD  FALSE
$end
--------------------------------------------------------------
 ----------------------------------------------------------------
             Standard Nuclear Orientation (Angstroms)
    I     Atom           X                Y                Z
 ----------------------------------------------------------------
    1      K       0.1531910887     0.2252509084    -0.3157826128
    2      O       1.7789227258    -1.8348561215    -0.9629418743
    3      H       1.7807865365    -2.4587287920    -0.2172270643
    4      H       1.0956542184    -2.0549998671    -1.5760763626
    5      O      -2.2037228583    -0.7538662906    -1.6692533709
    6      H      -2.3345444298    -0.6711468175    -0.7009484384
    7      H      -2.7506634211    -0.1093950452    -2.1806137064
    8      O      -1.2734996332     2.4830119771     0.5356423379
    9      H      -1.4198455554     2.9942257014    -0.3073941932
   10      H      -0.5311921941     2.9382422596     1.0185415722
   11      O      -1.9664960047    -0.9230776860     1.0253802106
   12      H      -2.7522775095    -0.8823246468     1.5518464387
   13      H      -1.6525820892    -1.8182810627     1.1660188174
   14      O       0.9658077472    -0.8213091572     2.1742125814
   15      H       0.6019247370    -1.6974227993     2.1990274351
   16      H       1.9179733622    -0.8891852340     2.3440401139
   17      O       2.3883045386     1.5139316365    -0.6935569232
   18      H       2.5127825585     2.1423661062     0.0361401278
   19      H       3.1068209770     0.9162080706    -0.6093487881
 ----------------------------------------------------------------
 Molecular Point Group                 C1    NOp =  1
 Largest Abelian Subgroup              C1    NOp =  1
 Nuclear Repulsion Energy =         464.18539360 hartrees
 There are       39 alpha and       39 beta electrons
 Requested basis set is def2-TZVPPD
 There are 182 shells and 480 basis functions

 Q-Chem warning in module libmdc/get_mega.C, line 171:

 Allowed MEM_STATIC has been capped at MEM_STATIC=8191.
 Reduce the value of MEM_STATIC to silence this warning.


 Total QAlloc Memory Limit  50000 MB
 Mega-Array Size      8007 MB
 MEM_STATIC part      8191 MB
 A cutoff of  1.0D-14 yielded  14165 shell pairs
 There are     95803 function pairs (    115479 Cartesian)
 Smallest overlap matrix eigenvalue = 4.51E-05

 Scale SEOQF with 1.000000e-01/1.000000e-01/1.000000e-01

 Standard Electronic Orientation quadrupole field applied
 Nucleus-field energy     =     0.0000000070 hartrees

 -----------------------------------------------------------------------
  General SCF calculation program by
  Eric Jon Sundstrom, Paul Horn, Yuezhi Mao, Dmitri Zuev, Alec White,
  David Stuck, Shaama M.S., Shane Yost, Joonho Lee, David Small,
  Daniel Levine, Susi Lehtola, Hugh Burton, Evgeny Epifanovsky,
  Bang C. Huynh
 -----------------------------------------------------------------------
================================================================
                 ALMO-EDA with the EDA2 driver                  
================================================================
 The second-generation ALMO-EDA (for DFT):                      
 P. R. Horn, Y. Mao and M. Head-Gordon, PCCP, 18, 23067 (2016)  
 Y. Mao et al. Annu. Rev. Phys. Chem. 72, 641 (2021)            
 Decomposition of the frozen energy:                            
 P. R. Horn, Y. Mao and M. Head-Gordon, JCP, 144, 114107 (2016) 
 FERF model for polarization:                                   
 P. R. Horn and M. Head-Gordon, JCP, 143, 114111 (2015)         
================================================================
 Using eda2 option set 1
 Option set summary: Frozen orbital wavefunction, initial wavefunction decomposition, and nDQ polarization.
--------------------------------
Printing EDA Options
--------------------------------
eda_child_super_basis      0
fragmo_guess_mode          0
child_mp                   1
child_mp_orders            232
cls_elec                   1
cls_disp                   1
scfmi_mode                 1
scfmi_occs                 0
scfmi_virts                0
frz_relax                  0
frz_relax_method           0
dc_pen_start               0
dc_pen_conv                0
dc_pen_increment           0
dc_pen_steps               0
dc_pen_thresh_factor       0
dc_pen_pre_newton_thresh   0
frz_ortho_decomp           1
frz_ortho_decomp_conv      6
plot_mo_ortho_frz          0
frgm_method                2
scfmi_freeze_ss            0
separate_rehyb             0
plot_diff_den              0
eda_nocv                   0
eda_vct_relax              1
disp_free_x                0
disp_free_c                0
eda_bsse                   0
eda_pct_a                  0
eda_covp                   0
--------------------------------
Attempting to make child job directory: /scratch/qchem813542//Frg1/
Attempting to make child job directory: /scratch/qchem813542//Frg2/
Creating input file /scratch/qchem813542/Frg1.input
using default PutDataFrgm: nothing
calling putenv with: QCSCRATCH=/scratch/qchem813542/ 
Spawning Job For Fragment 0
Done Job For Fragment 0
calling putenv with: QCSCRATCH=/scratch 
calling putenv with: QCTHREADS=6 
Creating input file /scratch/qchem813542/Frg2.input
using default PutDataFrgm: nothing
calling putenv with: QCSCRATCH=/scratch/qchem813542/ 
Spawning Job For Fragment 1
Done Job For Fragment 1
calling putenv with: QCSCRATCH=/scratch 
calling putenv with: QCTHREADS=6 
Doing General SCFMI
 Exchange:     0.1500 Hartree-Fock + 1.0000 wB97M-V + LR-HF
 Correlation:  1.0000 wB97M-V
 Using Euler-Maclaurin-Lebedev (99,590) quadrature formula
 Nonlocal Correlation:  VV10 with C = 0.0100 and b = 6.00 and scale = 1.00000
 Grid used for NLC:  SG-1 standard quadrature
performing fock build before subrot guess so that all methods have access
Printing subrot_rss_gen Method Specification:
Occupied Subspace Method is 0
Virtual Subspace Method is 0
Energy of the unrelaxed supersystem initial determinant -1058.395907509421
write pseudocanon occs and virts to disk
write pseudocanon orbital energies to disk
Tolerance of ortho_decomp_scf: 1.00e-06
GDM subspace size: 20
Beginning the Orthogonal Decomposition of the Initial Supersystem Wavefunction
    1   -1058.1921808951      2.69e-01     ortho_decomp Preconditoned Steepest Descent
    2   -1058.2317203541      2.66e-03     ortho_decomp BFGS Step
    3   -1058.2317407260      1.23e-04     ortho_decomp BFGS Step
    4   -1058.2317407740      4.78e-06     ortho_decomp BFGS Step
    5   -1058.2317407740      8.65e-08     ortho_decomp 00000 Convergence criterion met
 Hartree-Fock
 Hartree-Fock
 Hartree-Fock
 Exchange:     0.1500 Hartree-Fock + 1.0000 wB97M-V + LR-HF
 Correlation:  1.0000 wB97M-V
 Using Euler-Maclaurin-Lebedev (99,590) quadrature formula
 Nonlocal Correlation:  VV10 with C = 0.0100 and b = 6.00 and scale = 1.00000
 Grid used for NLC:  SG-1 standard quadrature
 Long-range K will be added via erf
 Coulomb attenuation parameter = 0.3 bohr**(-1)
 Nonlocal correlation = 3.233344973238e-01
Doing General SCFMI
 Exchange:     0.1500 Hartree-Fock + 1.0000 wB97M-V + LR-HF
 Correlation:  1.0000 wB97M-V
 Using Euler-Maclaurin-Lebedev (99,590) quadrature formula
 Nonlocal Correlation:  VV10 with C = 0.0100 and b = 6.00 and scale = 1.00000
 Grid used for NLC:  SG-1 standard quadrature
performing fock build at end of subrot_r(subrot) constructor so that all methods have access
<S^2> of initial wavefunction before polarization iterations 0.0000000000
Beginning iterations for the determination of the polarized wavefunction
Energy prior to optimization (guess energy) = -1058.395907509422
Begin Timing: Total SCF Calculation
begin iterations for algorithm: DIIS         
the SCF tolerance is set to 1.00e-08
    1   -1058.3959075094      6.62e-04     00000 
    2   -1058.4222092368      2.55e-04     00000 
    3   -1058.4240680361      1.08e-04     00000 
    4   -1058.4244191119      4.02e-05     00000 
    5   -1058.4245069074      1.19e-05     00000 
    6   -1058.4245248636      4.70e-06     00000 
    7   -1058.4245269426      2.67e-06     00000 
    8   -1058.4245274785      7.71e-07     00000 
    9   -1058.4245275316      2.32e-07     00000 
   10   -1058.4245275372      7.13e-08     00000 
   11   -1058.4245275374      3.92e-08     00000 
   12   -1058.4245275375      1.16e-08     00000 
   13   -1058.4245275375      4.36e-09     00000 Convergence criterion met
write pseudocanon occs and virts to disk
write pseudocanon orbital energies to disk
Timing for Total SCF: 324.00s (wall), 1946.05s (cpu)
<S^2> of polarized wavefunction after polarization iterations 0.0000000000
relaxing scfmi constraint to allow all rotations in the entire AO span
Doing General SCFMI
 Exchange:     0.1500 Hartree-Fock + 1.0000 wB97M-V + LR-HF
 Correlation:  1.0000 wB97M-V
 Using Euler-Maclaurin-Lebedev (99,590) quadrature formula
 Nonlocal Correlation:  VV10 with C = 0.0100 and b = 6.00 and scale = 1.00000
 Grid used for NLC:  SG-1 standard quadrature
performing fock build at end of subrot_r(subrot) constructor so that all methods have access
<S^2> of polarized wavefunction before ct-allowed iterations 0.0000000000
Beginning iterations for the determination of the CT-Allowed wavefunction
Energy prior to optimization (guess energy) = -1058.424527537460
Begin Timing: Total SCF Calculation
begin iterations for algorithm: DIIS         
the SCF tolerance is set to 1.00e-08
    1   -1058.4245275375      2.45e-04     00000 
    2   -1058.4287353919      2.13e-05     00000 
    3   -1058.4288436849      5.37e-06     00000 
    4   -1058.4288463196      4.74e-06     00000 
    5   -1058.4288479699      2.76e-07     00000 
    6   -1058.4288479796      7.88e-08     00000 
    7   -1058.4288479804      4.36e-08     00000 
    8   -1058.4288479805      5.96e-09     00000 Convergence criterion met
write pseudocanon occs and virts to disk
write pseudocanon orbital energies to disk
Timing for Total SCF: 188.00s (wall), 1128.64s (cpu)
<S^2> of ct_allowed wavefunction after ct-allowed iterations 0.0000000000

================================
        Results of EDA2         
================================
Basic EDA Quantities
--------------------
Fragment Energies (Ha):
1 -599.7243958034
2 -458.6100469893
--------------------
  E_prp (kJ/mol) = 0.0000
  E_frz (kJ/mol) = -161.3775
  E_pol (kJ/mol) = -75.1428
  E_vct (kJ/mol) = -11.3435
  E_int (kJ/mol) = -247.8638
--------------------


Decomposition of frozen interaction energy
--------------------
  --------------------
  Orthogonal Frozen Decomposition:
  --------------------
     E_elec   (ELEC)   (kJ/mol) = -352.3706
     E_pauli  (PAULI)  (kJ/mol) = 225.8185
     E_disp   (DISP)   (kJ/mol) = -34.8254
  --------------------
  Classical Frozen Decomposition:
  --------------------
     E_cls_elec  (CLS ELEC)  (kJ/mol) = -273.5036
     E_mod_pauli (MOD PAULI) (kJ/mol) = 143.2303 (FRZ - CLS ELEC - CLS DISP)
     E_cls_disp  (CLS DISP)  (kJ/mol) = -31.1042
  --------------------
--------------------

Simplified EDA Summary (kJ/mol)
--------------------
 PREPARATION      0.0000
 FROZEN           -161.3775 (ELEC + PAULI + DISP)
[ELEC + PAULI = -130.2733, DISP = -31.1042]
 POLARIZATION    -75.1428
 CHARGE TRANSFER -11.3435
 TOTAL           -247.8638     (PRP + FRZ + POL + CT)
--------------------
 
 --------------------------------------------------------------
 
                    Orbital Energies (a.u.)
 --------------------------------------------------------------
 
 Alpha MOs
 -- Occupied --
******** -19.5091 -19.4943 -19.4884 -19.4860 -19.4848 -19.4526 -13.4909
-10.7692 -10.7692 -10.7687  -1.5910  -1.3238  -1.3009  -1.2970  -1.2959
 -1.2724  -1.2470  -0.9443  -0.9417  -0.9406  -0.8180  -0.8070  -0.8045
 -0.7924  -0.7747  -0.7745  -0.6867  -0.6601  -0.6594  -0.6500  -0.6425
 -0.6180  -0.5951  -0.5924  -0.5811  -0.5792  -0.5720  -0.5473
 -- Virtual --
 -0.1282  -0.1051  -0.0948  -0.0834  -0.0604  -0.0564  -0.0484  -0.0395
 -0.0348  -0.0264  -0.0186  -0.0162  -0.0139  -0.0080  -0.0068   0.0000
  0.0017   0.0057   0.0116   0.0138   0.0334   0.0367   0.0386   0.0425
  0.0479   0.0501   0.0591   0.0650   0.0656   0.0710   0.0774   0.0827
  0.0856   0.1058   0.1127   0.1144   0.1185   0.1209   0.1280   0.1332
  0.1402   0.1468   0.1560   0.1615   0.1680   0.1735   0.1831   0.1872
  0.1912   0.1960   0.1975   0.2020   0.2048   0.2136   0.2178   0.2184
  0.2236   0.2324   0.2342   0.2386   0.2406   0.2452   0.2461   0.2485
  0.2538   0.2576   0.2595   0.2653   0.2685   0.2752   0.2785   0.2809
  0.2885   0.2910   0.2914   0.2974   0.2982   0.3059   0.3112   0.3137
  0.3229   0.3240   0.3282   0.3346   0.3431   0.3495   0.3528   0.3597
  0.3671   0.3709   0.3823   0.3871   0.3941   0.4093   0.4139   0.4217
  0.4299   0.4338   0.4454   0.4624   0.4677   0.4703   0.4831   0.4944
  0.4954   0.4969   0.5048   0.5208   0.5302   0.5340   0.5411   0.5438
  0.5612   0.5644   0.5773   0.5872   0.6012   0.6127   0.6149   0.6229
  0.6377   0.6479   0.6656   0.6735   0.6836   0.6962   0.7031   0.7125
  0.7182   0.7329   0.7370   0.7517   0.7637   0.7676   0.7764   0.7870
  0.7975   0.8111   0.8147   0.8266   0.8281   0.8483   0.8574   0.8658
  0.8739   0.8821   0.8904   0.9021   0.9073   0.9263   0.9372   0.9598
  0.9739   0.9871   0.9916   1.0096   1.0196   1.0294   1.0416   1.0566
  1.0689   1.0742   1.0825   1.0907   1.0944   1.1125   1.1190   1.1249
  1.1369   1.1419   1.1460   1.1651   1.1725   1.1807   1.1936   1.2021
  1.2119   1.2285   1.2380   1.2528   1.2642   1.2695   1.2807   1.2943
  1.2948   1.3112   1.3215   1.3364   1.3561   1.3617   1.3716   1.3825
  1.3976   1.4231   1.4321   1.4363   1.4644   1.4858   1.5807   1.6014
  1.6961   1.8331   1.8494   1.8615   1.8688   1.8732   1.8842   1.8885
  1.8905   1.9058   1.9095   1.9271   1.9394   1.9572   1.9662   1.9892
  2.0023   2.0247   2.0394   2.0770   2.0888   2.1020   2.1199   2.1558
  2.1618   2.1860   2.1970   2.2049   2.2092   2.2581   2.2683   2.5025
  2.5704   2.5817   2.5993   2.6069   2.6707   2.6787   2.6979   2.7097
  2.7284   2.7915   2.8157   2.8661   2.8774   2.9017   2.9209   2.9474
  2.9544   3.0675   3.0757   3.0868   3.0937   3.1123   3.1292   3.1303
  3.1422   3.1585   3.1639   3.1749   3.1843   3.1913   3.2043   3.2146
  3.2331   3.2411   3.2431   3.2575   3.2634   3.2761   3.2837   3.2910
  3.2931   3.3020   3.3110   3.3172   3.3292   3.3329   3.3525   3.3612
  3.3649   3.3698   3.3793   3.3850   3.4094   3.4198   3.4274   3.4460
  3.4712   3.4931   3.5279   3.5649   3.5685   3.5773   3.5906   3.6216
  3.7951   3.8249   3.8341   3.8418   3.8522   3.8594   3.8792   3.8809
  3.8838   3.8933   3.9122   3.9336   3.9498   3.9506   3.9665   3.9702
  3.9749   3.9894   3.9929   3.9986   4.0104   4.0173   4.0259   4.0430
  4.0540   4.0652   4.0802   4.0851   4.0991   4.1051   4.1064   4.1109
  4.1242   4.1327   4.1413   4.1462   4.1738   4.1778   4.1944   4.2001
  4.2105   4.2410   4.2649   4.5496   4.5543   4.5817   4.6082   4.6121
  4.6199   4.6393   4.6437   4.6468   4.6879   4.6978   4.7411   4.8302
  4.8823   4.8976   4.9109   4.9306   4.9667   4.9969   5.0278   5.0743
  5.1103   5.1331   5.2046   5.4971   5.5015   5.5335   5.5472   5.5794
  5.5879   5.9319   5.9781   6.0257   6.0830   6.1749   6.2126   6.3027
  6.3754   6.4006   6.4044   6.4110   6.4187   6.4205   6.4311   6.4729
  6.4825   6.4918   6.4981   6.5081   6.5222   6.5414   6.5477   6.5508
  6.5558   6.5650   6.5744   6.6023   6.6139   6.6357   6.6402   6.6453
  6.6574   6.6618   6.6751   6.7034   6.7110   6.7292   6.7390   6.7425
  6.7647   6.7674   6.8016   6.8989   6.9379   6.9788   6.9982   7.0094
  7.1403   7.3039   7.3201   7.3449   7.3594   7.3646   7.4133   7.4226
  7.4386   7.4678   7.4952   7.5451   7.5938   7.6546   7.7283   7.7375
  7.7800   7.8157   7.8240  44.1519  44.2538  44.2791  44.2925  44.3478
 44.3725
 --------------------------------------------------------------
 
          Ground-State Mulliken Net Atomic Charges

     Atom                 Charge (a.u.)
  ----------------------------------------
      1 K                     0.915558
      2 O                    -0.381674
      3 H                     0.200273
      4 H                     0.195675
      5 O                    -0.462007
      6 H                     0.298029
      7 H                     0.186151
      8 O                    -0.419109
      9 H                     0.226800
     10 H                     0.220290
     11 O                    -0.281623
     12 H                     0.131634
     13 H                     0.173546
     14 O                    -0.294903
     15 H                     0.137164
     16 H                     0.153512
     17 O                    -0.360119
     18 H                     0.194407
     19 H                     0.166397
  ----------------------------------------
  Sum of atomic charges =     1.000000

 -----------------------------------------------------------------
                    Cartesian Multipole Moments
 -----------------------------------------------------------------
    Charge (ESU x 10^10)
                 4.8032
    Dipole Moment (Debye)
         X       0.9093      Y      -0.5849      Z       2.6730
       Tot       2.8834
    Quadrupole Moments (Debye-Ang)
        XX     -28.8524     XY       0.5292     YY     -25.0411
        XZ       5.3817     YZ      -8.1248     ZZ     -42.8722
    Octopole Moments (Debye-Ang^2)
       XXX       1.7473    XXY       3.9138    XYY       8.7600
       YYY      12.6050    XXZ      23.7511    XYZ      19.1694
       YYZ      21.2880    XZZ      -7.9378    YZZ      -9.9951
       ZZZ       2.0514
    Hexadecapole Moments (Debye-Ang^3)
      XXXX    -624.8637   XXXY      41.5645   XXYY    -224.2430
      XYYY     -20.8292   YYYY    -417.7544   XXXZ      31.1038
      XXYZ     -55.6423   XYYZ      22.4471   YYYZ     -20.6595
      XXZZ    -154.7613   XYZZ     -17.9581   YYZZ    -149.4642
      XZZZ      27.1437   YZZZ     -26.4753   ZZZZ    -431.3751
 -----------------------------------------------------------------
 Total job time:  2615.74s(wall), 5816.91s(cpu) 
 Fri Jan 12 05:38:04 2024

        *************************************************************
        *                                                           *
        *  Thank you very much for using Q-Chem.  Have a nice day.  *
        *                                                           *
        *************************************************************


