
Running Job 1 of 1 121_F-Water_Cls_052_almo.in
qchem 121_F-Water_Cls_052_almo.in_981811.0 /scratch/qchem981811/ 6
/home/kchung25/qchem/5.4.0/exe/qcprog.exe_s 121_F-Water_Cls_052_almo.in_981811.0 /scratch/qchem981811/
                  Welcome to Q-Chem
     A Quantum Leap Into The Future Of Chemistry


 Q-Chem 5.4, Q-Chem, Inc., Pleasanton, CA (2021)

 E. Epifanovsky,  A. T. B. Gilbert,  Xintian Feng,  Joonho Lee,  Yuezhi Mao,  
 N. Mardirossian,  P. Pokhilko,  A. White,  M. Wormit,  M. P. Coons,  
 A. L. Dempwolff,  Zhengting Gan,  D. Hait,  P. R. Horn,  L. D. Jacobson,  
 I. Kaliman,  J. Kussmann,  A. W. Lange,  Ka Un Lao,  D. S. Levine,  Jie Liu,  
 S. C. McKenzie,  A. F. Morrison,  K. Nanda,  F. Plasser,  D. R. Rehn,  
 M. L. Vidal,  Zhi-Qiang You,  Ying Zhu,  B. Alam,  B. Albrecht,  
 A. Aldossary,  E. Alguire,  J. H. Andersen,  D. Barton,  K. Begam,  A. Behn,  
 Y. A. Bernard,  E. J. Berquist,  H. Burton,  A. Carreras,  K. Carter-Fenk,  
 Romit Chakraborty,  A. D. Chien,  K. D. Closser,  V. Cofer-Shabica,  
 S. Dasgupta,  Jia Deng,  M. de Wergifosse,  M. Diedenhofen,  Hainam Do,  
 S. Ehlert,  Po-Tung Fang,  S. Fatehi,  Qingguo Feng,  T. Friedhoff,  
 J. Gayvert,  Qinghui Ge,  G. Gidofalvi,  M. Goldey,  J. Gomes,  
 C. Gonzalez-Espinoza,  S. Gulania,  A. Gunina,  M. W. D. Hanson-Heine,  
 P. H. P. Harbach,  A. W. Hauser,  M. F. Herbst,  M. Hernandez Vera,  
 M. Hodecker,  Z. C. Holden,  S. Houck,  Xunkun Huang,  Kerwin Hui,  
 B. C. Huynh,  M. Ivanov,  Hyunjun Ji,  Hanjie Jiang,  B. Kaduk,  S. Kaehler,  
 K. Khistyaev,  Jaehoon Kim,  P. Klunzinger,  Z. Koczor-Benda,  
 Joong Hoon Koh,  D. Kosenkov,  L. Koulias,  T. Kowalczyk,  C. M. Krauter,  
 K. Kue,  A. Kunitsa,  T. Kus,  A. Landau,  K. V. Lawler,  D. Lefrancois,  
 S. Lehtola,  Rain Li,  Yi-Pei Li,  Jiashu Liang,  M. Liebenthal,  
 Hung-Hsuan Lin,  You-Sheng Lin,  Fenglai Liu,  Kuan-Yu Liu,  
 M. Loipersberger,  A. Luenser,  A. Manjanath,  P. Manohar,  E. Mansoor,  
 S. F. Manzer,  Shan-Ping Mao,  A. V. Marenich,  T. Markovich,  S. Mason,  
 S. A. Maurer,  P. F. McLaughlin,  M. F. S. J. Menger,  J.-M. Mewes,  
 S. A. Mewes,  P. Morgante,  J. W. Mullinax,  K. J. Oosterbaan,  G. Paran,  
 Alexander C. Paul,  Suranjan K. Paul,  F. Pavosevic,  Zheng Pei,  S. Prager,  
 E. I. Proynov,  E. Ramos,  B. Rana,  A. E. Rask,  A. Rettig,  R. M. Richard,  
 F. Rob,  E. Rossomme,  T. Scheele,  M. Scheurer,  M. Schneider,  
 N. Sergueev,  S. M. Sharada,  W. Skomorowski,  D. W. Small,  C. J. Stein,  
 Yu-Chuan Su,  E. J. Sundstrom,  Zhen Tao,  J. Thirman,  T. Tsuchimochi,  
 N. M. Tubman,  S. P. Veccham,  O. Vydrov,  J. Wenzel,  J. Witte,  A. Yamada,  
 Kun Yao,  S. Yeganeh,  S. R. Yost,  A. Zech,  Igor Ying Zhang,  Xing Zhang,  
 Yu Zhang,  D. Zuev,  A. Aspuru-Guzik,  A. T. Bell,  N. A. Besley,  
 K. B. Bravaya,  B. R. Brooks,  D. Casanova,  Jeng-Da Chai,  S. Coriani,  
 C. J. Cramer,  A. E. DePrince, III,  R. A. DiStasio Jr.,  A. Dreuw,  
 B. D. Dunietz,  T. R. Furlani,  W. A. Goddard III,  S. Grimme,  
 S. Hammes-Schiffer,  T. Head-Gordon,  W. J. Hehre,  Chao-Ping Hsu,  
 T.-C. Jagau,  Yousung Jung,  A. Klamt,  Jing Kong,  D. S. Lambrecht,  
 WanZhen Liang,  N. J. Mayhall,  C. W. McCurdy,  J. B. Neaton,  T. Neudecker,  
 C. Ochsenfeld,  J. A. Parkhill,  R. Peverati,  V. A. Rassolov,  Yihan Shao,  
 L. V. Slipchenko,  R. P. Steele,  J. E. Subotnik,  A. J. W. Thom,  
 A. Tkatchenko,  D. G. Truhlar,  T. Van Voorhis,  T. A. Wesolowski,  
 K. B. Whaley,  H. L. Woodcock III,  P. M. Zimmerman,  S. Faraji,  
 P. M. W. Gill,  M. Head-Gordon,  J. M. Herbert,  A. I. Krylov

 Additional authors since Version 5.4.0: 
 Chandrima Chakravarty,  L. Cunha,  R. Kang,  Yongbin Kim,  S. Kotaru,  
 Shaozhi Li,  Xiangyuan Li,  F. Matz,  A. Molle,  V. Parravicini,  
 Haisheng Ren,  Hengyuan Shen,  Yingli Su,  Hung-Yi Tsai,  C. Utku,  
 Fang Wang,  Jeff Yang,  F. Zeller

 Contributors to earlier versions of Q-Chem not listed above: 
 R. D. Adamson,  B. Austin,  R. Baer,  J. Baker,  G. J. O. Beran,  
 K. Brandhorst,  S. T. Brown,  E. F. C. Byrd,  Arup K. Chakraborty,  
 G. K. L. Chan,  Chun-Min Chang,  Yunqing Chen,  C.-L. Cheng,  
 Siu Hung Chien,  D. M. Chipman,  D. L. Crittenden,  H. Dachsel,  
 R. J. Doerksen,  A. D. Dutoi,  R. G. Edgar,  J. Fosso-Tande,  
 L. Fusti-Molnar,  D. Ghosh,  A. Ghysels,  A. Golubeva-Zadorozhnaya,  
 J. Gonthier,  M. S. Gordon,  S. R. Gwaltney,  G. Hawkins,  J. E. Herr,  
 A. Heyden,  S. Hirata,  E. G. Hohenstein,  G. Kedziora,  F. J. Keil,  
 C. Kelley,  Jihan Kim,  R. A. King,  R. Z. Khaliullin,  P. P. Korambath,  
 W. Kurlancheek,  A. Laurent,  A. M. Lee,  M. S. Lee,  S. V. Levchenko,  
 Ching Yeh Lin,  D. Liotard,  E. Livshits,  R. C. Lochan,  I. Lotan,  
 L. A. Martinez-Martinez,  P. E. Maslen,  N. Nair,  D. P. O'Neill,  
 D. Neuhauser,  E. Neuscamman,  C. M. Oana,  R. Olivares-Amaya,  R. Olson,  
 T. M. Perrine,  B. Peters,  P. A. Pieniazek,  A. Prociuk,  Y. M. Rhee,  
 J. Ritchie,  M. A. Rohrdanz,  E. Rosta,  N. J. Russ,  H. F. Schaefer III,  
 M. W. Schmidt,  N. E. Schultz,  S. Sharma,  N. Shenvi,  C. D. Sherrill,  
 A. C. Simmonett,  A. Sodt,  T. Stein,  D. Stuck,  K. S. Thanthiriwatte,  
 V. Vanovschi,  L. Vogt,  Tao Wang,  A. Warshel,  M. A. Watson,  
 C. F. Williams,  Q. Wu,  X. Xu,  Jun Yang,  W. Zhang,  Yan Zhao

   Please cite Q-Chem as follows:
  "Software for the frontiers of quantum chemistry:
   An overview of developments in the Q-Chem 5 package"
   J. Chem. Phys. 155, 084801 (2021)
   https://doi.org/10.1063/5.0055522 (open access)

 Q-Chem 5.4.2 for Intel X86 EM64T Linux

 Parts of Q-Chem use Armadillo 9.900.5 (Nocturnal Misbehaviour).
 http://arma.sourceforge.net/

 Q-Chem begins on Mon Jan 15 13:45:39 2024  

 Host: 
0

     Scratch files written to /scratch/qchem981811//
 Dec1321 |scratch|qcdevops|jenkins|workspace|build_RNUM 5684   
 Processing $rem in /home/kchung25/qchem/5.4.0/config/preferences:
 Processing $rem in /home/kchung25/.qchemrc:

 Q-Chem warning in module libgen/rem_setup.C, line 3079:

 Neither GIA nor STOLL is specified by user. Use STOLL as the default


 Checking the input file for inconsistencies... 	...done.

--------------------------------------------------------------
User input:
--------------------------------------------------------------
$molecule
-1 1
--
-1 1
F      0.000000     0.000000     0.000000
--
0 1
O     -1.204616    -0.136785     2.716651
H     -0.764095     0.061585     1.873340
H     -0.834247    -0.946190     3.055175
O     -2.460796     0.663282    -0.931792
H     -1.503367     0.475959    -0.909133
H     -2.899102    -0.181671    -1.051267
O     -0.180675     2.936706    -0.188779
H      0.620744     3.487452    -0.094289
H      0.182580     2.104557    -0.393553
O     -1.696100    -2.154749    -0.360661
H     -0.850512    -1.713972    -0.187306
H     -2.184590    -2.113638     0.460314
O      2.323319     0.756460     1.937201
H      2.977037     0.096931     1.837480
H      1.649232     0.600110     1.235624
O      2.482985     0.570779    -1.259187
H      1.623031     0.282269    -0.820127
H      2.415357     1.553745    -1.408463
$end

$rem
JOBTYPE          eda
EDA2             1
METHOD           wB97M-V
BASIS            def2-TZVPPD
SYMMETRY         false
MEM_TOTAL        50000
MEM_STATIC       10000
THRESH           14
SCF_CONVERGENCE  8
XC_GRID          000099000590
NL_GRID          1
EDA_CLS_DISP     true
FD_MAT_VEC_PROD  FALSE
$end
--------------------------------------------------------------
 ----------------------------------------------------------------
             Standard Nuclear Orientation (Angstroms)
    I     Atom           X                Y                Z
 ----------------------------------------------------------------
    1      F      -0.1051467341     0.0564089072    -0.4429324723
    2      O      -1.1281790705    -2.1208871048     1.3071502155
    3      H      -0.6801581325    -1.3864557634     0.8549658561
    4      H      -1.1556278863    -2.8592427229     0.7063293666
    5      O      -2.0255901959     1.6537611691     0.6172839953
    6      H      -1.2597697417     1.3590722794     0.0891257643
    7      H      -2.8062067983     1.4551867626     0.0961909876
    8      O       1.0697077459     1.6058204589     1.7732723674
    9      H       2.0373575237     1.6190931924     1.9074352248
   10      H       1.0036012160     1.3288070382     0.8871278894
   11      O      -2.6118967842    -0.2873799865    -1.5599768773
   12      H      -1.6521133761    -0.4016703116    -1.4885001909
   13      H      -2.9939175703    -0.8828919482    -0.9167520585
   14      O       2.3830217326    -1.7315097858     0.1359933003
   15      H       2.6581422759    -2.0774281986    -0.6867576593
   16      H       1.6843416480    -1.0629396107    -0.0535032783
   17      O       2.3108935983     0.9190888546    -1.6656701787
   18      H       1.4327082452     0.5759884301    -1.3098539759
   19      H       2.6943069937     1.5136518435    -0.9638382556
 ----------------------------------------------------------------
 Molecular Point Group                 C1    NOp =  1
 Largest Abelian Subgroup              C1    NOp =  1
 Nuclear Repulsion Energy =         353.27435422 hartrees
 There are       35 alpha and       35 beta electrons
 Requested basis set is def2-TZVPPD
 There are 182 shells and 484 basis functions

 Q-Chem warning in module libmdc/get_mega.C, line 171:

 Allowed MEM_STATIC has been capped at MEM_STATIC=8191.
 Reduce the value of MEM_STATIC to silence this warning.


 Total QAlloc Memory Limit  50000 MB
 Mega-Array Size      8007 MB
 MEM_STATIC part      8191 MB
 A cutoff of  1.0D-14 yielded  14480 shell pairs
 There are    100318 function pairs (    122287 Cartesian)
 Smallest overlap matrix eigenvalue = 8.05E-05

 Scale SEOQF with 1.000000e-01/1.000000e-01/1.000000e-01

 Standard Electronic Orientation quadrupole field applied
 Nucleus-field energy     =     0.0000000080 hartrees

 -----------------------------------------------------------------------
  General SCF calculation program by
  Eric Jon Sundstrom, Paul Horn, Yuezhi Mao, Dmitri Zuev, Alec White,
  David Stuck, Shaama M.S., Shane Yost, Joonho Lee, David Small,
  Daniel Levine, Susi Lehtola, Hugh Burton, Evgeny Epifanovsky,
  Bang C. Huynh
 -----------------------------------------------------------------------
================================================================
                 ALMO-EDA with the EDA2 driver                  
================================================================
 The second-generation ALMO-EDA (for DFT):                      
 P. R. Horn, Y. Mao and M. Head-Gordon, PCCP, 18, 23067 (2016)  
 Y. Mao et al. Annu. Rev. Phys. Chem. 72, 641 (2021)            
 Decomposition of the frozen energy:                            
 P. R. Horn, Y. Mao and M. Head-Gordon, JCP, 144, 114107 (2016) 
 FERF model for polarization:                                   
 P. R. Horn and M. Head-Gordon, JCP, 143, 114111 (2015)         
================================================================
 Using eda2 option set 1
 Option set summary: Frozen orbital wavefunction, initial wavefunction decomposition, and nDQ polarization.
--------------------------------
Printing EDA Options
--------------------------------
eda_child_super_basis      0
fragmo_guess_mode          0
child_mp                   1
child_mp_orders            232
cls_elec                   1
cls_disp                   1
scfmi_mode                 1
scfmi_occs                 0
scfmi_virts                0
frz_relax                  0
frz_relax_method           0
dc_pen_start               0
dc_pen_conv                0
dc_pen_increment           0
dc_pen_steps               0
dc_pen_thresh_factor       0
dc_pen_pre_newton_thresh   0
frz_ortho_decomp           1
frz_ortho_decomp_conv      6
plot_mo_ortho_frz          0
frgm_method                2
scfmi_freeze_ss            0
separate_rehyb             0
plot_diff_den              0
eda_nocv                   0
eda_vct_relax              1
disp_free_x                0
disp_free_c                0
eda_bsse                   0
eda_pct_a                  0
eda_covp                   0
--------------------------------
Attempting to make child job directory: /scratch/qchem981811//Frg1/
Attempting to make child job directory: /scratch/qchem981811//Frg2/
Creating input file /scratch/qchem981811/Frg1.input
using default PutDataFrgm: nothing
calling putenv with: QCSCRATCH=/scratch/qchem981811/ 
Spawning Job For Fragment 0
Done Job For Fragment 0
calling putenv with: QCSCRATCH=/scratch 
calling putenv with: QCTHREADS=6 
Creating input file /scratch/qchem981811/Frg2.input
using default PutDataFrgm: nothing
calling putenv with: QCSCRATCH=/scratch/qchem981811/ 
Spawning Job For Fragment 1
Done Job For Fragment 1
calling putenv with: QCSCRATCH=/scratch 
calling putenv with: QCTHREADS=6 
Doing General SCFMI
 Exchange:     0.1500 Hartree-Fock + 1.0000 wB97M-V + LR-HF
 Correlation:  1.0000 wB97M-V
 Using Euler-Maclaurin-Lebedev (99,590) quadrature formula
 Nonlocal Correlation:  VV10 with C = 0.0100 and b = 6.00 and scale = 1.00000
 Grid used for NLC:  SG-1 standard quadrature
performing fock build before subrot guess so that all methods have access
Printing subrot_rss_gen Method Specification:
Occupied Subspace Method is 0
Virtual Subspace Method is 0
Energy of the unrelaxed supersystem initial determinant -558.555483762240
write pseudocanon occs and virts to disk
write pseudocanon orbital energies to disk
Tolerance of ortho_decomp_scf: 1.00e-06
GDM subspace size: 20
Beginning the Orthogonal Decomposition of the Initial Supersystem Wavefunction
    1    -558.1565201549      2.71e-01     ortho_decomp Preconditoned Steepest Descent
    2    -558.2048519748      6.68e-03     ortho_decomp BFGS Step
    3    -558.2050077968      4.27e-04     ortho_decomp BFGS Step
    4    -558.2050079142      1.23e-05     ortho_decomp BFGS Step
    5    -558.2050079145      3.87e-07     ortho_decomp 00000 Convergence criterion met
 Hartree-Fock
 Hartree-Fock
 Hartree-Fock
 Exchange:     0.1500 Hartree-Fock + 1.0000 wB97M-V + LR-HF
 Correlation:  1.0000 wB97M-V
 Using Euler-Maclaurin-Lebedev (99,590) quadrature formula
 Nonlocal Correlation:  VV10 with C = 0.0100 and b = 6.00 and scale = 1.00000
 Grid used for NLC:  SG-1 standard quadrature
 Long-range K will be added via erf
 Coulomb attenuation parameter = 0.3 bohr**(-1)
 Nonlocal correlation = 2.874085127075e-01
Doing General SCFMI
 Exchange:     0.1500 Hartree-Fock + 1.0000 wB97M-V + LR-HF
 Correlation:  1.0000 wB97M-V
 Using Euler-Maclaurin-Lebedev (99,590) quadrature formula
 Nonlocal Correlation:  VV10 with C = 0.0100 and b = 6.00 and scale = 1.00000
 Grid used for NLC:  SG-1 standard quadrature
performing fock build at end of subrot_r(subrot) constructor so that all methods have access
<S^2> of initial wavefunction before polarization iterations 0.0000000000
Beginning iterations for the determination of the polarized wavefunction
Energy prior to optimization (guess energy) = -558.555483762240
Begin Timing: Total SCF Calculation
begin iterations for algorithm: DIIS         
the SCF tolerance is set to 1.00e-08
    1    -558.5554837622      8.02e-04     00000 
    2    -558.5880990143      5.41e-04     00000 
    3    -558.5965470929      2.11e-04     00000 
    4    -558.5979907165      4.44e-05     00000 
    5    -558.5982518812      1.90e-05     00000 
    6    -558.5982743586      1.04e-05     00000 
    7    -558.5982783991      1.50e-06     00000 
    8    -558.5982786453      5.65e-07     00000 
    9    -558.5982786608      3.54e-07     00000 
   10    -558.5982786646      1.17e-07     00000 
   11    -558.5982786649      4.81e-08     00000 
   12    -558.5982786649      1.54e-08     00000 
   13    -558.5982786649      9.91e-09     00000 Convergence criterion met
write pseudocanon occs and virts to disk
write pseudocanon orbital energies to disk
Timing for Total SCF: 339.00s (wall), 2033.30s (cpu)
<S^2> of polarized wavefunction after polarization iterations 0.0000000000
relaxing scfmi constraint to allow all rotations in the entire AO span
Doing General SCFMI
 Exchange:     0.1500 Hartree-Fock + 1.0000 wB97M-V + LR-HF
 Correlation:  1.0000 wB97M-V
 Using Euler-Maclaurin-Lebedev (99,590) quadrature formula
 Nonlocal Correlation:  VV10 with C = 0.0100 and b = 6.00 and scale = 1.00000
 Grid used for NLC:  SG-1 standard quadrature
performing fock build at end of subrot_r(subrot) constructor so that all methods have access
<S^2> of polarized wavefunction before ct-allowed iterations 0.0000000000
Beginning iterations for the determination of the CT-Allowed wavefunction
Energy prior to optimization (guess energy) = -558.598278664945
Begin Timing: Total SCF Calculation
begin iterations for algorithm: DIIS         
the SCF tolerance is set to 1.00e-08
    1    -558.5982786649      3.35e-04     00000 
    2    -558.6141395634      8.96e-05     00000 
    3    -558.6144287433      9.69e-05     00000 
    4    -558.6150358138      5.98e-06     00000 
    5    -558.6150417839      1.99e-06     00000 
    6    -558.6150421414      6.47e-07     00000 
    7    -558.6150422057      9.47e-08     00000 
    8    -558.6150422080      4.35e-08     00000 
    9    -558.6150422083      1.96e-08     00000 
   10    -558.6150422083      3.11e-09     00000 Convergence criterion met
write pseudocanon occs and virts to disk
write pseudocanon orbital energies to disk
Timing for Total SCF: 249.00s (wall), 1497.69s (cpu)
<S^2> of ct_allowed wavefunction after ct-allowed iterations 0.0000000000

================================
        Results of EDA2         
================================
Basic EDA Quantities
--------------------
Fragment Energies (Ha):
1  -99.8700285039
2 -458.5989895169
--------------------
  E_prp (kJ/mol) = -0.0000
  E_frz (kJ/mol) = -227.0185
  E_pol (kJ/mol) = -112.3594
  E_vct (kJ/mol) = -44.0132
  E_int (kJ/mol) = -383.3911
--------------------


Decomposition of frozen interaction energy
--------------------
  --------------------
  Orthogonal Frozen Decomposition:
  --------------------
     E_elec   (ELEC)   (kJ/mol) = -738.0326
     E_pauli  (PAULI)  (kJ/mol) = 562.4363
     E_disp   (DISP)   (kJ/mol) = -51.4223
  --------------------
  Classical Frozen Decomposition:
  --------------------
     E_cls_elec  (CLS ELEC)  (kJ/mol) = -417.7847
     E_mod_pauli (MOD PAULI) (kJ/mol) = 220.0227 (FRZ - CLS ELEC - CLS DISP)
     E_cls_disp  (CLS DISP)  (kJ/mol) = -29.2565
  --------------------
--------------------

Simplified EDA Summary (kJ/mol)
--------------------
 PREPARATION      -0.0000
 FROZEN           -227.0185 (ELEC + PAULI + DISP)
[ELEC + PAULI = -197.7620, DISP = -29.2565]
 POLARIZATION    -112.3594
 CHARGE TRANSFER -44.0132
 TOTAL           -383.3911     (PRP + FRZ + POL + CT)
--------------------
 
 --------------------------------------------------------------
 
                    Orbital Energies (a.u.)
 --------------------------------------------------------------
 
 Alpha MOs
 -- Occupied --
-24.6346 -19.1976 -19.1961 -19.1943 -19.1880 -19.1843 -19.1524  -1.0270
 -1.0064  -1.0015  -0.9936  -0.9886  -0.9817  -0.9555  -0.5083  -0.4999
 -0.4976  -0.4959  -0.4881  -0.4623  -0.3765  -0.3649  -0.3638  -0.3568
 -0.3504  -0.3357  -0.2975  -0.2916  -0.2836  -0.2813  -0.2780  -0.2751
 -0.2712  -0.2688  -0.2447
 -- Virtual --
  0.1323   0.1401   0.1518   0.1574   0.1676   0.1784   0.1830   0.1950
  0.1974   0.2134   0.2159   0.2198   0.2224   0.2286   0.2389   0.2436
  0.2540   0.2564   0.2706   0.2754   0.2841   0.2917   0.2972   0.3017
  0.3165   0.3258   0.3298   0.3485   0.3499   0.3502   0.3656   0.3742
  0.3848   0.3907   0.3924   0.4053   0.4078   0.4103   0.4195   0.4276
  0.4345   0.4393   0.4435   0.4438   0.4449   0.4607   0.4650   0.4693
  0.4713   0.4748   0.4808   0.4890   0.4910   0.5066   0.5111   0.5161
  0.5214   0.5299   0.5310   0.5398   0.5510   0.5528   0.5547   0.5670
  0.5707   0.5763   0.5822   0.5883   0.5973   0.6009   0.6120   0.6221
  0.6293   0.6411   0.6447   0.6550   0.6595   0.6619   0.6790   0.6804
  0.6899   0.6959   0.7187   0.7273   0.7336   0.7378   0.7399   0.7448
  0.7504   0.7596   0.7634   0.7753   0.7858   0.7918   0.7985   0.8027
  0.8086   0.8187   0.8318   0.8358   0.8422   0.8509   0.8641   0.8863
  0.8922   0.8988   0.9084   0.9177   0.9261   0.9384   0.9592   0.9711
  0.9794   0.9852   0.9947   0.9965   1.0042   1.0183   1.0299   1.0370
  1.0473   1.0568   1.0634   1.0673   1.0718   1.0892   1.0950   1.0956
  1.1101   1.1258   1.1290   1.1536   1.1590   1.1689   1.1751   1.1908
  1.1968   1.2043   1.2257   1.2366   1.2378   1.2526   1.2677   1.2795
  1.3013   1.3027   1.3096   1.3119   1.3283   1.3436   1.3526   1.3636
  1.3658   1.3763   1.3912   1.3948   1.4065   1.4167   1.4254   1.4428
  1.4439   1.4560   1.4702   1.4820   1.4896   1.4921   1.5045   1.5187
  1.5465   1.5519   1.5597   1.5773   1.5862   1.5915   1.5966   1.6134
  1.6295   1.6381   1.6485   1.6546   1.6833   1.7557   1.8774   1.9167
  1.9445   2.0361   2.1034   2.1195   2.1232   2.1278   2.1371   2.1423
  2.1672   2.1864   2.2217   2.2326   2.2483   2.2620   2.2652   2.2955
  2.3169   2.3323   2.3529   2.3699   2.3782   2.3868   2.3995   2.4152
  2.4274   2.4485   2.4511   2.4663   2.4880   2.5005   2.5048   2.5155
  2.5303   2.7742   2.7814   2.8062   2.8152   2.8233   2.8401   2.9017
  2.9132   2.9309   2.9711   2.9871   2.9950   3.0230   3.0610   3.0698
  3.1002   3.1020   3.1752   3.2166   3.2356   3.2621   3.2685   3.3035
  3.3608   3.3865   3.3972   3.4166   3.4265   3.4382   3.4495   3.4603
  3.4638   3.4702   3.4820   3.4932   3.5127   3.5352   3.5482   3.5563
  3.5672   3.5720   3.5751   3.5859   3.5987   3.6063   3.6138   3.6235
  3.6323   3.6475   3.6572   3.6637   3.6687   3.6824   3.6921   3.7037
  3.7177   3.7352   3.7598   3.7865   3.8297   3.8365   3.8497   3.8931
  3.8983   3.9343   3.9553   3.9621   3.9988   4.0222   4.0319   4.0546
  4.0733   4.0950   4.1070   4.1295   4.1376   4.1406   4.1488   4.1644
  4.1834   4.1944   4.1997   4.2150   4.2217   4.2387   4.2499   4.2548
  4.2588   4.2700   4.2812   4.2953   4.3036   4.3083   4.3174   4.3353
  4.3386   4.3549   4.3666   4.3773   4.3855   4.4167   4.4338   4.4467
  4.4528   4.4574   4.4766   4.4866   4.4934   4.5085   4.5183   4.5258
  4.5367   4.5667   4.5711   4.6533   4.6650   4.8538   4.8655   4.9037
  4.9177   4.9207   4.9289   4.9514   4.9589   4.9795   4.9877   5.0021
  5.0538   5.0840   5.1538   5.1779   5.2138   5.2289   5.2383   5.2401
  5.3135   5.3924   5.4086   5.4192   5.4420   5.4995   5.7721   5.8503
  5.8553   5.8597   5.8884   5.8984   6.2456   6.3713   6.3893   6.4147
  6.4220   6.5376   6.5779   6.6584   6.6651   6.6729   6.7039   6.7257
  6.7320   6.7761   6.7789   6.7827   6.7891   6.8019   6.8185   6.8281
  6.8340   6.8383   6.8504   6.8571   6.8643   6.8798   6.8970   6.9066
  6.9120   6.9282   6.9328   6.9384   6.9721   6.9784   7.0095   7.0238
  7.0293   7.0514   7.0671   7.0730   7.0863   7.0985   7.2386   7.2644
  7.2741   7.2757   7.2894   7.2932   7.3051   7.3189   7.3371   7.3535
  7.3638   7.4360   7.4766   7.6194   7.6436   7.6872   7.7032   7.7052
  7.7187   7.7419   7.7905   7.8200   7.8350   7.8567   7.9183   7.9875
  8.0447   8.0646   8.0744   8.0817   8.1332   8.9832   9.0163   9.1449
  9.1716   9.1889  44.6606  44.6729  44.6964  44.7334  44.7372  44.7635
 58.3366
 --------------------------------------------------------------
 
          Ground-State Mulliken Net Atomic Charges

     Atom                 Charge (a.u.)
  ----------------------------------------
      1 F                    -0.736779
      2 O                    -0.457366
      3 H                     0.294975
      4 H                     0.131715
      5 O                    -0.459533
      6 H                     0.266931
      7 H                     0.149308
      8 O                    -0.360861
      9 H                     0.151714
     10 H                     0.168519
     11 O                    -0.474162
     12 H                     0.245638
     13 H                     0.173262
     14 O                    -0.445249
     15 H                     0.115258
     16 H                     0.297927
     17 O                    -0.540311
     18 H                     0.290102
     19 H                     0.188913
  ----------------------------------------
  Sum of atomic charges =    -1.000000

 -----------------------------------------------------------------
                    Cartesian Multipole Moments
 -----------------------------------------------------------------
    Charge (ESU x 10^10)
                -4.8032
    Dipole Moment (Debye)
         X       1.8794      Y      -1.8237      Z      -1.6281
       Tot       3.0836
    Quadrupole Moments (Debye-Ang)
        XX     -61.3425     XY       8.1918     YY     -57.3265
        XZ       3.3723     YZ       4.9490     ZZ     -69.1006
    Octopole Moments (Debye-Ang^2)
       XXX      -3.2010    XXY       5.8376    XYY       8.4007
       YYY     -25.7198    XXZ      20.2283    XYZ      16.6135
       YYZ     -26.6116    XZZ      12.6585    YZZ      -4.9920
       ZZZ       5.8290
    Hexadecapole Moments (Debye-Ang^3)
      XXXX   -1104.5333   XXXY      53.0239   XXYY    -279.8409
      XYYY      48.4984   YYYY    -654.4968   XXXZ      -3.4420
      XXYZ      41.9908   XYYZ       6.8603   YYYZ      11.4203
      XXZZ    -346.3424   XYZZ     -24.1325   YYZZ    -231.2734
      XZZZ      17.5623   YZZZ      20.3626   ZZZZ    -550.6003
 -----------------------------------------------------------------
 Total job time:  2904.90s(wall), 6440.66s(cpu) 
 Mon Jan 15 14:34:03 2024

        *************************************************************
        *                                                           *
        *  Thank you very much for using Q-Chem.  Have a nice day.  *
        *                                                           *
        *************************************************************


