
Running Job 1 of 1 121_F-Water_Cls_097_almo.in
qchem 121_F-Water_Cls_097_almo.in_1021569.0 /scratch/qchem1021569/ 6
/home/kchung25/qchem/5.4.0/exe/qcprog.exe_s 121_F-Water_Cls_097_almo.in_1021569.0 /scratch/qchem1021569/
                  Welcome to Q-Chem
     A Quantum Leap Into The Future Of Chemistry


 Q-Chem 5.4, Q-Chem, Inc., Pleasanton, CA (2021)

 E. Epifanovsky,  A. T. B. Gilbert,  Xintian Feng,  Joonho Lee,  Yuezhi Mao,  
 N. Mardirossian,  P. Pokhilko,  A. White,  M. Wormit,  M. P. Coons,  
 A. L. Dempwolff,  Zhengting Gan,  D. Hait,  P. R. Horn,  L. D. Jacobson,  
 I. Kaliman,  J. Kussmann,  A. W. Lange,  Ka Un Lao,  D. S. Levine,  Jie Liu,  
 S. C. McKenzie,  A. F. Morrison,  K. Nanda,  F. Plasser,  D. R. Rehn,  
 M. L. Vidal,  Zhi-Qiang You,  Ying Zhu,  B. Alam,  B. Albrecht,  
 A. Aldossary,  E. Alguire,  J. H. Andersen,  D. Barton,  K. Begam,  A. Behn,  
 Y. A. Bernard,  E. J. Berquist,  H. Burton,  A. Carreras,  K. Carter-Fenk,  
 Romit Chakraborty,  A. D. Chien,  K. D. Closser,  V. Cofer-Shabica,  
 S. Dasgupta,  Jia Deng,  M. de Wergifosse,  M. Diedenhofen,  Hainam Do,  
 S. Ehlert,  Po-Tung Fang,  S. Fatehi,  Qingguo Feng,  T. Friedhoff,  
 J. Gayvert,  Qinghui Ge,  G. Gidofalvi,  M. Goldey,  J. Gomes,  
 C. Gonzalez-Espinoza,  S. Gulania,  A. Gunina,  M. W. D. Hanson-Heine,  
 P. H. P. Harbach,  A. W. Hauser,  M. F. Herbst,  M. Hernandez Vera,  
 M. Hodecker,  Z. C. Holden,  S. Houck,  Xunkun Huang,  Kerwin Hui,  
 B. C. Huynh,  M. Ivanov,  Hyunjun Ji,  Hanjie Jiang,  B. Kaduk,  S. Kaehler,  
 K. Khistyaev,  Jaehoon Kim,  P. Klunzinger,  Z. Koczor-Benda,  
 Joong Hoon Koh,  D. Kosenkov,  L. Koulias,  T. Kowalczyk,  C. M. Krauter,  
 K. Kue,  A. Kunitsa,  T. Kus,  A. Landau,  K. V. Lawler,  D. Lefrancois,  
 S. Lehtola,  Rain Li,  Yi-Pei Li,  Jiashu Liang,  M. Liebenthal,  
 Hung-Hsuan Lin,  You-Sheng Lin,  Fenglai Liu,  Kuan-Yu Liu,  
 M. Loipersberger,  A. Luenser,  A. Manjanath,  P. Manohar,  E. Mansoor,  
 S. F. Manzer,  Shan-Ping Mao,  A. V. Marenich,  T. Markovich,  S. Mason,  
 S. A. Maurer,  P. F. McLaughlin,  M. F. S. J. Menger,  J.-M. Mewes,  
 S. A. Mewes,  P. Morgante,  J. W. Mullinax,  K. J. Oosterbaan,  G. Paran,  
 Alexander C. Paul,  Suranjan K. Paul,  F. Pavosevic,  Zheng Pei,  S. Prager,  
 E. I. Proynov,  E. Ramos,  B. Rana,  A. E. Rask,  A. Rettig,  R. M. Richard,  
 F. Rob,  E. Rossomme,  T. Scheele,  M. Scheurer,  M. Schneider,  
 N. Sergueev,  S. M. Sharada,  W. Skomorowski,  D. W. Small,  C. J. Stein,  
 Yu-Chuan Su,  E. J. Sundstrom,  Zhen Tao,  J. Thirman,  T. Tsuchimochi,  
 N. M. Tubman,  S. P. Veccham,  O. Vydrov,  J. Wenzel,  J. Witte,  A. Yamada,  
 Kun Yao,  S. Yeganeh,  S. R. Yost,  A. Zech,  Igor Ying Zhang,  Xing Zhang,  
 Yu Zhang,  D. Zuev,  A. Aspuru-Guzik,  A. T. Bell,  N. A. Besley,  
 K. B. Bravaya,  B. R. Brooks,  D. Casanova,  Jeng-Da Chai,  S. Coriani,  
 C. J. Cramer,  A. E. DePrince, III,  R. A. DiStasio Jr.,  A. Dreuw,  
 B. D. Dunietz,  T. R. Furlani,  W. A. Goddard III,  S. Grimme,  
 S. Hammes-Schiffer,  T. Head-Gordon,  W. J. Hehre,  Chao-Ping Hsu,  
 T.-C. Jagau,  Yousung Jung,  A. Klamt,  Jing Kong,  D. S. Lambrecht,  
 WanZhen Liang,  N. J. Mayhall,  C. W. McCurdy,  J. B. Neaton,  T. Neudecker,  
 C. Ochsenfeld,  J. A. Parkhill,  R. Peverati,  V. A. Rassolov,  Yihan Shao,  
 L. V. Slipchenko,  R. P. Steele,  J. E. Subotnik,  A. J. W. Thom,  
 A. Tkatchenko,  D. G. Truhlar,  T. Van Voorhis,  T. A. Wesolowski,  
 K. B. Whaley,  H. L. Woodcock III,  P. M. Zimmerman,  S. Faraji,  
 P. M. W. Gill,  M. Head-Gordon,  J. M. Herbert,  A. I. Krylov

 Additional authors since Version 5.4.0: 
 Chandrima Chakravarty,  L. Cunha,  R. Kang,  Yongbin Kim,  S. Kotaru,  
 Shaozhi Li,  Xiangyuan Li,  F. Matz,  A. Molle,  V. Parravicini,  
 Haisheng Ren,  Hengyuan Shen,  Yingli Su,  Hung-Yi Tsai,  C. Utku,  
 Fang Wang,  Jeff Yang,  F. Zeller

 Contributors to earlier versions of Q-Chem not listed above: 
 R. D. Adamson,  B. Austin,  R. Baer,  J. Baker,  G. J. O. Beran,  
 K. Brandhorst,  S. T. Brown,  E. F. C. Byrd,  Arup K. Chakraborty,  
 G. K. L. Chan,  Chun-Min Chang,  Yunqing Chen,  C.-L. Cheng,  
 Siu Hung Chien,  D. M. Chipman,  D. L. Crittenden,  H. Dachsel,  
 R. J. Doerksen,  A. D. Dutoi,  R. G. Edgar,  J. Fosso-Tande,  
 L. Fusti-Molnar,  D. Ghosh,  A. Ghysels,  A. Golubeva-Zadorozhnaya,  
 J. Gonthier,  M. S. Gordon,  S. R. Gwaltney,  G. Hawkins,  J. E. Herr,  
 A. Heyden,  S. Hirata,  E. G. Hohenstein,  G. Kedziora,  F. J. Keil,  
 C. Kelley,  Jihan Kim,  R. A. King,  R. Z. Khaliullin,  P. P. Korambath,  
 W. Kurlancheek,  A. Laurent,  A. M. Lee,  M. S. Lee,  S. V. Levchenko,  
 Ching Yeh Lin,  D. Liotard,  E. Livshits,  R. C. Lochan,  I. Lotan,  
 L. A. Martinez-Martinez,  P. E. Maslen,  N. Nair,  D. P. O'Neill,  
 D. Neuhauser,  E. Neuscamman,  C. M. Oana,  R. Olivares-Amaya,  R. Olson,  
 T. M. Perrine,  B. Peters,  P. A. Pieniazek,  A. Prociuk,  Y. M. Rhee,  
 J. Ritchie,  M. A. Rohrdanz,  E. Rosta,  N. J. Russ,  H. F. Schaefer III,  
 M. W. Schmidt,  N. E. Schultz,  S. Sharma,  N. Shenvi,  C. D. Sherrill,  
 A. C. Simmonett,  A. Sodt,  T. Stein,  D. Stuck,  K. S. Thanthiriwatte,  
 V. Vanovschi,  L. Vogt,  Tao Wang,  A. Warshel,  M. A. Watson,  
 C. F. Williams,  Q. Wu,  X. Xu,  Jun Yang,  W. Zhang,  Yan Zhao

   Please cite Q-Chem as follows:
  "Software for the frontiers of quantum chemistry:
   An overview of developments in the Q-Chem 5 package"
   J. Chem. Phys. 155, 084801 (2021)
   https://doi.org/10.1063/5.0055522 (open access)

 Q-Chem 5.4.2 for Intel X86 EM64T Linux

 Parts of Q-Chem use Armadillo 9.900.5 (Nocturnal Misbehaviour).
 http://arma.sourceforge.net/

 Q-Chem begins on Tue Jan 16 16:14:20 2024  

 Host: 
0

     Scratch files written to /scratch/qchem1021569//
 Dec1321 |scratch|qcdevops|jenkins|workspace|build_RNUM 5684   
 Processing $rem in /home/kchung25/qchem/5.4.0/config/preferences:
 Processing $rem in /home/kchung25/.qchemrc:

 Q-Chem warning in module libgen/rem_setup.C, line 3079:

 Neither GIA nor STOLL is specified by user. Use STOLL as the default


 Checking the input file for inconsistencies... 	...done.

--------------------------------------------------------------
User input:
--------------------------------------------------------------
$molecule
-1 1
--
-1 1
F      0.000000     0.000000     0.000000
--
0 1
O      2.575075     1.073331     0.885547
H      2.106665     1.918583     0.702596
H      2.020041     0.521984     0.325554
O      0.883125    -2.526453     0.876729
H      0.128634    -3.022285     1.173703
H      0.480571    -1.707949     0.521989
O     -1.584240    -0.527688    -2.161408
H     -1.072012    -0.480481    -1.337240
H     -1.395342    -1.397524    -2.511963
O     -2.043312     1.766266     0.317173
H     -2.873447     1.429607    -0.044182
H     -1.403098     0.963197     0.113049
O     -0.453685     0.678264     2.814720
H      0.049164     0.242469     2.102026
H     -1.380466     0.343591     2.776247
$end

$rem
JOBTYPE          eda
EDA2             1
METHOD           wB97M-V
BASIS            def2-TZVPPD
SYMMETRY         false
MEM_TOTAL        50000
MEM_STATIC       10000
THRESH           14
SCF_CONVERGENCE  8
XC_GRID          000099000590
NL_GRID          1
EDA_CLS_DISP     true
FD_MAT_VEC_PROD  FALSE
$end
--------------------------------------------------------------
 ----------------------------------------------------------------
             Standard Nuclear Orientation (Angstroms)
    I     Atom           X                Y                Z
 ----------------------------------------------------------------
    1      F      -0.1754931528     0.2692386769     0.3285492449
    2      O       2.3274416300    -0.1364381076     1.7907352796
    3      H       1.8320052861    -0.9260153631     2.1044876129
    4      H       1.5554962196     0.3767891509     1.5331765868
    5      O       1.1281986064     2.3135294375    -1.1042073113
    6      H       0.7617951879     2.3472310741    -1.9805133838
    7      H       0.5714764254     1.6419419591    -0.6605073446
    8      O      -2.7716274894     1.0968788274     0.5157759338
    9      H      -1.8475229397     0.8793486300     0.3094501924
   10      H      -2.8350516072     2.0398929375     0.3678310163
   11      O      -1.5624592114    -2.0394813262    -0.0476891415
   12      H      -2.4189944947    -1.8841931955    -0.4663462105
   13      H      -1.1899039053    -1.0620477766     0.0001291805
   14      O       1.2969297689    -1.6534936745    -1.3217815874
   15      H       1.2249105979    -0.8137760856    -0.8314809181
   16      H       0.5773611680    -1.6702806757    -1.9958353210
 ----------------------------------------------------------------
 Molecular Point Group                 C1    NOp =  1
 Largest Abelian Subgroup              C1    NOp =  1
 Nuclear Repulsion Energy =         262.63773692 hartrees
 There are       30 alpha and       30 beta electrons
 Requested basis set is def2-TZVPPD
 There are 154 shells and 410 basis functions

 Q-Chem warning in module libmdc/get_mega.C, line 171:

 Allowed MEM_STATIC has been capped at MEM_STATIC=8191.
 Reduce the value of MEM_STATIC to silence this warning.


 Total QAlloc Memory Limit  50000 MB
 Mega-Array Size      8007 MB
 MEM_STATIC part      8191 MB
 A cutoff of  1.0D-14 yielded  10525 shell pairs
 There are     73465 function pairs (     89798 Cartesian)
 Smallest overlap matrix eigenvalue = 9.03E-05

 Scale SEOQF with 1.000000e-01/1.000000e-01/1.000000e-01

 Standard Electronic Orientation quadrupole field applied
 Nucleus-field energy     =     0.0000000082 hartrees

 -----------------------------------------------------------------------
  General SCF calculation program by
  Eric Jon Sundstrom, Paul Horn, Yuezhi Mao, Dmitri Zuev, Alec White,
  David Stuck, Shaama M.S., Shane Yost, Joonho Lee, David Small,
  Daniel Levine, Susi Lehtola, Hugh Burton, Evgeny Epifanovsky,
  Bang C. Huynh
 -----------------------------------------------------------------------
================================================================
                 ALMO-EDA with the EDA2 driver                  
================================================================
 The second-generation ALMO-EDA (for DFT):                      
 P. R. Horn, Y. Mao and M. Head-Gordon, PCCP, 18, 23067 (2016)  
 Y. Mao et al. Annu. Rev. Phys. Chem. 72, 641 (2021)            
 Decomposition of the frozen energy:                            
 P. R. Horn, Y. Mao and M. Head-Gordon, JCP, 144, 114107 (2016) 
 FERF model for polarization:                                   
 P. R. Horn and M. Head-Gordon, JCP, 143, 114111 (2015)         
================================================================
 Using eda2 option set 1
 Option set summary: Frozen orbital wavefunction, initial wavefunction decomposition, and nDQ polarization.
--------------------------------
Printing EDA Options
--------------------------------
eda_child_super_basis      0
fragmo_guess_mode          0
child_mp                   1
child_mp_orders            232
cls_elec                   1
cls_disp                   1
scfmi_mode                 1
scfmi_occs                 0
scfmi_virts                0
frz_relax                  0
frz_relax_method           0
dc_pen_start               0
dc_pen_conv                0
dc_pen_increment           0
dc_pen_steps               0
dc_pen_thresh_factor       0
dc_pen_pre_newton_thresh   0
frz_ortho_decomp           1
frz_ortho_decomp_conv      6
plot_mo_ortho_frz          0
frgm_method                2
scfmi_freeze_ss            0
separate_rehyb             0
plot_diff_den              0
eda_nocv                   0
eda_vct_relax              1
disp_free_x                0
disp_free_c                0
eda_bsse                   0
eda_pct_a                  0
eda_covp                   0
--------------------------------
Attempting to make child job directory: /scratch/qchem1021569//Frg1/
Attempting to make child job directory: /scratch/qchem1021569//Frg2/
Creating input file /scratch/qchem1021569/Frg1.input
using default PutDataFrgm: nothing
calling putenv with: QCSCRATCH=/scratch/qchem1021569/ 
Spawning Job For Fragment 0
Done Job For Fragment 0
calling putenv with: QCSCRATCH=/scratch 
calling putenv with: QCTHREADS=6 
Creating input file /scratch/qchem1021569/Frg2.input
using default PutDataFrgm: nothing
calling putenv with: QCSCRATCH=/scratch/qchem1021569/ 
Spawning Job For Fragment 1
Done Job For Fragment 1
calling putenv with: QCSCRATCH=/scratch 
calling putenv with: QCTHREADS=6 
Doing General SCFMI
 Exchange:     0.1500 Hartree-Fock + 1.0000 wB97M-V + LR-HF
 Correlation:  1.0000 wB97M-V
 Using Euler-Maclaurin-Lebedev (99,590) quadrature formula
 Nonlocal Correlation:  VV10 with C = 0.0100 and b = 6.00 and scale = 1.00000
 Grid used for NLC:  SG-1 standard quadrature
performing fock build before subrot guess so that all methods have access
Printing subrot_rss_gen Method Specification:
Occupied Subspace Method is 0
Virtual Subspace Method is 0
Energy of the unrelaxed supersystem initial determinant -482.106501894884
write pseudocanon occs and virts to disk
write pseudocanon orbital energies to disk
Tolerance of ortho_decomp_scf: 1.00e-06
GDM subspace size: 20
Beginning the Orthogonal Decomposition of the Initial Supersystem Wavefunction
    1    -481.7165054962      3.04e-01     ortho_decomp Preconditoned Steepest Descent
    2    -481.7651694108      7.38e-03     ortho_decomp BFGS Step
    3    -481.7653269826      4.98e-04     ortho_decomp BFGS Step
    4    -481.7653271177      1.45e-05     ortho_decomp BFGS Step
    5    -481.7653271180      4.43e-07     ortho_decomp 00000 Convergence criterion met
 Hartree-Fock
 Hartree-Fock
 Hartree-Fock
 Exchange:     0.1500 Hartree-Fock + 1.0000 wB97M-V + LR-HF
 Correlation:  1.0000 wB97M-V
 Using Euler-Maclaurin-Lebedev (99,590) quadrature formula
 Nonlocal Correlation:  VV10 with C = 0.0100 and b = 6.00 and scale = 1.00000
 Grid used for NLC:  SG-1 standard quadrature
 Long-range K will be added via erf
 Coulomb attenuation parameter = 0.3 bohr**(-1)
 Nonlocal correlation = 2.474015527584e-01
Doing General SCFMI
 Exchange:     0.1500 Hartree-Fock + 1.0000 wB97M-V + LR-HF
 Correlation:  1.0000 wB97M-V
 Using Euler-Maclaurin-Lebedev (99,590) quadrature formula
 Nonlocal Correlation:  VV10 with C = 0.0100 and b = 6.00 and scale = 1.00000
 Grid used for NLC:  SG-1 standard quadrature
performing fock build at end of subrot_r(subrot) constructor so that all methods have access
<S^2> of initial wavefunction before polarization iterations 0.0000000000
Beginning iterations for the determination of the polarized wavefunction
Energy prior to optimization (guess energy) = -482.106501894884
Begin Timing: Total SCF Calculation
begin iterations for algorithm: DIIS         
the SCF tolerance is set to 1.00e-08
    1    -482.1065018949      9.42e-04     00000 
    2    -482.1404741604      6.09e-04     00000 
    3    -482.1480507854      2.62e-04     00000 
    4    -482.1496123153      5.35e-05     00000 
    5    -482.1498624361      2.35e-05     00000 
    6    -482.1498838938      1.25e-05     00000 
    7    -482.1498880662      1.72e-06     00000 
    8    -482.1498882857      7.71e-07     00000 
    9    -482.1498883033      3.83e-07     00000 
   10    -482.1498883074      9.62e-08     00000 
   11    -482.1498883077      3.68e-08     00000 
   12    -482.1498883077      1.40e-08     00000 
   13    -482.1498883077      8.79e-09     00000 Convergence criterion met
write pseudocanon occs and virts to disk
write pseudocanon orbital energies to disk
Timing for Total SCF: 206.00s (wall), 1234.96s (cpu)
<S^2> of polarized wavefunction after polarization iterations 0.0000000000
relaxing scfmi constraint to allow all rotations in the entire AO span
Doing General SCFMI
 Exchange:     0.1500 Hartree-Fock + 1.0000 wB97M-V + LR-HF
 Correlation:  1.0000 wB97M-V
 Using Euler-Maclaurin-Lebedev (99,590) quadrature formula
 Nonlocal Correlation:  VV10 with C = 0.0100 and b = 6.00 and scale = 1.00000
 Grid used for NLC:  SG-1 standard quadrature
performing fock build at end of subrot_r(subrot) constructor so that all methods have access
<S^2> of polarized wavefunction before ct-allowed iterations 0.0000000000
Beginning iterations for the determination of the CT-Allowed wavefunction
Energy prior to optimization (guess energy) = -482.149888307704
Begin Timing: Total SCF Calculation
begin iterations for algorithm: DIIS         
the SCF tolerance is set to 1.00e-08
    1    -482.1498883077      4.26e-04     00000 
    2    -482.1680848527      1.12e-04     00000 
    3    -482.1684453171      1.22e-04     00000 
    4    -482.1691293241      7.73e-06     00000 
    5    -482.1691377973      3.25e-06     00000 
    6    -482.1691385162      1.03e-06     00000 
    7    -482.1691386391      2.00e-07     00000 
    8    -482.1691386458      6.18e-08     00000 
    9    -482.1691386462      3.89e-08     00000 
   10    -482.1691386463      5.16e-09     00000 Convergence criterion met
write pseudocanon occs and virts to disk
write pseudocanon orbital energies to disk
Timing for Total SCF: 153.00s (wall), 918.76s (cpu)
<S^2> of ct_allowed wavefunction after ct-allowed iterations 0.0000000000

================================
        Results of EDA2         
================================
Basic EDA Quantities
--------------------
Fragment Energies (Ha):
1  -99.8700285039
2 -382.1621749644
--------------------
  E_prp (kJ/mol) = -0.0000
  E_frz (kJ/mol) = -195.0728
  E_pol (kJ/mol) = -113.9124
  E_vct (kJ/mol) = -50.5424
  E_int (kJ/mol) = -359.5276
--------------------


Decomposition of frozen interaction energy
--------------------
  --------------------
  Orthogonal Frozen Decomposition:
  --------------------
     E_elec   (ELEC)   (kJ/mol) = -717.5197
     E_pauli  (PAULI)  (kJ/mol) = 570.2723
     E_disp   (DISP)   (kJ/mol) = -47.8255
  --------------------
  Classical Frozen Decomposition:
  --------------------
     E_cls_elec  (CLS ELEC)  (kJ/mol) = -402.5022
     E_mod_pauli (MOD PAULI) (kJ/mol) = 236.0553 (FRZ - CLS ELEC - CLS DISP)
     E_cls_disp  (CLS DISP)  (kJ/mol) = -28.6259
  --------------------
--------------------

Simplified EDA Summary (kJ/mol)
--------------------
 PREPARATION      -0.0000
 FROZEN           -195.0728 (ELEC + PAULI + DISP)
[ELEC + PAULI = -166.4470, DISP = -28.6259]
 POLARIZATION    -113.9124
 CHARGE TRANSFER -50.5424
 TOTAL           -359.5276     (PRP + FRZ + POL + CT)
--------------------
 
 --------------------------------------------------------------
 
                    Orbital Energies (a.u.)
 --------------------------------------------------------------
 
 Alpha MOs
 -- Occupied --
-24.6255 -19.1853 -19.1833 -19.1826 -19.1719 -19.1648  -1.0197  -0.9909
 -0.9872  -0.9843  -0.9656  -0.9511  -0.4921  -0.4875  -0.4736  -0.4643
 -0.4450  -0.3669  -0.3628  -0.3584  -0.3416  -0.3355  -0.2838  -0.2807
 -0.2777  -0.2708  -0.2664  -0.2628  -0.2563  -0.2463
 -- Virtual --
  0.1388   0.1535   0.1579   0.1692   0.1783   0.1939   0.1950   0.1972
  0.2049   0.2228   0.2292   0.2312   0.2348   0.2409   0.2494   0.2639
  0.2829   0.2872   0.2966   0.3061   0.3090   0.3176   0.3367   0.3451
  0.3498   0.3516   0.3651   0.3750   0.3800   0.3844   0.4008   0.4088
  0.4140   0.4233   0.4316   0.4337   0.4395   0.4462   0.4533   0.4626
  0.4661   0.4669   0.4820   0.4912   0.4977   0.5000   0.5022   0.5125
  0.5220   0.5296   0.5346   0.5450   0.5548   0.5588   0.5692   0.5760
  0.5866   0.5967   0.5985   0.6009   0.6285   0.6323   0.6382   0.6475
  0.6521   0.6590   0.6685   0.6726   0.6773   0.6847   0.6952   0.7083
  0.7214   0.7296   0.7305   0.7451   0.7490   0.7679   0.7713   0.7761
  0.7887   0.7920   0.8081   0.8125   0.8160   0.8311   0.8469   0.8606
  0.8786   0.9053   0.9159   0.9289   0.9310   0.9352   0.9504   0.9609
  0.9721   0.9870   0.9943   1.0059   1.0139   1.0311   1.0444   1.0613
  1.0656   1.0830   1.0844   1.0975   1.1121   1.1235   1.1348   1.1424
  1.1558   1.1596   1.1730   1.1797   1.1811   1.2048   1.2129   1.2525
  1.2676   1.2804   1.2844   1.3065   1.3109   1.3158   1.3233   1.3282
  1.3404   1.3573   1.3659   1.3711   1.3844   1.3986   1.4156   1.4207
  1.4237   1.4345   1.4565   1.4721   1.4863   1.4990   1.5188   1.5243
  1.5446   1.5740   1.5810   1.5917   1.6044   1.6127   1.6335   1.6444
  1.6529   1.8070   1.8408   1.9129   2.0325   2.1050   2.1106   2.1198
  2.1246   2.1440   2.1564   2.1814   2.2078   2.2262   2.2319   2.2574
  2.2930   2.3079   2.3195   2.3456   2.3503   2.3863   2.4138   2.4257
  2.4548   2.4603   2.4632   2.4736   2.4871   2.4946   2.5568   2.7336
  2.7693   2.7902   2.8133   2.8392   2.8426   2.8518   2.8894   2.9254
  2.9577   2.9814   3.0035   3.0261   3.0353   3.0855   3.1652   3.1828
  3.1946   3.2321   3.2559   3.3322   3.3553   3.3637   3.4120   3.4216
  3.4287   3.4346   3.4544   3.4735   3.4961   3.5006   3.5042   3.5148
  3.5427   3.5699   3.5715   3.5890   3.6064   3.6224   3.6367   3.6455
  3.6469   3.6618   3.6717   3.6749   3.6827   3.6873   3.6936   3.7160
  3.7271   3.8035   3.8308   3.8608   3.8792   3.9159   3.9318   4.0158
  4.0306   4.0375   4.0547   4.0718   4.0991   4.1101   4.1337   4.1476
  4.1579   4.1748   4.1919   4.1940   4.2025   4.2131   4.2240   4.2352
  4.2459   4.2651   4.2680   4.2755   4.2870   4.2939   4.3050   4.3222
  4.3384   4.3443   4.3565   4.3639   4.3679   4.3881   4.4170   4.4243
  4.4349   4.4618   4.4920   4.4955   4.5112   4.5317   4.5555   4.5631
  4.5730   4.8256   4.8674   4.8928   4.9063   4.9106   4.9195   4.9445
  4.9786   4.9880   4.9984   5.0688   5.1275   5.1631   5.1731   5.2013
  5.2068   5.3583   5.3746   5.4050   5.4251   5.4479   5.8269   5.8378
  5.8616   5.8668   5.8680   6.3179   6.3728   6.4439   6.4669   6.4778
  6.5562   6.6322   6.6411   6.6667   6.6782   6.6911   6.7066   6.7501
  6.7624   6.7707   6.7739   6.7797   6.8107   6.8345   6.8372   6.8478
  6.8589   6.8846   6.8895   6.8946   6.9431   6.9550   6.9755   7.0156
  7.0212   7.0379   7.0485   7.0522   7.0575   7.0609   7.1726   7.1838
  7.2361   7.2639   7.2814   7.2856   7.2957   7.3063   7.3195   7.4168
  7.4642   7.4906   7.6484   7.6703   7.7020   7.7106   7.7184   7.7293
  7.8278   7.8415   7.8537   7.8617   7.9260   7.9521   8.0127   8.0426
  8.0606   8.9774   9.0379   9.0539   9.1499   9.2783  44.5765  44.6229
 44.6514  44.6782  44.7224  58.1312
 --------------------------------------------------------------
 
          Ground-State Mulliken Net Atomic Charges

     Atom                 Charge (a.u.)
  ----------------------------------------
      1 F                    -0.756595
      2 O                    -0.443086
      3 H                     0.186642
      4 H                     0.221313
      5 O                    -0.447027
      6 H                     0.112592
      7 H                     0.285522
      8 O                    -0.449268
      9 H                     0.282741
     10 H                     0.119538
     11 O                    -0.542711
     12 H                     0.136189
     13 H                     0.322339
     14 O                    -0.460407
     15 H                     0.256575
     16 H                     0.175643
  ----------------------------------------
  Sum of atomic charges =    -1.000000

 -----------------------------------------------------------------
                    Cartesian Multipole Moments
 -----------------------------------------------------------------
    Charge (ESU x 10^10)
                -4.8032
    Dipole Moment (Debye)
         X      -2.7384      Y       1.8042      Z      -2.5335
       Tot       4.1440
    Quadrupole Moments (Debye-Ang)
        XX     -66.9006     XY      -4.0295     YY     -56.3441
        XZ       4.3642     YZ      -2.7834     ZZ     -42.5955
    Octopole Moments (Debye-Ang^2)
       XXX     -17.1909    XXY      -0.9080    XYY     -18.9704
       YYY      17.3815    XXZ     -18.2533    XYZ      -8.0585
       YYZ       5.8251    XZZ     -10.9289    YZZ      -0.4938
       ZZZ     -18.0282
    Hexadecapole Moments (Debye-Ang^3)
      XXXX    -993.5919   XXXY      13.7681   XXYY    -242.6241
      XYYY     -69.9219   YYYY    -717.6671   XXXZ       0.6572
      XXYZ      -5.4204   XYYZ      30.9991   YYYZ       1.3649
      XXZZ    -252.9465   XYZZ       2.5585   YYZZ    -136.4683
      XZZZ     -11.7041   YZZZ     -28.6813   ZZZZ    -322.4452
 -----------------------------------------------------------------
 Total job time:  1662.58s(wall), 3887.26s(cpu) 
 Tue Jan 16 16:42:02 2024

        *************************************************************
        *                                                           *
        *  Thank you very much for using Q-Chem.  Have a nice day.  *
        *                                                           *
        *************************************************************


