
Running Job 1 of 1 121_F-Water_Cls_007_almo.in
qchem 121_F-Water_Cls_007_almo.in_923025.0 /scratch/qchem923025/ 6
/home/kchung25/qchem/5.4.0/exe/qcprog.exe_s 121_F-Water_Cls_007_almo.in_923025.0 /scratch/qchem923025/
                  Welcome to Q-Chem
     A Quantum Leap Into The Future Of Chemistry


 Q-Chem 5.4, Q-Chem, Inc., Pleasanton, CA (2021)

 E. Epifanovsky,  A. T. B. Gilbert,  Xintian Feng,  Joonho Lee,  Yuezhi Mao,  
 N. Mardirossian,  P. Pokhilko,  A. White,  M. Wormit,  M. P. Coons,  
 A. L. Dempwolff,  Zhengting Gan,  D. Hait,  P. R. Horn,  L. D. Jacobson,  
 I. Kaliman,  J. Kussmann,  A. W. Lange,  Ka Un Lao,  D. S. Levine,  Jie Liu,  
 S. C. McKenzie,  A. F. Morrison,  K. Nanda,  F. Plasser,  D. R. Rehn,  
 M. L. Vidal,  Zhi-Qiang You,  Ying Zhu,  B. Alam,  B. Albrecht,  
 A. Aldossary,  E. Alguire,  J. H. Andersen,  D. Barton,  K. Begam,  A. Behn,  
 Y. A. Bernard,  E. J. Berquist,  H. Burton,  A. Carreras,  K. Carter-Fenk,  
 Romit Chakraborty,  A. D. Chien,  K. D. Closser,  V. Cofer-Shabica,  
 S. Dasgupta,  Jia Deng,  M. de Wergifosse,  M. Diedenhofen,  Hainam Do,  
 S. Ehlert,  Po-Tung Fang,  S. Fatehi,  Qingguo Feng,  T. Friedhoff,  
 J. Gayvert,  Qinghui Ge,  G. Gidofalvi,  M. Goldey,  J. Gomes,  
 C. Gonzalez-Espinoza,  S. Gulania,  A. Gunina,  M. W. D. Hanson-Heine,  
 P. H. P. Harbach,  A. W. Hauser,  M. F. Herbst,  M. Hernandez Vera,  
 M. Hodecker,  Z. C. Holden,  S. Houck,  Xunkun Huang,  Kerwin Hui,  
 B. C. Huynh,  M. Ivanov,  Hyunjun Ji,  Hanjie Jiang,  B. Kaduk,  S. Kaehler,  
 K. Khistyaev,  Jaehoon Kim,  P. Klunzinger,  Z. Koczor-Benda,  
 Joong Hoon Koh,  D. Kosenkov,  L. Koulias,  T. Kowalczyk,  C. M. Krauter,  
 K. Kue,  A. Kunitsa,  T. Kus,  A. Landau,  K. V. Lawler,  D. Lefrancois,  
 S. Lehtola,  Rain Li,  Yi-Pei Li,  Jiashu Liang,  M. Liebenthal,  
 Hung-Hsuan Lin,  You-Sheng Lin,  Fenglai Liu,  Kuan-Yu Liu,  
 M. Loipersberger,  A. Luenser,  A. Manjanath,  P. Manohar,  E. Mansoor,  
 S. F. Manzer,  Shan-Ping Mao,  A. V. Marenich,  T. Markovich,  S. Mason,  
 S. A. Maurer,  P. F. McLaughlin,  M. F. S. J. Menger,  J.-M. Mewes,  
 S. A. Mewes,  P. Morgante,  J. W. Mullinax,  K. J. Oosterbaan,  G. Paran,  
 Alexander C. Paul,  Suranjan K. Paul,  F. Pavosevic,  Zheng Pei,  S. Prager,  
 E. I. Proynov,  E. Ramos,  B. Rana,  A. E. Rask,  A. Rettig,  R. M. Richard,  
 F. Rob,  E. Rossomme,  T. Scheele,  M. Scheurer,  M. Schneider,  
 N. Sergueev,  S. M. Sharada,  W. Skomorowski,  D. W. Small,  C. J. Stein,  
 Yu-Chuan Su,  E. J. Sundstrom,  Zhen Tao,  J. Thirman,  T. Tsuchimochi,  
 N. M. Tubman,  S. P. Veccham,  O. Vydrov,  J. Wenzel,  J. Witte,  A. Yamada,  
 Kun Yao,  S. Yeganeh,  S. R. Yost,  A. Zech,  Igor Ying Zhang,  Xing Zhang,  
 Yu Zhang,  D. Zuev,  A. Aspuru-Guzik,  A. T. Bell,  N. A. Besley,  
 K. B. Bravaya,  B. R. Brooks,  D. Casanova,  Jeng-Da Chai,  S. Coriani,  
 C. J. Cramer,  A. E. DePrince, III,  R. A. DiStasio Jr.,  A. Dreuw,  
 B. D. Dunietz,  T. R. Furlani,  W. A. Goddard III,  S. Grimme,  
 S. Hammes-Schiffer,  T. Head-Gordon,  W. J. Hehre,  Chao-Ping Hsu,  
 T.-C. Jagau,  Yousung Jung,  A. Klamt,  Jing Kong,  D. S. Lambrecht,  
 WanZhen Liang,  N. J. Mayhall,  C. W. McCurdy,  J. B. Neaton,  T. Neudecker,  
 C. Ochsenfeld,  J. A. Parkhill,  R. Peverati,  V. A. Rassolov,  Yihan Shao,  
 L. V. Slipchenko,  R. P. Steele,  J. E. Subotnik,  A. J. W. Thom,  
 A. Tkatchenko,  D. G. Truhlar,  T. Van Voorhis,  T. A. Wesolowski,  
 K. B. Whaley,  H. L. Woodcock III,  P. M. Zimmerman,  S. Faraji,  
 P. M. W. Gill,  M. Head-Gordon,  J. M. Herbert,  A. I. Krylov

 Additional authors since Version 5.4.0: 
 Chandrima Chakravarty,  L. Cunha,  R. Kang,  Yongbin Kim,  S. Kotaru,  
 Shaozhi Li,  Xiangyuan Li,  F. Matz,  A. Molle,  V. Parravicini,  
 Haisheng Ren,  Hengyuan Shen,  Yingli Su,  Hung-Yi Tsai,  C. Utku,  
 Fang Wang,  Jeff Yang,  F. Zeller

 Contributors to earlier versions of Q-Chem not listed above: 
 R. D. Adamson,  B. Austin,  R. Baer,  J. Baker,  G. J. O. Beran,  
 K. Brandhorst,  S. T. Brown,  E. F. C. Byrd,  Arup K. Chakraborty,  
 G. K. L. Chan,  Chun-Min Chang,  Yunqing Chen,  C.-L. Cheng,  
 Siu Hung Chien,  D. M. Chipman,  D. L. Crittenden,  H. Dachsel,  
 R. J. Doerksen,  A. D. Dutoi,  R. G. Edgar,  J. Fosso-Tande,  
 L. Fusti-Molnar,  D. Ghosh,  A. Ghysels,  A. Golubeva-Zadorozhnaya,  
 J. Gonthier,  M. S. Gordon,  S. R. Gwaltney,  G. Hawkins,  J. E. Herr,  
 A. Heyden,  S. Hirata,  E. G. Hohenstein,  G. Kedziora,  F. J. Keil,  
 C. Kelley,  Jihan Kim,  R. A. King,  R. Z. Khaliullin,  P. P. Korambath,  
 W. Kurlancheek,  A. Laurent,  A. M. Lee,  M. S. Lee,  S. V. Levchenko,  
 Ching Yeh Lin,  D. Liotard,  E. Livshits,  R. C. Lochan,  I. Lotan,  
 L. A. Martinez-Martinez,  P. E. Maslen,  N. Nair,  D. P. O'Neill,  
 D. Neuhauser,  E. Neuscamman,  C. M. Oana,  R. Olivares-Amaya,  R. Olson,  
 T. M. Perrine,  B. Peters,  P. A. Pieniazek,  A. Prociuk,  Y. M. Rhee,  
 J. Ritchie,  M. A. Rohrdanz,  E. Rosta,  N. J. Russ,  H. F. Schaefer III,  
 M. W. Schmidt,  N. E. Schultz,  S. Sharma,  N. Shenvi,  C. D. Sherrill,  
 A. C. Simmonett,  A. Sodt,  T. Stein,  D. Stuck,  K. S. Thanthiriwatte,  
 V. Vanovschi,  L. Vogt,  Tao Wang,  A. Warshel,  M. A. Watson,  
 C. F. Williams,  Q. Wu,  X. Xu,  Jun Yang,  W. Zhang,  Yan Zhao

   Please cite Q-Chem as follows:
  "Software for the frontiers of quantum chemistry:
   An overview of developments in the Q-Chem 5 package"
   J. Chem. Phys. 155, 084801 (2021)
   https://doi.org/10.1063/5.0055522 (open access)

 Q-Chem 5.4.2 for Intel X86 EM64T Linux

 Parts of Q-Chem use Armadillo 9.900.5 (Nocturnal Misbehaviour).
 http://arma.sourceforge.net/

 Q-Chem begins on Sun Jan 14 09:16:47 2024  

 Host: 
0

     Scratch files written to /scratch/qchem923025//
 Dec1321 |scratch|qcdevops|jenkins|workspace|build_RNUM 5684   
 Processing $rem in /home/kchung25/qchem/5.4.0/config/preferences:
 Processing $rem in /home/kchung25/.qchemrc:

 Q-Chem warning in module libgen/rem_setup.C, line 3079:

 Neither GIA nor STOLL is specified by user. Use STOLL as the default


 Checking the input file for inconsistencies... 	...done.

--------------------------------------------------------------
User input:
--------------------------------------------------------------
$molecule
-1 1
--
-1 1
F      0.000000     0.000000     0.000000
--
0 1
O     -0.392888    -0.121012     2.785079
H     -0.259660    -0.152385     1.841015
H     -1.323429     0.233529     2.886423
O      1.463244    -0.030176    -2.287680
H      1.783413     0.869016    -2.171191
H      0.898165    -0.052833    -1.517520
O      2.491850    -0.524051     1.213339
H      2.257701    -1.257554     1.794479
H      1.655262    -0.339365     0.764832
O     -0.964522    -2.497486     0.718464
H     -0.421140    -3.026626     0.161927
H     -0.780543    -1.618486     0.321566
O     -2.126631     0.994699    -1.561757
H     -1.501523     1.040360    -0.888337
H     -2.679426     0.248197    -1.354555
$end

$rem
JOBTYPE          eda
EDA2             1
METHOD           wB97M-V
BASIS            def2-TZVPPD
SYMMETRY         false
MEM_TOTAL        50000
MEM_STATIC       10000
THRESH           14
SCF_CONVERGENCE  8
XC_GRID          000099000590
NL_GRID          1
EDA_CLS_DISP     true
FD_MAT_VEC_PROD  FALSE
$end
--------------------------------------------------------------
 ----------------------------------------------------------------
             Standard Nuclear Orientation (Angstroms)
    I     Atom           X                Y                Z
 ----------------------------------------------------------------
    1      F      -0.2678425766     0.0063226048    -0.2936358544
    2      O       2.2006105666     1.1377980068    -1.0367189018
    3      H       1.3872337357     0.7560073633    -0.7163365730
    4      H       1.9339208136     2.0521480022    -1.3444804023
    5      O      -1.9539720083    -2.0178627676     0.3659962358
    6      H      -2.0539034911    -2.3170231804    -0.5423764160
    7      H      -1.3947863148    -1.2658276586     0.1796401345
    8      O       1.6592944786    -2.0527740178    -0.3426386180
    9      H       2.3627952016    -1.6526123638     0.1822742207
   10      H       0.9720533069    -1.3727768238    -0.3214179333
   11      O       0.9375099685     1.1903802387     1.9038768964
   12      H       0.7448402601     0.5304676896     2.5460453952
   13      H       0.3414474214     0.8845387706     1.1861111051
   14      O      -2.5676394269     1.6082854124    -0.6030224220
   15      H      -1.8057251944     1.1867547765    -0.8999029709
   16      H      -2.2837211772     2.2148050008     0.0732206061
 ----------------------------------------------------------------
 Molecular Point Group                 C1    NOp =  1
 Largest Abelian Subgroup              C1    NOp =  1
 Nuclear Repulsion Energy =         266.19071204 hartrees
 There are       30 alpha and       30 beta electrons
 Requested basis set is def2-TZVPPD
 There are 154 shells and 410 basis functions

 Q-Chem warning in module libmdc/get_mega.C, line 171:

 Allowed MEM_STATIC has been capped at MEM_STATIC=8191.
 Reduce the value of MEM_STATIC to silence this warning.


 Total QAlloc Memory Limit  50000 MB
 Mega-Array Size      8007 MB
 MEM_STATIC part      8191 MB
 A cutoff of  1.0D-14 yielded  10595 shell pairs
 There are     74133 function pairs (     90717 Cartesian)
 Smallest overlap matrix eigenvalue = 8.45E-05

 Scale SEOQF with 1.000000e-01/1.000000e-01/1.000000e-01

 Standard Electronic Orientation quadrupole field applied
 Nucleus-field energy     =     0.0000000100 hartrees

 -----------------------------------------------------------------------
  General SCF calculation program by
  Eric Jon Sundstrom, Paul Horn, Yuezhi Mao, Dmitri Zuev, Alec White,
  David Stuck, Shaama M.S., Shane Yost, Joonho Lee, David Small,
  Daniel Levine, Susi Lehtola, Hugh Burton, Evgeny Epifanovsky,
  Bang C. Huynh
 -----------------------------------------------------------------------
================================================================
                 ALMO-EDA with the EDA2 driver                  
================================================================
 The second-generation ALMO-EDA (for DFT):                      
 P. R. Horn, Y. Mao and M. Head-Gordon, PCCP, 18, 23067 (2016)  
 Y. Mao et al. Annu. Rev. Phys. Chem. 72, 641 (2021)            
 Decomposition of the frozen energy:                            
 P. R. Horn, Y. Mao and M. Head-Gordon, JCP, 144, 114107 (2016) 
 FERF model for polarization:                                   
 P. R. Horn and M. Head-Gordon, JCP, 143, 114111 (2015)         
================================================================
 Using eda2 option set 1
 Option set summary: Frozen orbital wavefunction, initial wavefunction decomposition, and nDQ polarization.
--------------------------------
Printing EDA Options
--------------------------------
eda_child_super_basis      0
fragmo_guess_mode          0
child_mp                   1
child_mp_orders            232
cls_elec                   1
cls_disp                   1
scfmi_mode                 1
scfmi_occs                 0
scfmi_virts                0
frz_relax                  0
frz_relax_method           0
dc_pen_start               0
dc_pen_conv                0
dc_pen_increment           0
dc_pen_steps               0
dc_pen_thresh_factor       0
dc_pen_pre_newton_thresh   0
frz_ortho_decomp           1
frz_ortho_decomp_conv      6
plot_mo_ortho_frz          0
frgm_method                2
scfmi_freeze_ss            0
separate_rehyb             0
plot_diff_den              0
eda_nocv                   0
eda_vct_relax              1
disp_free_x                0
disp_free_c                0
eda_bsse                   0
eda_pct_a                  0
eda_covp                   0
--------------------------------
Attempting to make child job directory: /scratch/qchem923025//Frg1/
Attempting to make child job directory: /scratch/qchem923025//Frg2/
Creating input file /scratch/qchem923025/Frg1.input
using default PutDataFrgm: nothing
calling putenv with: QCSCRATCH=/scratch/qchem923025/ 
Spawning Job For Fragment 0
Done Job For Fragment 0
calling putenv with: QCSCRATCH=/scratch 
calling putenv with: QCTHREADS=6 
Creating input file /scratch/qchem923025/Frg2.input
using default PutDataFrgm: nothing
calling putenv with: QCSCRATCH=/scratch/qchem923025/ 
Spawning Job For Fragment 1
Done Job For Fragment 1
calling putenv with: QCSCRATCH=/scratch 
calling putenv with: QCTHREADS=6 
Doing General SCFMI
 Exchange:     0.1500 Hartree-Fock + 1.0000 wB97M-V + LR-HF
 Correlation:  1.0000 wB97M-V
 Using Euler-Maclaurin-Lebedev (99,590) quadrature formula
 Nonlocal Correlation:  VV10 with C = 0.0100 and b = 6.00 and scale = 1.00000
 Grid used for NLC:  SG-1 standard quadrature
performing fock build before subrot guess so that all methods have access
Printing subrot_rss_gen Method Specification:
Occupied Subspace Method is 0
Virtual Subspace Method is 0
Energy of the unrelaxed supersystem initial determinant -482.113161660897
write pseudocanon occs and virts to disk
write pseudocanon orbital energies to disk
Tolerance of ortho_decomp_scf: 1.00e-06
GDM subspace size: 20
Beginning the Orthogonal Decomposition of the Initial Supersystem Wavefunction
    1    -481.7067945693      3.07e-01     ortho_decomp Preconditoned Steepest Descent
    2    -481.7564017524      7.43e-03     ortho_decomp BFGS Step
    3    -481.7565602854      4.97e-04     ortho_decomp BFGS Step
    4    -481.7565604193      1.43e-05     ortho_decomp BFGS Step
    5    -481.7565604195      4.33e-07     ortho_decomp 00000 Convergence criterion met
 Hartree-Fock
 Hartree-Fock
 Hartree-Fock
 Exchange:     0.1500 Hartree-Fock + 1.0000 wB97M-V + LR-HF
 Correlation:  1.0000 wB97M-V
 Using Euler-Maclaurin-Lebedev (99,590) quadrature formula
 Nonlocal Correlation:  VV10 with C = 0.0100 and b = 6.00 and scale = 1.00000
 Grid used for NLC:  SG-1 standard quadrature
 Long-range K will be added via erf
 Coulomb attenuation parameter = 0.3 bohr**(-1)
 Nonlocal correlation = 2.473331155685e-01
Doing General SCFMI
 Exchange:     0.1500 Hartree-Fock + 1.0000 wB97M-V + LR-HF
 Correlation:  1.0000 wB97M-V
 Using Euler-Maclaurin-Lebedev (99,590) quadrature formula
 Nonlocal Correlation:  VV10 with C = 0.0100 and b = 6.00 and scale = 1.00000
 Grid used for NLC:  SG-1 standard quadrature
performing fock build at end of subrot_r(subrot) constructor so that all methods have access
<S^2> of initial wavefunction before polarization iterations 0.0000000000
Beginning iterations for the determination of the polarized wavefunction
Energy prior to optimization (guess energy) = -482.113161660897
Begin Timing: Total SCF Calculation
begin iterations for algorithm: DIIS         
the SCF tolerance is set to 1.00e-08
    1    -482.1131616609      9.44e-04     00000 
    2    -482.1464788412      6.10e-04     00000 
    3    -482.1540769017      2.62e-04     00000 
    4    -482.1556364640      5.34e-05     00000 
    5    -482.1558923548      2.29e-05     00000 
    6    -482.1559136645      1.19e-05     00000 
    7    -482.1559175277      1.83e-06     00000 
    8    -482.1559177689      6.05e-07     00000 
    9    -482.1559177833      3.41e-07     00000 
   10    -482.1559177852      1.69e-07     00000 
   11    -482.1559177857      6.77e-08     00000 
   12    -482.1559177857      2.06e-08     00000 
   13    -482.1559177857      1.30e-08     00000 
   14    -482.1559177857      3.56e-09     00000 Convergence criterion met
write pseudocanon occs and virts to disk
write pseudocanon orbital energies to disk
Timing for Total SCF: 226.00s (wall), 1357.01s (cpu)
<S^2> of polarized wavefunction after polarization iterations 0.0000000000
relaxing scfmi constraint to allow all rotations in the entire AO span
Doing General SCFMI
 Exchange:     0.1500 Hartree-Fock + 1.0000 wB97M-V + LR-HF
 Correlation:  1.0000 wB97M-V
 Using Euler-Maclaurin-Lebedev (99,590) quadrature formula
 Nonlocal Correlation:  VV10 with C = 0.0100 and b = 6.00 and scale = 1.00000
 Grid used for NLC:  SG-1 standard quadrature
performing fock build at end of subrot_r(subrot) constructor so that all methods have access
<S^2> of polarized wavefunction before ct-allowed iterations 0.0000000000
Beginning iterations for the determination of the CT-Allowed wavefunction
Energy prior to optimization (guess energy) = -482.155917785745
Begin Timing: Total SCF Calculation
begin iterations for algorithm: DIIS         
the SCF tolerance is set to 1.00e-08
    1    -482.1559177857      4.20e-04     00000 
    2    -482.1728018290      1.07e-04     00000 
    3    -482.1731026305      1.16e-04     00000 
    4    -482.1737154140      6.78e-06     00000 
    5    -482.1737214972      2.61e-06     00000 
    6    -482.1737219353      7.85e-07     00000 
    7    -482.1737220043      1.17e-07     00000 
    8    -482.1737220069      3.05e-08     00000 
    9    -482.1737220071      1.77e-08     00000 
   10    -482.1737220071      4.69e-09     00000 Convergence criterion met
write pseudocanon occs and virts to disk
write pseudocanon orbital energies to disk
Timing for Total SCF: 156.00s (wall), 931.97s (cpu)
<S^2> of ct_allowed wavefunction after ct-allowed iterations 0.0000000000

================================
        Results of EDA2         
================================
Basic EDA Quantities
--------------------
Fragment Energies (Ha):
1  -99.8700285039
2 -382.1638858639
--------------------
  E_prp (kJ/mol) = 0.0000
  E_frz (kJ/mol) = -208.0662
  E_pol (kJ/mol) = -112.2575
  E_vct (kJ/mol) = -46.7455
  E_int (kJ/mol) = -367.0693
--------------------


Decomposition of frozen interaction energy
--------------------
  --------------------
  Orthogonal Frozen Decomposition:
  --------------------
     E_elec   (ELEC)   (kJ/mol) = -751.9590
     E_pauli  (PAULI)  (kJ/mol) = 593.2586
     E_disp   (DISP)   (kJ/mol) = -49.3659
  --------------------
  Classical Frozen Decomposition:
  --------------------
     E_cls_elec  (CLS ELEC)  (kJ/mol) = -425.3923
     E_mod_pauli (MOD PAULI) (kJ/mol) = 246.3591 (FRZ - CLS ELEC - CLS DISP)
     E_cls_disp  (CLS DISP)  (kJ/mol) = -29.0330
  --------------------
--------------------

Simplified EDA Summary (kJ/mol)
--------------------
 PREPARATION      0.0000
 FROZEN           -208.0662 (ELEC + PAULI + DISP)
[ELEC + PAULI = -179.0332, DISP = -29.0330]
 POLARIZATION    -112.2575
 CHARGE TRANSFER -46.7455
 TOTAL           -367.0693     (PRP + FRZ + POL + CT)
--------------------
 
 --------------------------------------------------------------
 
                    Orbital Energies (a.u.)
 --------------------------------------------------------------
 
 Alpha MOs
 -- Occupied --
-24.6275 -19.1838 -19.1794 -19.1775 -19.1678 -19.1652  -1.0240  -1.0033
 -0.9888  -0.9768  -0.9741  -0.9720  -0.5073  -0.4834  -0.4731  -0.4682
 -0.4592  -0.3659  -0.3628  -0.3589  -0.3484  -0.3464  -0.2893  -0.2836
 -0.2722  -0.2697  -0.2659  -0.2616  -0.2611  -0.2562
 -- Virtual --
  0.1437   0.1563   0.1590   0.1638   0.1771   0.1912   0.1924   0.1986
  0.2084   0.2227   0.2270   0.2298   0.2372   0.2431   0.2539   0.2620
  0.2785   0.2812   0.2928   0.2995   0.3125   0.3228   0.3361   0.3491
  0.3581   0.3720   0.3744   0.3801   0.3910   0.3928   0.4015   0.4046
  0.4173   0.4272   0.4336   0.4360   0.4374   0.4449   0.4544   0.4569
  0.4669   0.4754   0.4793   0.4869   0.4960   0.5072   0.5133   0.5224
  0.5262   0.5304   0.5423   0.5520   0.5542   0.5637   0.5771   0.5803
  0.5844   0.5935   0.5981   0.6080   0.6161   0.6266   0.6333   0.6477
  0.6578   0.6620   0.6713   0.6789   0.6907   0.6984   0.7141   0.7204
  0.7276   0.7308   0.7470   0.7524   0.7583   0.7732   0.7755   0.7761
  0.7855   0.8022   0.8087   0.8202   0.8234   0.8384   0.8545   0.8616
  0.8798   0.8981   0.9055   0.9152   0.9492   0.9525   0.9609   0.9671
  0.9803   0.9885   0.9995   1.0095   1.0292   1.0399   1.0480   1.0587
  1.0699   1.0779   1.0862   1.1059   1.1079   1.1202   1.1381   1.1421
  1.1508   1.1814   1.1977   1.2027   1.2173   1.2337   1.2478   1.2610
  1.2726   1.2788   1.2930   1.3152   1.3247   1.3340   1.3361   1.3497
  1.3616   1.3669   1.3769   1.3850   1.3967   1.4084   1.4199   1.4248
  1.4423   1.4581   1.4763   1.4879   1.4930   1.4977   1.5133   1.5316
  1.5684   1.5770   1.5825   1.5985   1.6015   1.6231   1.6291   1.6461
  1.6560   1.8681   1.8922   1.9997   2.0553   2.1073   2.1206   2.1244
  2.1510   2.1574   2.1606   2.2079   2.2303   2.2552   2.2691   2.2917
  2.3093   2.3225   2.3308   2.3518   2.3726   2.3834   2.4059   2.4246
  2.4264   2.4338   2.4687   2.4778   2.4926   2.5105   2.5169   2.7376
  2.7393   2.7602   2.8094   2.8324   2.8518   2.8662   2.8981   2.9446
  2.9641   2.9886   2.9907   3.0259   3.0365   3.0991   3.2023   3.2266
  3.2470   3.2606   3.2847   3.3092   3.3377   3.3763   3.4196   3.4377
  3.4524   3.4557   3.4723   3.4742   3.4949   3.5073   3.5241   3.5410
  3.5467   3.5547   3.6009   3.6182   3.6314   3.6409   3.6484   3.6550
  3.6602   3.6686   3.6788   3.6939   3.7085   3.7227   3.7371   3.7412
  3.7570   3.8736   3.8906   3.9116   3.9363   3.9514   3.9666   3.9966
  4.0457   4.0683   4.0832   4.0873   4.1280   4.1381   4.1494   4.1531
  4.1716   4.1886   4.1930   4.2057   4.2287   4.2374   4.2418   4.2548
  4.2598   4.2648   4.2689   4.2834   4.2975   4.3083   4.3186   4.3331
  4.3582   4.3823   4.3985   4.4066   4.4228   4.4306   4.4408   4.4625
  4.4706   4.4890   4.5018   4.5108   4.5424   4.5579   4.5742   4.6079
  4.6433   4.8516   4.8848   4.9192   4.9372   4.9448   4.9635   5.0161
  5.0351   5.0545   5.0852   5.1211   5.1567   5.1684   5.1875   5.2050
  5.2298   5.4038   5.4537   5.4655   5.4776   5.4915   5.8484   5.8859
  5.8918   5.9003   5.9158   6.4039   6.4946   6.5049   6.5572   6.6065
  6.6382   6.6734   6.6956   6.6986   6.7164   6.7384   6.7550   6.7807
  6.7888   6.7943   6.8043   6.8129   6.8192   6.8369   6.8461   6.8643
  6.8778   6.8813   6.8849   6.9145   6.9654   6.9814   6.9904   7.0096
  7.0272   7.0557   7.0708   7.0856   7.0899   7.1192   7.2078   7.2241
  7.2527   7.2608   7.2771   7.2871   7.2908   7.3159   7.3627   7.4278
  7.4698   7.5299   7.7036   7.7312   7.7453   7.7638   7.7869   7.8053
  7.8678   7.8978   7.9114   7.9426   7.9574   8.0144   8.0376   8.0742
  8.1179   8.9823   9.0057   9.0602   9.1613   9.2961  44.6840  44.6938
 44.7137  44.7220  44.7666  58.2318
 --------------------------------------------------------------
 
          Ground-State Mulliken Net Atomic Charges

     Atom                 Charge (a.u.)
  ----------------------------------------
      1 F                    -0.779963
      2 O                    -0.465529
      3 H                     0.250131
      4 H                     0.153834
      5 O                    -0.461643
      6 H                     0.132962
      7 H                     0.266330
      8 O                    -0.480392
      9 H                     0.144769
     10 H                     0.314987
     11 O                    -0.439792
     12 H                     0.103339
     13 H                     0.297693
     14 O                    -0.369424
     15 H                     0.190960
     16 H                     0.141738
  ----------------------------------------
  Sum of atomic charges =    -1.000000

 -----------------------------------------------------------------
                    Cartesian Multipole Moments
 -----------------------------------------------------------------
    Charge (ESU x 10^10)
                -4.8032
    Dipole Moment (Debye)
         X       0.2363      Y       2.0883      Z       0.4635
       Tot       2.1521
    Quadrupole Moments (Debye-Ang)
        XX     -67.4299     XY      -0.2875     YY     -54.9810
        XZ       2.9264     YZ      -0.7769     ZZ     -45.0553
    Octopole Moments (Debye-Ang^2)
       XXX      25.2873    XXY     -10.1937    XYY      -2.8346
       YYY      39.0365    XXZ      12.0387    XYZ     -28.9184
       YYZ     -14.2277    XZZ      -6.3225    YZZ      -7.9165
       ZZZ       5.7113
    Hexadecapole Moments (Debye-Ang^3)
      XXXX   -1015.3122   XXXY      -2.8530   XXYY    -287.2822
      XYYY      29.9374   YYYY    -672.9449   XXXZ      15.8096
      XXYZ      27.8502   XYYZ      -4.3440   YYYZ       1.8730
      XXZZ    -210.0291   XYZZ       2.3713   YYZZ    -168.8464
      XZZZ       8.5970   YZZZ     -19.1021   ZZZZ    -261.2433
 -----------------------------------------------------------------
 Total job time:  1711.57s(wall), 4058.65s(cpu) 
 Sun Jan 14 09:45:19 2024

        *************************************************************
        *                                                           *
        *  Thank you very much for using Q-Chem.  Have a nice day.  *
        *                                                           *
        *************************************************************


