
Running Job 1 of 1 121_F-Water_Cls_041_almo.in
qchem 121_F-Water_Cls_041_almo.in_965727.0 /scratch/qchem965727/ 6
/home/kchung25/qchem/5.4.0/exe/qcprog.exe_s 121_F-Water_Cls_041_almo.in_965727.0 /scratch/qchem965727/
                  Welcome to Q-Chem
     A Quantum Leap Into The Future Of Chemistry


 Q-Chem 5.4, Q-Chem, Inc., Pleasanton, CA (2021)

 E. Epifanovsky,  A. T. B. Gilbert,  Xintian Feng,  Joonho Lee,  Yuezhi Mao,  
 N. Mardirossian,  P. Pokhilko,  A. White,  M. Wormit,  M. P. Coons,  
 A. L. Dempwolff,  Zhengting Gan,  D. Hait,  P. R. Horn,  L. D. Jacobson,  
 I. Kaliman,  J. Kussmann,  A. W. Lange,  Ka Un Lao,  D. S. Levine,  Jie Liu,  
 S. C. McKenzie,  A. F. Morrison,  K. Nanda,  F. Plasser,  D. R. Rehn,  
 M. L. Vidal,  Zhi-Qiang You,  Ying Zhu,  B. Alam,  B. Albrecht,  
 A. Aldossary,  E. Alguire,  J. H. Andersen,  D. Barton,  K. Begam,  A. Behn,  
 Y. A. Bernard,  E. J. Berquist,  H. Burton,  A. Carreras,  K. Carter-Fenk,  
 Romit Chakraborty,  A. D. Chien,  K. D. Closser,  V. Cofer-Shabica,  
 S. Dasgupta,  Jia Deng,  M. de Wergifosse,  M. Diedenhofen,  Hainam Do,  
 S. Ehlert,  Po-Tung Fang,  S. Fatehi,  Qingguo Feng,  T. Friedhoff,  
 J. Gayvert,  Qinghui Ge,  G. Gidofalvi,  M. Goldey,  J. Gomes,  
 C. Gonzalez-Espinoza,  S. Gulania,  A. Gunina,  M. W. D. Hanson-Heine,  
 P. H. P. Harbach,  A. W. Hauser,  M. F. Herbst,  M. Hernandez Vera,  
 M. Hodecker,  Z. C. Holden,  S. Houck,  Xunkun Huang,  Kerwin Hui,  
 B. C. Huynh,  M. Ivanov,  Hyunjun Ji,  Hanjie Jiang,  B. Kaduk,  S. Kaehler,  
 K. Khistyaev,  Jaehoon Kim,  P. Klunzinger,  Z. Koczor-Benda,  
 Joong Hoon Koh,  D. Kosenkov,  L. Koulias,  T. Kowalczyk,  C. M. Krauter,  
 K. Kue,  A. Kunitsa,  T. Kus,  A. Landau,  K. V. Lawler,  D. Lefrancois,  
 S. Lehtola,  Rain Li,  Yi-Pei Li,  Jiashu Liang,  M. Liebenthal,  
 Hung-Hsuan Lin,  You-Sheng Lin,  Fenglai Liu,  Kuan-Yu Liu,  
 M. Loipersberger,  A. Luenser,  A. Manjanath,  P. Manohar,  E. Mansoor,  
 S. F. Manzer,  Shan-Ping Mao,  A. V. Marenich,  T. Markovich,  S. Mason,  
 S. A. Maurer,  P. F. McLaughlin,  M. F. S. J. Menger,  J.-M. Mewes,  
 S. A. Mewes,  P. Morgante,  J. W. Mullinax,  K. J. Oosterbaan,  G. Paran,  
 Alexander C. Paul,  Suranjan K. Paul,  F. Pavosevic,  Zheng Pei,  S. Prager,  
 E. I. Proynov,  E. Ramos,  B. Rana,  A. E. Rask,  A. Rettig,  R. M. Richard,  
 F. Rob,  E. Rossomme,  T. Scheele,  M. Scheurer,  M. Schneider,  
 N. Sergueev,  S. M. Sharada,  W. Skomorowski,  D. W. Small,  C. J. Stein,  
 Yu-Chuan Su,  E. J. Sundstrom,  Zhen Tao,  J. Thirman,  T. Tsuchimochi,  
 N. M. Tubman,  S. P. Veccham,  O. Vydrov,  J. Wenzel,  J. Witte,  A. Yamada,  
 Kun Yao,  S. Yeganeh,  S. R. Yost,  A. Zech,  Igor Ying Zhang,  Xing Zhang,  
 Yu Zhang,  D. Zuev,  A. Aspuru-Guzik,  A. T. Bell,  N. A. Besley,  
 K. B. Bravaya,  B. R. Brooks,  D. Casanova,  Jeng-Da Chai,  S. Coriani,  
 C. J. Cramer,  A. E. DePrince, III,  R. A. DiStasio Jr.,  A. Dreuw,  
 B. D. Dunietz,  T. R. Furlani,  W. A. Goddard III,  S. Grimme,  
 S. Hammes-Schiffer,  T. Head-Gordon,  W. J. Hehre,  Chao-Ping Hsu,  
 T.-C. Jagau,  Yousung Jung,  A. Klamt,  Jing Kong,  D. S. Lambrecht,  
 WanZhen Liang,  N. J. Mayhall,  C. W. McCurdy,  J. B. Neaton,  T. Neudecker,  
 C. Ochsenfeld,  J. A. Parkhill,  R. Peverati,  V. A. Rassolov,  Yihan Shao,  
 L. V. Slipchenko,  R. P. Steele,  J. E. Subotnik,  A. J. W. Thom,  
 A. Tkatchenko,  D. G. Truhlar,  T. Van Voorhis,  T. A. Wesolowski,  
 K. B. Whaley,  H. L. Woodcock III,  P. M. Zimmerman,  S. Faraji,  
 P. M. W. Gill,  M. Head-Gordon,  J. M. Herbert,  A. I. Krylov

 Additional authors since Version 5.4.0: 
 Chandrima Chakravarty,  L. Cunha,  R. Kang,  Yongbin Kim,  S. Kotaru,  
 Shaozhi Li,  Xiangyuan Li,  F. Matz,  A. Molle,  V. Parravicini,  
 Haisheng Ren,  Hengyuan Shen,  Yingli Su,  Hung-Yi Tsai,  C. Utku,  
 Fang Wang,  Jeff Yang,  F. Zeller

 Contributors to earlier versions of Q-Chem not listed above: 
 R. D. Adamson,  B. Austin,  R. Baer,  J. Baker,  G. J. O. Beran,  
 K. Brandhorst,  S. T. Brown,  E. F. C. Byrd,  Arup K. Chakraborty,  
 G. K. L. Chan,  Chun-Min Chang,  Yunqing Chen,  C.-L. Cheng,  
 Siu Hung Chien,  D. M. Chipman,  D. L. Crittenden,  H. Dachsel,  
 R. J. Doerksen,  A. D. Dutoi,  R. G. Edgar,  J. Fosso-Tande,  
 L. Fusti-Molnar,  D. Ghosh,  A. Ghysels,  A. Golubeva-Zadorozhnaya,  
 J. Gonthier,  M. S. Gordon,  S. R. Gwaltney,  G. Hawkins,  J. E. Herr,  
 A. Heyden,  S. Hirata,  E. G. Hohenstein,  G. Kedziora,  F. J. Keil,  
 C. Kelley,  Jihan Kim,  R. A. King,  R. Z. Khaliullin,  P. P. Korambath,  
 W. Kurlancheek,  A. Laurent,  A. M. Lee,  M. S. Lee,  S. V. Levchenko,  
 Ching Yeh Lin,  D. Liotard,  E. Livshits,  R. C. Lochan,  I. Lotan,  
 L. A. Martinez-Martinez,  P. E. Maslen,  N. Nair,  D. P. O'Neill,  
 D. Neuhauser,  E. Neuscamman,  C. M. Oana,  R. Olivares-Amaya,  R. Olson,  
 T. M. Perrine,  B. Peters,  P. A. Pieniazek,  A. Prociuk,  Y. M. Rhee,  
 J. Ritchie,  M. A. Rohrdanz,  E. Rosta,  N. J. Russ,  H. F. Schaefer III,  
 M. W. Schmidt,  N. E. Schultz,  S. Sharma,  N. Shenvi,  C. D. Sherrill,  
 A. C. Simmonett,  A. Sodt,  T. Stein,  D. Stuck,  K. S. Thanthiriwatte,  
 V. Vanovschi,  L. Vogt,  Tao Wang,  A. Warshel,  M. A. Watson,  
 C. F. Williams,  Q. Wu,  X. Xu,  Jun Yang,  W. Zhang,  Yan Zhao

   Please cite Q-Chem as follows:
  "Software for the frontiers of quantum chemistry:
   An overview of developments in the Q-Chem 5 package"
   J. Chem. Phys. 155, 084801 (2021)
   https://doi.org/10.1063/5.0055522 (open access)

 Q-Chem 5.4.2 for Intel X86 EM64T Linux

 Parts of Q-Chem use Armadillo 9.900.5 (Nocturnal Misbehaviour).
 http://arma.sourceforge.net/

 Q-Chem begins on Mon Jan 15 06:12:55 2024  

 Host: 
0

     Scratch files written to /scratch/qchem965727//
 Dec1321 |scratch|qcdevops|jenkins|workspace|build_RNUM 5684   
 Processing $rem in /home/kchung25/qchem/5.4.0/config/preferences:
 Processing $rem in /home/kchung25/.qchemrc:

 Q-Chem warning in module libgen/rem_setup.C, line 3079:

 Neither GIA nor STOLL is specified by user. Use STOLL as the default


 Checking the input file for inconsistencies... 	...done.

--------------------------------------------------------------
User input:
--------------------------------------------------------------
$molecule
-1 1
--
-1 1
F      0.000000     0.000000     0.000000
--
0 1
O      0.242114    -1.452934     2.415504
H     -0.616381    -1.882187     2.541181
H      0.305655    -0.919337     1.625439
O      0.723027     0.126597    -2.933588
H      0.475233     0.093507    -2.011106
H      1.577772    -0.349467    -3.059852
O     -3.014078     0.047971    -0.335833
H     -3.042120     0.986298    -0.534262
H     -2.130844    -0.132734    -0.089201
O      2.661578    -0.504624    -0.408960
H      3.011063    -0.602591     0.481752
H      1.722111    -0.375198    -0.373612
O      1.830655     1.719823     1.752473
H      2.368893     0.936770     1.814979
H      1.174412     1.527972     1.038808
O     -0.230721    -2.491145    -1.068143
H      0.708270    -2.537811    -1.376508
H     -0.245774    -1.611418    -0.675802
$end

$rem
JOBTYPE          eda
EDA2             1
METHOD           wB97M-V
BASIS            def2-TZVPPD
SYMMETRY         false
MEM_TOTAL        50000
MEM_STATIC       10000
THRESH           14
SCF_CONVERGENCE  8
XC_GRID          000099000590
NL_GRID          1
EDA_CLS_DISP     true
FD_MAT_VEC_PROD  FALSE
$end
--------------------------------------------------------------
 ----------------------------------------------------------------
             Standard Nuclear Orientation (Angstroms)
    I     Atom           X                Y                Z
 ----------------------------------------------------------------
    1      F       0.1245940573    -0.2576257673    -0.4117471873
    2      O      -1.1255616807    -2.0560296501     1.3791045867
    3      H      -0.4311661950    -2.6772546817     1.6417086251
    4      H      -0.8411991791    -1.3813435775     0.7651806563
    5      O       1.2528753251     2.5217600688    -0.7947996009
    6      H       0.9122601477     1.6355422731    -0.6849398068
    7      H       0.7809791514     3.1320052233    -0.1799147357
    8      O       2.6410616527    -1.8022244596    -1.1055461005
    9      H       2.5517225497    -1.6510780154    -2.0488335741
   10      H       1.8571923368    -1.4696801177    -0.7201280217
   11      O      -1.5723948538     1.6651467125     0.5521333756
   12      H      -2.3406851238     1.1629790084     0.8396448070
   13      H      -0.8977659641     1.0730279294     0.2441235989
   14      O      -2.7343568327    -0.5385431310    -1.4736962159
   15      H      -2.9976491864    -0.2726056584    -0.5980629921
   16      H      -1.7622960013    -0.3652801921    -1.5167903860
   17      O       1.5319877981     0.4314200391     1.8118588466
   18      H       0.9975898449     1.2421568692     2.0018467588
   19      H       1.1007798336     0.1179262081     1.0094506233
 ----------------------------------------------------------------
 Molecular Point Group                 C1    NOp =  1
 Largest Abelian Subgroup              C1    NOp =  1
 Nuclear Repulsion Energy =         354.91547427 hartrees
 There are       35 alpha and       35 beta electrons
 Requested basis set is def2-TZVPPD
 There are 182 shells and 484 basis functions

 Q-Chem warning in module libmdc/get_mega.C, line 171:

 Allowed MEM_STATIC has been capped at MEM_STATIC=8191.
 Reduce the value of MEM_STATIC to silence this warning.


 Total QAlloc Memory Limit  50000 MB
 Mega-Array Size      8007 MB
 MEM_STATIC part      8191 MB
 A cutoff of  1.0D-14 yielded  14608 shell pairs
 There are    101562 function pairs (    123961 Cartesian)
 Smallest overlap matrix eigenvalue = 1.13E-04

 Scale SEOQF with 1.000000e-01/1.000000e-01/1.000000e-01

 Standard Electronic Orientation quadrupole field applied
 Nucleus-field energy     =     0.0000000094 hartrees

 -----------------------------------------------------------------------
  General SCF calculation program by
  Eric Jon Sundstrom, Paul Horn, Yuezhi Mao, Dmitri Zuev, Alec White,
  David Stuck, Shaama M.S., Shane Yost, Joonho Lee, David Small,
  Daniel Levine, Susi Lehtola, Hugh Burton, Evgeny Epifanovsky,
  Bang C. Huynh
 -----------------------------------------------------------------------
================================================================
                 ALMO-EDA with the EDA2 driver                  
================================================================
 The second-generation ALMO-EDA (for DFT):                      
 P. R. Horn, Y. Mao and M. Head-Gordon, PCCP, 18, 23067 (2016)  
 Y. Mao et al. Annu. Rev. Phys. Chem. 72, 641 (2021)            
 Decomposition of the frozen energy:                            
 P. R. Horn, Y. Mao and M. Head-Gordon, JCP, 144, 114107 (2016) 
 FERF model for polarization:                                   
 P. R. Horn and M. Head-Gordon, JCP, 143, 114111 (2015)         
================================================================
 Using eda2 option set 1
 Option set summary: Frozen orbital wavefunction, initial wavefunction decomposition, and nDQ polarization.
--------------------------------
Printing EDA Options
--------------------------------
eda_child_super_basis      0
fragmo_guess_mode          0
child_mp                   1
child_mp_orders            232
cls_elec                   1
cls_disp                   1
scfmi_mode                 1
scfmi_occs                 0
scfmi_virts                0
frz_relax                  0
frz_relax_method           0
dc_pen_start               0
dc_pen_conv                0
dc_pen_increment           0
dc_pen_steps               0
dc_pen_thresh_factor       0
dc_pen_pre_newton_thresh   0
frz_ortho_decomp           1
frz_ortho_decomp_conv      6
plot_mo_ortho_frz          0
frgm_method                2
scfmi_freeze_ss            0
separate_rehyb             0
plot_diff_den              0
eda_nocv                   0
eda_vct_relax              1
disp_free_x                0
disp_free_c                0
eda_bsse                   0
eda_pct_a                  0
eda_covp                   0
--------------------------------
Attempting to make child job directory: /scratch/qchem965727//Frg1/
Attempting to make child job directory: /scratch/qchem965727//Frg2/
Creating input file /scratch/qchem965727/Frg1.input
using default PutDataFrgm: nothing
calling putenv with: QCSCRATCH=/scratch/qchem965727/ 
Spawning Job For Fragment 0
Done Job For Fragment 0
calling putenv with: QCSCRATCH=/scratch 
calling putenv with: QCTHREADS=6 
Creating input file /scratch/qchem965727/Frg2.input
using default PutDataFrgm: nothing
calling putenv with: QCSCRATCH=/scratch/qchem965727/ 
Spawning Job For Fragment 1
Done Job For Fragment 1
calling putenv with: QCSCRATCH=/scratch 
calling putenv with: QCTHREADS=6 
Doing General SCFMI
 Exchange:     0.1500 Hartree-Fock + 1.0000 wB97M-V + LR-HF
 Correlation:  1.0000 wB97M-V
 Using Euler-Maclaurin-Lebedev (99,590) quadrature formula
 Nonlocal Correlation:  VV10 with C = 0.0100 and b = 6.00 and scale = 1.00000
 Grid used for NLC:  SG-1 standard quadrature
performing fock build before subrot guess so that all methods have access
Printing subrot_rss_gen Method Specification:
Occupied Subspace Method is 0
Virtual Subspace Method is 0
Energy of the unrelaxed supersystem initial determinant -558.558745802835
write pseudocanon occs and virts to disk
write pseudocanon orbital energies to disk
Tolerance of ortho_decomp_scf: 1.00e-06
GDM subspace size: 20
Beginning the Orthogonal Decomposition of the Initial Supersystem Wavefunction
    1    -558.1457061812      2.74e-01     ortho_decomp Preconditoned Steepest Descent
    2    -558.1947142315      6.78e-03     ortho_decomp BFGS Step
    3    -558.1948730654      4.43e-04     ortho_decomp BFGS Step
    4    -558.1948731910      1.25e-05     ortho_decomp BFGS Step
    5    -558.1948731912      4.20e-07     ortho_decomp 00000 Convergence criterion met
 Hartree-Fock
 Hartree-Fock
 Hartree-Fock
 Exchange:     0.1500 Hartree-Fock + 1.0000 wB97M-V + LR-HF
 Correlation:  1.0000 wB97M-V
 Using Euler-Maclaurin-Lebedev (99,590) quadrature formula
 Nonlocal Correlation:  VV10 with C = 0.0100 and b = 6.00 and scale = 1.00000
 Grid used for NLC:  SG-1 standard quadrature
 Long-range K will be added via erf
 Coulomb attenuation parameter = 0.3 bohr**(-1)
 Nonlocal correlation = 2.873165814303e-01
Doing General SCFMI
 Exchange:     0.1500 Hartree-Fock + 1.0000 wB97M-V + LR-HF
 Correlation:  1.0000 wB97M-V
 Using Euler-Maclaurin-Lebedev (99,590) quadrature formula
 Nonlocal Correlation:  VV10 with C = 0.0100 and b = 6.00 and scale = 1.00000
 Grid used for NLC:  SG-1 standard quadrature
performing fock build at end of subrot_r(subrot) constructor so that all methods have access
<S^2> of initial wavefunction before polarization iterations 0.0000000000
Beginning iterations for the determination of the polarized wavefunction
Energy prior to optimization (guess energy) = -558.558745802835
Begin Timing: Total SCF Calculation
begin iterations for algorithm: DIIS         
the SCF tolerance is set to 1.00e-08
    1    -558.5587458028      8.16e-04     00000 
    2    -558.5937565060      5.32e-04     00000 
    3    -558.6019158400      2.19e-04     00000 
    4    -558.6034888636      4.58e-05     00000 
    5    -558.6037626638      1.89e-05     00000 
    6    -558.6037870499      1.06e-05     00000 
    7    -558.6037913392      1.78e-06     00000 
    8    -558.6037916678      6.38e-07     00000 
    9    -558.6037916922      3.57e-07     00000 
   10    -558.6037916958      1.89e-07     00000 
   11    -558.6037916966      7.76e-08     00000 
   12    -558.6037916967      2.55e-08     00000 
   13    -558.6037916968      1.32e-08     00000 
   14    -558.6037916968      5.08e-09     00000 Convergence criterion met
write pseudocanon occs and virts to disk
write pseudocanon orbital energies to disk
Timing for Total SCF: 371.00s (wall), 2229.14s (cpu)
<S^2> of polarized wavefunction after polarization iterations 0.0000000000
relaxing scfmi constraint to allow all rotations in the entire AO span
Doing General SCFMI
 Exchange:     0.1500 Hartree-Fock + 1.0000 wB97M-V + LR-HF
 Correlation:  1.0000 wB97M-V
 Using Euler-Maclaurin-Lebedev (99,590) quadrature formula
 Nonlocal Correlation:  VV10 with C = 0.0100 and b = 6.00 and scale = 1.00000
 Grid used for NLC:  SG-1 standard quadrature
performing fock build at end of subrot_r(subrot) constructor so that all methods have access
<S^2> of polarized wavefunction before ct-allowed iterations 0.0000000000
Beginning iterations for the determination of the CT-Allowed wavefunction
Energy prior to optimization (guess energy) = -558.603791696762
Begin Timing: Total SCF Calculation
begin iterations for algorithm: DIIS         
the SCF tolerance is set to 1.00e-08
    1    -558.6037916968      3.48e-04     00000 
    2    -558.6200338693      8.96e-05     00000 
    3    -558.6203214630      9.67e-05     00000 
    4    -558.6209202904      6.01e-06     00000 
    5    -558.6209261814      2.07e-06     00000 
    6    -558.6209265613      6.31e-07     00000 
    7    -558.6209266222      1.12e-07     00000 
    8    -558.6209266257      3.20e-08     00000 
    9    -558.6209266260      2.01e-08     00000 
   10    -558.6209266260      4.17e-09     00000 Convergence criterion met
write pseudocanon occs and virts to disk
write pseudocanon orbital energies to disk
Timing for Total SCF: 254.00s (wall), 1524.90s (cpu)
<S^2> of ct_allowed wavefunction after ct-allowed iterations 0.0000000000

================================
        Results of EDA2         
================================
Basic EDA Quantities
--------------------
Fragment Energies (Ha):
1  -99.8700285039
2 -458.5947024542
--------------------
  E_prp (kJ/mol) = 0.0000
  E_frz (kJ/mol) = -246.8389
  E_pol (kJ/mol) = -118.2694
  E_vct (kJ/mol) = -44.9883
  E_int (kJ/mol) = -410.0966
--------------------


Decomposition of frozen interaction energy
--------------------
  --------------------
  Orthogonal Frozen Decomposition:
  --------------------
     E_elec   (ELEC)   (kJ/mol) = -770.7418
     E_pauli  (PAULI)  (kJ/mol) = 574.9445
     E_disp   (DISP)   (kJ/mol) = -51.0416
  --------------------
  Classical Frozen Decomposition:
  --------------------
     E_cls_elec  (CLS ELEC)  (kJ/mol) = -450.3866
     E_mod_pauli (MOD PAULI) (kJ/mol) = 231.9818 (FRZ - CLS ELEC - CLS DISP)
     E_cls_disp  (CLS DISP)  (kJ/mol) = -28.4341
  --------------------
--------------------

Simplified EDA Summary (kJ/mol)
--------------------
 PREPARATION      0.0000
 FROZEN           -246.8389 (ELEC + PAULI + DISP)
[ELEC + PAULI = -218.4048, DISP = -28.4341]
 POLARIZATION    -118.2694
 CHARGE TRANSFER -44.9883
 TOTAL           -410.0966     (PRP + FRZ + POL + CT)
--------------------
 
 --------------------------------------------------------------
 
                    Orbital Energies (a.u.)
 --------------------------------------------------------------
 
 Alpha MOs
 -- Occupied --
-24.6440 -19.1984 -19.1977 -19.1933 -19.1912 -19.1829 -19.1745  -1.0385
 -1.0075  -1.0056  -0.9987  -0.9902  -0.9860  -0.9744  -0.5245  -0.5115
 -0.5091  -0.5022  -0.4995  -0.4691  -0.3823  -0.3670  -0.3644  -0.3591
 -0.3505  -0.3443  -0.3005  -0.2929  -0.2897  -0.2876  -0.2843  -0.2829
 -0.2797  -0.2765  -0.2619
 -- Virtual --
  0.1333   0.1475   0.1493   0.1548   0.1694   0.1777   0.1870   0.1899
  0.1984   0.2098   0.2159   0.2228   0.2279   0.2300   0.2332   0.2371
  0.2495   0.2640   0.2700   0.2767   0.2787   0.2828   0.2926   0.2979
  0.3090   0.3238   0.3374   0.3402   0.3466   0.3582   0.3682   0.3740
  0.3797   0.3847   0.3914   0.4007   0.4051   0.4123   0.4172   0.4208
  0.4292   0.4356   0.4429   0.4441   0.4494   0.4540   0.4598   0.4663
  0.4760   0.4792   0.4880   0.4970   0.5057   0.5106   0.5141   0.5187
  0.5308   0.5323   0.5392   0.5462   0.5559   0.5578   0.5618   0.5724
  0.5734   0.5867   0.5955   0.5979   0.6037   0.6066   0.6086   0.6207
  0.6302   0.6335   0.6376   0.6419   0.6462   0.6544   0.6572   0.6791
  0.6823   0.6939   0.7091   0.7160   0.7213   0.7221   0.7355   0.7413
  0.7446   0.7481   0.7554   0.7670   0.7764   0.7897   0.7923   0.7952
  0.8084   0.8151   0.8284   0.8358   0.8372   0.8403   0.8592   0.8709
  0.8863   0.8980   0.9036   0.9202   0.9376   0.9471   0.9723   0.9760
  0.9851   0.9885   0.9991   1.0082   1.0252   1.0322   1.0456   1.0479
  1.0616   1.0708   1.0801   1.0859   1.0909   1.0988   1.1042   1.1141
  1.1205   1.1318   1.1492   1.1604   1.1658   1.1750   1.1775   1.1923
  1.1978   1.2155   1.2198   1.2371   1.2504   1.2671   1.2684   1.2722
  1.2968   1.3112   1.3132   1.3201   1.3314   1.3370   1.3379   1.3510
  1.3704   1.3735   1.3839   1.3885   1.3962   1.3994   1.4131   1.4210
  1.4300   1.4454   1.4555   1.4715   1.4843   1.4906   1.4964   1.5020
  1.5269   1.5360   1.5519   1.5598   1.5838   1.6002   1.6043   1.6128
  1.6268   1.6406   1.6560   1.6776   1.6983   1.8101   1.8856   1.9050
  2.0001   2.0563   2.0857   2.1017   2.1067   2.1117   2.1353   2.1556
  2.1703   2.1951   2.2015   2.2189   2.2380   2.2463   2.2747   2.2908
  2.2976   2.3154   2.3401   2.3560   2.3676   2.3911   2.3979   2.4249
  2.4347   2.4487   2.4576   2.4861   2.4960   2.5149   2.5309   2.5449
  2.5609   2.7458   2.7733   2.8053   2.8160   2.8470   2.8724   2.8925
  2.9304   2.9603   2.9722   2.9976   3.0023   3.0238   3.0522   3.0985
  3.1235   3.1494   3.2022   3.2164   3.2394   3.2546   3.2883   3.3028
  3.3771   3.3948   3.4097   3.4210   3.4318   3.4432   3.4520   3.4641
  3.4680   3.4829   3.4901   3.5015   3.5129   3.5190   3.5297   3.5451
  3.5599   3.5681   3.5731   3.5839   3.5855   3.5976   3.6036   3.6124
  3.6211   3.6361   3.6433   3.6526   3.6680   3.6737   3.6800   3.6898
  3.7067   3.7119   3.7469   3.7749   3.8088   3.8524   3.8823   3.8902
  3.9277   3.9547   3.9670   3.9847   4.0213   4.0447   4.0651   4.0796
  4.0900   4.1054   4.1206   4.1251   4.1333   4.1601   4.1616   4.1770
  4.1930   4.2045   4.2112   4.2175   4.2274   4.2349   4.2387   4.2551
  4.2558   4.2688   4.2734   4.2810   4.3006   4.3138   4.3233   4.3302
  4.3389   4.3594   4.3701   4.3736   4.3869   4.4105   4.4167   4.4401
  4.4517   4.4562   4.4788   4.4885   4.4977   4.5130   4.5375   4.5640
  4.5755   4.5979   4.6286   4.6474   4.6743   4.8876   4.9007   4.9132
  4.9203   4.9324   4.9446   4.9563   4.9774   4.9856   4.9956   5.0138
  5.0305   5.1467   5.1583   5.1872   5.1876   5.2191   5.2581   5.2602
  5.3500   5.3768   5.3929   5.4410   5.4475   5.4759   5.7941   5.8207
  5.8376   5.8481   5.8697   5.8791   6.2207   6.3006   6.3530   6.3983
  6.4534   6.5004   6.6336   6.6449   6.6630   6.7226   6.7293   6.7365
  6.7466   6.7611   6.7669   6.7798   6.7880   6.8068   6.8168   6.8239
  6.8263   6.8281   6.8350   6.8412   6.8729   6.8814   6.8893   6.9025
  6.9239   6.9312   6.9459   6.9859   6.9886   7.0128   7.0237   7.0271
  7.0376   7.0474   7.0692   7.0771   7.0965   7.1099   7.2505   7.2515
  7.2676   7.2721   7.2860   7.3011   7.3123   7.3342   7.3674   7.3760
  7.4701   7.4758   7.5196   7.5981   7.6468   7.6757   7.7052   7.7232
  7.7291   7.7375   7.7513   7.7733   7.8323   7.8467   7.8635   8.0255
  8.0459   8.0712   8.1107   8.1554   8.2036   8.9938   9.0002   9.0695
  9.2297   9.2490  44.6452  44.6871  44.6950  44.7066  44.7341  44.7944
 58.4196
 --------------------------------------------------------------
 
          Ground-State Mulliken Net Atomic Charges

     Atom                 Charge (a.u.)
  ----------------------------------------
      1 F                    -0.777338
      2 O                    -0.466058
      3 H                     0.145809
      4 H                     0.279301
      5 O                    -0.482538
      6 H                     0.262115
      7 H                     0.193290
      8 O                    -0.411739
      9 H                     0.145194
     10 H                     0.237551
     11 O                    -0.441168
     12 H                     0.135864
     13 H                     0.233185
     14 O                    -0.458087
     15 H                     0.152816
     16 H                     0.273087
     17 O                    -0.489619
     18 H                     0.175951
     19 H                     0.292384
  ----------------------------------------
  Sum of atomic charges =    -1.000000

 -----------------------------------------------------------------
                    Cartesian Multipole Moments
 -----------------------------------------------------------------
    Charge (ESU x 10^10)
                -4.8032
    Dipole Moment (Debye)
         X      -1.7972      Y       0.7219      Z       0.7058
       Tot       2.0613
    Quadrupole Moments (Debye-Ang)
        XX     -75.3802     XY      -4.0360     YY     -62.3616
        XZ      -7.6304     YZ       4.1447     ZZ     -58.1419
    Octopole Moments (Debye-Ang^2)
       XXX     -31.9093    XXY      18.9200    XYY       0.2752
       YYY       0.4679    XXZ      15.6828    XYZ       2.7360
       YYZ      20.6397    XZZ      15.7900    YZZ      -5.7378
       ZZZ     -18.1392
    Hexadecapole Moments (Debye-Ang^3)
      XXXX   -1122.5304   XXXY      -6.7322   XXYY    -404.1747
      XYYY       4.2090   YYYY    -781.7596   XXXZ     -94.7234
      XXYZ       1.6581   XYYZ      39.1120   YYYZ       7.1197
      XXZZ    -291.9455   XYZZ     -36.2153   YYZZ    -207.5804
      XZZZ     -62.0105   YZZZ      32.4590   ZZZZ    -470.9646
 -----------------------------------------------------------------
 Total job time:  2988.85s(wall), 6718.52s(cpu) 
 Mon Jan 15 07:02:43 2024

        *************************************************************
        *                                                           *
        *  Thank you very much for using Q-Chem.  Have a nice day.  *
        *                                                           *
        *************************************************************


