
Running Job 1 of 1 121_F-Water_Cls_083_almo.in
qchem 121_F-Water_Cls_083_almo.in_1019178.0 /scratch/qchem1019178/ 6
/home/kchung25/qchem/5.4.0/exe/qcprog.exe_s 121_F-Water_Cls_083_almo.in_1019178.0 /scratch/qchem1019178/
                  Welcome to Q-Chem
     A Quantum Leap Into The Future Of Chemistry


 Q-Chem 5.4, Q-Chem, Inc., Pleasanton, CA (2021)

 E. Epifanovsky,  A. T. B. Gilbert,  Xintian Feng,  Joonho Lee,  Yuezhi Mao,  
 N. Mardirossian,  P. Pokhilko,  A. White,  M. Wormit,  M. P. Coons,  
 A. L. Dempwolff,  Zhengting Gan,  D. Hait,  P. R. Horn,  L. D. Jacobson,  
 I. Kaliman,  J. Kussmann,  A. W. Lange,  Ka Un Lao,  D. S. Levine,  Jie Liu,  
 S. C. McKenzie,  A. F. Morrison,  K. Nanda,  F. Plasser,  D. R. Rehn,  
 M. L. Vidal,  Zhi-Qiang You,  Ying Zhu,  B. Alam,  B. Albrecht,  
 A. Aldossary,  E. Alguire,  J. H. Andersen,  D. Barton,  K. Begam,  A. Behn,  
 Y. A. Bernard,  E. J. Berquist,  H. Burton,  A. Carreras,  K. Carter-Fenk,  
 Romit Chakraborty,  A. D. Chien,  K. D. Closser,  V. Cofer-Shabica,  
 S. Dasgupta,  Jia Deng,  M. de Wergifosse,  M. Diedenhofen,  Hainam Do,  
 S. Ehlert,  Po-Tung Fang,  S. Fatehi,  Qingguo Feng,  T. Friedhoff,  
 J. Gayvert,  Qinghui Ge,  G. Gidofalvi,  M. Goldey,  J. Gomes,  
 C. Gonzalez-Espinoza,  S. Gulania,  A. Gunina,  M. W. D. Hanson-Heine,  
 P. H. P. Harbach,  A. W. Hauser,  M. F. Herbst,  M. Hernandez Vera,  
 M. Hodecker,  Z. C. Holden,  S. Houck,  Xunkun Huang,  Kerwin Hui,  
 B. C. Huynh,  M. Ivanov,  Hyunjun Ji,  Hanjie Jiang,  B. Kaduk,  S. Kaehler,  
 K. Khistyaev,  Jaehoon Kim,  P. Klunzinger,  Z. Koczor-Benda,  
 Joong Hoon Koh,  D. Kosenkov,  L. Koulias,  T. Kowalczyk,  C. M. Krauter,  
 K. Kue,  A. Kunitsa,  T. Kus,  A. Landau,  K. V. Lawler,  D. Lefrancois,  
 S. Lehtola,  Rain Li,  Yi-Pei Li,  Jiashu Liang,  M. Liebenthal,  
 Hung-Hsuan Lin,  You-Sheng Lin,  Fenglai Liu,  Kuan-Yu Liu,  
 M. Loipersberger,  A. Luenser,  A. Manjanath,  P. Manohar,  E. Mansoor,  
 S. F. Manzer,  Shan-Ping Mao,  A. V. Marenich,  T. Markovich,  S. Mason,  
 S. A. Maurer,  P. F. McLaughlin,  M. F. S. J. Menger,  J.-M. Mewes,  
 S. A. Mewes,  P. Morgante,  J. W. Mullinax,  K. J. Oosterbaan,  G. Paran,  
 Alexander C. Paul,  Suranjan K. Paul,  F. Pavosevic,  Zheng Pei,  S. Prager,  
 E. I. Proynov,  E. Ramos,  B. Rana,  A. E. Rask,  A. Rettig,  R. M. Richard,  
 F. Rob,  E. Rossomme,  T. Scheele,  M. Scheurer,  M. Schneider,  
 N. Sergueev,  S. M. Sharada,  W. Skomorowski,  D. W. Small,  C. J. Stein,  
 Yu-Chuan Su,  E. J. Sundstrom,  Zhen Tao,  J. Thirman,  T. Tsuchimochi,  
 N. M. Tubman,  S. P. Veccham,  O. Vydrov,  J. Wenzel,  J. Witte,  A. Yamada,  
 Kun Yao,  S. Yeganeh,  S. R. Yost,  A. Zech,  Igor Ying Zhang,  Xing Zhang,  
 Yu Zhang,  D. Zuev,  A. Aspuru-Guzik,  A. T. Bell,  N. A. Besley,  
 K. B. Bravaya,  B. R. Brooks,  D. Casanova,  Jeng-Da Chai,  S. Coriani,  
 C. J. Cramer,  A. E. DePrince, III,  R. A. DiStasio Jr.,  A. Dreuw,  
 B. D. Dunietz,  T. R. Furlani,  W. A. Goddard III,  S. Grimme,  
 S. Hammes-Schiffer,  T. Head-Gordon,  W. J. Hehre,  Chao-Ping Hsu,  
 T.-C. Jagau,  Yousung Jung,  A. Klamt,  Jing Kong,  D. S. Lambrecht,  
 WanZhen Liang,  N. J. Mayhall,  C. W. McCurdy,  J. B. Neaton,  T. Neudecker,  
 C. Ochsenfeld,  J. A. Parkhill,  R. Peverati,  V. A. Rassolov,  Yihan Shao,  
 L. V. Slipchenko,  R. P. Steele,  J. E. Subotnik,  A. J. W. Thom,  
 A. Tkatchenko,  D. G. Truhlar,  T. Van Voorhis,  T. A. Wesolowski,  
 K. B. Whaley,  H. L. Woodcock III,  P. M. Zimmerman,  S. Faraji,  
 P. M. W. Gill,  M. Head-Gordon,  J. M. Herbert,  A. I. Krylov

 Additional authors since Version 5.4.0: 
 Chandrima Chakravarty,  L. Cunha,  R. Kang,  Yongbin Kim,  S. Kotaru,  
 Shaozhi Li,  Xiangyuan Li,  F. Matz,  A. Molle,  V. Parravicini,  
 Haisheng Ren,  Hengyuan Shen,  Yingli Su,  Hung-Yi Tsai,  C. Utku,  
 Fang Wang,  Jeff Yang,  F. Zeller

 Contributors to earlier versions of Q-Chem not listed above: 
 R. D. Adamson,  B. Austin,  R. Baer,  J. Baker,  G. J. O. Beran,  
 K. Brandhorst,  S. T. Brown,  E. F. C. Byrd,  Arup K. Chakraborty,  
 G. K. L. Chan,  Chun-Min Chang,  Yunqing Chen,  C.-L. Cheng,  
 Siu Hung Chien,  D. M. Chipman,  D. L. Crittenden,  H. Dachsel,  
 R. J. Doerksen,  A. D. Dutoi,  R. G. Edgar,  J. Fosso-Tande,  
 L. Fusti-Molnar,  D. Ghosh,  A. Ghysels,  A. Golubeva-Zadorozhnaya,  
 J. Gonthier,  M. S. Gordon,  S. R. Gwaltney,  G. Hawkins,  J. E. Herr,  
 A. Heyden,  S. Hirata,  E. G. Hohenstein,  G. Kedziora,  F. J. Keil,  
 C. Kelley,  Jihan Kim,  R. A. King,  R. Z. Khaliullin,  P. P. Korambath,  
 W. Kurlancheek,  A. Laurent,  A. M. Lee,  M. S. Lee,  S. V. Levchenko,  
 Ching Yeh Lin,  D. Liotard,  E. Livshits,  R. C. Lochan,  I. Lotan,  
 L. A. Martinez-Martinez,  P. E. Maslen,  N. Nair,  D. P. O'Neill,  
 D. Neuhauser,  E. Neuscamman,  C. M. Oana,  R. Olivares-Amaya,  R. Olson,  
 T. M. Perrine,  B. Peters,  P. A. Pieniazek,  A. Prociuk,  Y. M. Rhee,  
 J. Ritchie,  M. A. Rohrdanz,  E. Rosta,  N. J. Russ,  H. F. Schaefer III,  
 M. W. Schmidt,  N. E. Schultz,  S. Sharma,  N. Shenvi,  C. D. Sherrill,  
 A. C. Simmonett,  A. Sodt,  T. Stein,  D. Stuck,  K. S. Thanthiriwatte,  
 V. Vanovschi,  L. Vogt,  Tao Wang,  A. Warshel,  M. A. Watson,  
 C. F. Williams,  Q. Wu,  X. Xu,  Jun Yang,  W. Zhang,  Yan Zhao

   Please cite Q-Chem as follows:
  "Software for the frontiers of quantum chemistry:
   An overview of developments in the Q-Chem 5 package"
   J. Chem. Phys. 155, 084801 (2021)
   https://doi.org/10.1063/5.0055522 (open access)

 Q-Chem 5.4.2 for Intel X86 EM64T Linux

 Parts of Q-Chem use Armadillo 9.900.5 (Nocturnal Misbehaviour).
 http://arma.sourceforge.net/

 Q-Chem begins on Tue Jan 16 08:18:53 2024  

 Host: 
0

     Scratch files written to /scratch/qchem1019178//
 Dec1321 |scratch|qcdevops|jenkins|workspace|build_RNUM 5684   
 Processing $rem in /home/kchung25/qchem/5.4.0/config/preferences:
 Processing $rem in /home/kchung25/.qchemrc:

 Q-Chem warning in module libgen/rem_setup.C, line 3079:

 Neither GIA nor STOLL is specified by user. Use STOLL as the default


 Checking the input file for inconsistencies... 	...done.

--------------------------------------------------------------
User input:
--------------------------------------------------------------
$molecule
-1 1
--
-1 1
F      0.000000     0.000000     0.000000
--
0 1
O     -0.318921     0.096636     2.907600
H     -0.209107     0.035971     1.908927
H      0.113370     0.903125     3.133819
O     -1.624836     2.111763    -0.674676
H     -1.136960     1.329449    -0.328407
H     -1.463411     2.236115    -1.611825
O      1.830939     2.016220     1.109031
H      1.608996     1.925541     2.025625
H      1.143692     1.515686     0.601146
O      1.707563     0.850050    -2.001594
H      1.699145     1.727491    -2.482621
H      0.964886     0.694880    -1.390422
O     -2.207657    -1.687922    -0.160566
H     -1.466453    -1.044049    -0.029828
H     -3.021094    -1.262992     0.163198
$end

$rem
JOBTYPE          eda
EDA2             1
METHOD           wB97M-V
BASIS            def2-TZVPPD
SYMMETRY         false
MEM_TOTAL        50000
MEM_STATIC       10000
THRESH           14
SCF_CONVERGENCE  8
XC_GRID          000099000590
NL_GRID          1
EDA_CLS_DISP     true
FD_MAT_VEC_PROD  FALSE
$end
--------------------------------------------------------------
 ----------------------------------------------------------------
             Standard Nuclear Orientation (Angstroms)
    I     Atom           X                Y                Z
 ----------------------------------------------------------------
    1      F      -0.2006491166     0.2181162520    -0.5634733740
    2      O      -1.2068130844    -2.4885477085    -0.0872474237
    3      H      -0.8767838306    -1.5560464617    -0.2732829958
    4      H      -0.4748883471    -2.9074131646     0.3338380312
    5      O      -0.0490724897     1.0782267895     2.0426841595
    6      H      -0.2200053568     0.6982032092     1.1503252409
    7      H       0.4095787441     1.9182654392     1.9814974663
    8      O       2.0536819182    -1.5517208656     0.0946289220
    9      H       1.5735748617    -2.3593240088     0.2166957669
   10      H       1.3803151149    -0.8269573263     0.0489686801
   11      O       2.1627344911     1.5822504349    -1.0087719212
   12      H       2.7949235701     1.9516694930    -0.3266963581
   13      H       1.3307825062     1.2143869507    -0.6599017152
   14      O      -2.8226189145     1.1471456075    -0.6673501458
   15      H      -1.9195916820     0.7535117801    -0.5641878380
   16      H      -3.2953588969     1.0118237589     0.1724553626
 ----------------------------------------------------------------
 Molecular Point Group                 C1    NOp =  1
 Largest Abelian Subgroup              C1    NOp =  1
 Nuclear Repulsion Energy =         264.42798434 hartrees
 There are       30 alpha and       30 beta electrons
 Requested basis set is def2-TZVPPD
 There are 154 shells and 410 basis functions

 Q-Chem warning in module libmdc/get_mega.C, line 171:

 Allowed MEM_STATIC has been capped at MEM_STATIC=8191.
 Reduce the value of MEM_STATIC to silence this warning.


 Total QAlloc Memory Limit  50000 MB
 Mega-Array Size      8007 MB
 MEM_STATIC part      8191 MB
 A cutoff of  1.0D-14 yielded  10571 shell pairs
 There are     73953 function pairs (     90468 Cartesian)
 Smallest overlap matrix eigenvalue = 9.96E-05

 Scale SEOQF with 1.000000e-01/1.000000e-01/1.000000e-01

 Standard Electronic Orientation quadrupole field applied
 Nucleus-field energy     =     0.0000000103 hartrees

 -----------------------------------------------------------------------
  General SCF calculation program by
  Eric Jon Sundstrom, Paul Horn, Yuezhi Mao, Dmitri Zuev, Alec White,
  David Stuck, Shaama M.S., Shane Yost, Joonho Lee, David Small,
  Daniel Levine, Susi Lehtola, Hugh Burton, Evgeny Epifanovsky,
  Bang C. Huynh
 -----------------------------------------------------------------------
================================================================
                 ALMO-EDA with the EDA2 driver                  
================================================================
 The second-generation ALMO-EDA (for DFT):                      
 P. R. Horn, Y. Mao and M. Head-Gordon, PCCP, 18, 23067 (2016)  
 Y. Mao et al. Annu. Rev. Phys. Chem. 72, 641 (2021)            
 Decomposition of the frozen energy:                            
 P. R. Horn, Y. Mao and M. Head-Gordon, JCP, 144, 114107 (2016) 
 FERF model for polarization:                                   
 P. R. Horn and M. Head-Gordon, JCP, 143, 114111 (2015)         
================================================================
 Using eda2 option set 1
 Option set summary: Frozen orbital wavefunction, initial wavefunction decomposition, and nDQ polarization.
--------------------------------
Printing EDA Options
--------------------------------
eda_child_super_basis      0
fragmo_guess_mode          0
child_mp                   1
child_mp_orders            232
cls_elec                   1
cls_disp                   1
scfmi_mode                 1
scfmi_occs                 0
scfmi_virts                0
frz_relax                  0
frz_relax_method           0
dc_pen_start               0
dc_pen_conv                0
dc_pen_increment           0
dc_pen_steps               0
dc_pen_thresh_factor       0
dc_pen_pre_newton_thresh   0
frz_ortho_decomp           1
frz_ortho_decomp_conv      6
plot_mo_ortho_frz          0
frgm_method                2
scfmi_freeze_ss            0
separate_rehyb             0
plot_diff_den              0
eda_nocv                   0
eda_vct_relax              1
disp_free_x                0
disp_free_c                0
eda_bsse                   0
eda_pct_a                  0
eda_covp                   0
--------------------------------
Attempting to make child job directory: /scratch/qchem1019178//Frg1/
Attempting to make child job directory: /scratch/qchem1019178//Frg2/
Creating input file /scratch/qchem1019178/Frg1.input
using default PutDataFrgm: nothing
calling putenv with: QCSCRATCH=/scratch/qchem1019178/ 
Spawning Job For Fragment 0
Done Job For Fragment 0
calling putenv with: QCSCRATCH=/scratch 
calling putenv with: QCTHREADS=6 
Creating input file /scratch/qchem1019178/Frg2.input
using default PutDataFrgm: nothing
calling putenv with: QCSCRATCH=/scratch/qchem1019178/ 
Spawning Job For Fragment 1
Done Job For Fragment 1
calling putenv with: QCSCRATCH=/scratch 
calling putenv with: QCTHREADS=6 
Doing General SCFMI
 Exchange:     0.1500 Hartree-Fock + 1.0000 wB97M-V + LR-HF
 Correlation:  1.0000 wB97M-V
 Using Euler-Maclaurin-Lebedev (99,590) quadrature formula
 Nonlocal Correlation:  VV10 with C = 0.0100 and b = 6.00 and scale = 1.00000
 Grid used for NLC:  SG-1 standard quadrature
performing fock build before subrot guess so that all methods have access
Printing subrot_rss_gen Method Specification:
Occupied Subspace Method is 0
Virtual Subspace Method is 0
Energy of the unrelaxed supersystem initial determinant -482.104879270314
write pseudocanon occs and virts to disk
write pseudocanon orbital energies to disk
Tolerance of ortho_decomp_scf: 1.00e-06
GDM subspace size: 20
Beginning the Orthogonal Decomposition of the Initial Supersystem Wavefunction
    1    -481.7110911169      3.04e-01     ortho_decomp Preconditoned Steepest Descent
    2    -481.7600052697      7.40e-03     ortho_decomp BFGS Step
    3    -481.7601637038      4.99e-04     ortho_decomp BFGS Step
    4    -481.7601638397      1.44e-05     ortho_decomp BFGS Step
    5    -481.7601638399      4.66e-07     ortho_decomp 00000 Convergence criterion met
 Hartree-Fock
 Hartree-Fock
 Hartree-Fock
 Exchange:     0.1500 Hartree-Fock + 1.0000 wB97M-V + LR-HF
 Correlation:  1.0000 wB97M-V
 Using Euler-Maclaurin-Lebedev (99,590) quadrature formula
 Nonlocal Correlation:  VV10 with C = 0.0100 and b = 6.00 and scale = 1.00000
 Grid used for NLC:  SG-1 standard quadrature
 Long-range K will be added via erf
 Coulomb attenuation parameter = 0.3 bohr**(-1)
 Nonlocal correlation = 2.471771212334e-01
Doing General SCFMI
 Exchange:     0.1500 Hartree-Fock + 1.0000 wB97M-V + LR-HF
 Correlation:  1.0000 wB97M-V
 Using Euler-Maclaurin-Lebedev (99,590) quadrature formula
 Nonlocal Correlation:  VV10 with C = 0.0100 and b = 6.00 and scale = 1.00000
 Grid used for NLC:  SG-1 standard quadrature
performing fock build at end of subrot_r(subrot) constructor so that all methods have access
<S^2> of initial wavefunction before polarization iterations 0.0000000000
Beginning iterations for the determination of the polarized wavefunction
Energy prior to optimization (guess energy) = -482.104879270314
Begin Timing: Total SCF Calculation
begin iterations for algorithm: DIIS         
the SCF tolerance is set to 1.00e-08
    1    -482.1048792703      9.63e-04     00000 
    2    -482.1421102855      6.00e-04     00000 
    3    -482.1495670968      2.65e-04     00000 
    4    -482.1511777419      5.44e-05     00000 
    5    -482.1514226566      2.29e-05     00000 
    6    -482.1514438009      1.26e-05     00000 
    7    -482.1514480271      1.87e-06     00000 
    8    -482.1514482860      6.23e-07     00000 
    9    -482.1514482993      3.76e-07     00000 
   10    -482.1514483018      1.69e-07     00000 
   11    -482.1514483023      6.16e-08     00000 
   12    -482.1514483023      1.69e-08     00000 
   13    -482.1514483023      6.08e-09     00000 Convergence criterion met
write pseudocanon occs and virts to disk
write pseudocanon orbital energies to disk
Timing for Total SCF: 212.00s (wall), 1267.26s (cpu)
<S^2> of polarized wavefunction after polarization iterations 0.0000000000
relaxing scfmi constraint to allow all rotations in the entire AO span
Doing General SCFMI
 Exchange:     0.1500 Hartree-Fock + 1.0000 wB97M-V + LR-HF
 Correlation:  1.0000 wB97M-V
 Using Euler-Maclaurin-Lebedev (99,590) quadrature formula
 Nonlocal Correlation:  VV10 with C = 0.0100 and b = 6.00 and scale = 1.00000
 Grid used for NLC:  SG-1 standard quadrature
performing fock build at end of subrot_r(subrot) constructor so that all methods have access
<S^2> of polarized wavefunction before ct-allowed iterations 0.0000000000
Beginning iterations for the determination of the CT-Allowed wavefunction
Energy prior to optimization (guess energy) = -482.151448302325
Begin Timing: Total SCF Calculation
begin iterations for algorithm: DIIS         
the SCF tolerance is set to 1.00e-08
    1    -482.1514483023      4.34e-04     00000 
    2    -482.1702926591      1.18e-04     00000 
    3    -482.1706395308      1.27e-04     00000 
    4    -482.1713848271      7.51e-06     00000 
    5    -482.1713918638      3.11e-06     00000 
    6    -482.1713924522      7.76e-07     00000 
    7    -482.1713925220      1.12e-07     00000 
    8    -482.1713925244      3.38e-08     00000 
    9    -482.1713925246      2.06e-08     00000 
   10    -482.1713925246      4.46e-09     00000 Convergence criterion met
write pseudocanon occs and virts to disk
write pseudocanon orbital energies to disk
Timing for Total SCF: 156.00s (wall), 938.21s (cpu)
<S^2> of ct_allowed wavefunction after ct-allowed iterations 0.0000000000

================================
        Results of EDA2         
================================
Basic EDA Quantities
--------------------
Fragment Energies (Ha):
1  -99.8700285039
2 -382.1557767681
--------------------
  E_prp (kJ/mol) = 0.0000
  E_frz (kJ/mol) = -207.6112
  E_pol (kJ/mol) = -122.2684
  E_vct (kJ/mol) = -52.3642
  E_int (kJ/mol) = -382.2439
--------------------


Decomposition of frozen interaction energy
--------------------
  --------------------
  Orthogonal Frozen Decomposition:
  --------------------
     E_elec   (ELEC)   (kJ/mol) = -727.2712
     E_pauli  (PAULI)  (kJ/mol) = 567.0246
     E_disp   (DISP)   (kJ/mol) = -47.3646
  --------------------
  Classical Frozen Decomposition:
  --------------------
     E_cls_elec  (CLS ELEC)  (kJ/mol) = -415.0213
     E_mod_pauli (MOD PAULI) (kJ/mol) = 235.1605 (FRZ - CLS ELEC - CLS DISP)
     E_cls_disp  (CLS DISP)  (kJ/mol) = -27.7505
  --------------------
--------------------

Simplified EDA Summary (kJ/mol)
--------------------
 PREPARATION      0.0000
 FROZEN           -207.6112 (ELEC + PAULI + DISP)
[ELEC + PAULI = -179.8608, DISP = -27.7505]
 POLARIZATION    -122.2684
 CHARGE TRANSFER -52.3642
 TOTAL           -382.2439     (PRP + FRZ + POL + CT)
--------------------
 
 --------------------------------------------------------------
 
                    Orbital Energies (a.u.)
 --------------------------------------------------------------
 
 Alpha MOs
 -- Occupied --
-24.6338 -19.1905 -19.1871 -19.1806 -19.1791 -19.1732  -1.0272  -0.9925
 -0.9880  -0.9785  -0.9698  -0.9673  -0.5015  -0.4968  -0.4943  -0.4845
 -0.4753  -0.3743  -0.3513  -0.3476  -0.3408  -0.3296  -0.2873  -0.2818
 -0.2792  -0.2765  -0.2713  -0.2705  -0.2661  -0.2622
 -- Virtual --
  0.1390   0.1439   0.1556   0.1669   0.1801   0.1909   0.2006   0.2064
  0.2102   0.2193   0.2285   0.2347   0.2401   0.2429   0.2474   0.2657
  0.2754   0.2779   0.2826   0.3032   0.3180   0.3263   0.3349   0.3462
  0.3486   0.3511   0.3638   0.3712   0.3882   0.3960   0.3992   0.4010
  0.4134   0.4180   0.4224   0.4332   0.4371   0.4461   0.4506   0.4649
  0.4667   0.4691   0.4792   0.4868   0.4922   0.4995   0.5130   0.5163
  0.5285   0.5382   0.5421   0.5537   0.5598   0.5640   0.5739   0.5782
  0.5809   0.5896   0.6072   0.6157   0.6189   0.6279   0.6377   0.6437
  0.6522   0.6632   0.6686   0.6722   0.6898   0.6973   0.7066   0.7154
  0.7250   0.7331   0.7347   0.7468   0.7575   0.7642   0.7666   0.7761
  0.7913   0.8010   0.8090   0.8121   0.8287   0.8372   0.8461   0.8833
  0.8870   0.9025   0.9131   0.9220   0.9295   0.9525   0.9580   0.9629
  0.9749   0.9838   0.9941   1.0072   1.0246   1.0312   1.0609   1.0679
  1.0699   1.0870   1.0985   1.1010   1.1133   1.1206   1.1269   1.1366
  1.1505   1.1648   1.1788   1.1894   1.2039   1.2157   1.2326   1.2570
  1.2697   1.2819   1.2896   1.3016   1.3148   1.3185   1.3265   1.3354
  1.3429   1.3584   1.3636   1.3751   1.3918   1.3937   1.4142   1.4160
  1.4424   1.4474   1.4752   1.4807   1.4881   1.4959   1.5139   1.5322
  1.5454   1.5509   1.5581   1.5757   1.5795   1.5986   1.6096   1.6349
  1.7136   1.8380   1.8585   1.9670   2.0832   2.0910   2.1076   2.1120
  2.1240   2.1331   2.1799   2.2060   2.2132   2.2371   2.2580   2.2782
  2.2869   2.3101   2.3391   2.3517   2.3854   2.4038   2.4202   2.4409
  2.4526   2.4647   2.4724   2.4969   2.5050   2.5303   2.5356   2.7431
  2.7689   2.8052   2.8082   2.8510   2.8676   2.8933   2.9284   2.9563
  2.9726   2.9893   3.0225   3.0455   3.0498   3.0976   3.1793   3.1899
  3.2012   3.2523   3.3043   3.3702   3.4039   3.4150   3.4280   3.4404
  3.4445   3.4582   3.4643   3.4763   3.4796   3.4919   3.5078   3.5166
  3.5359   3.5541   3.5616   3.5701   3.5810   3.5876   3.5928   3.6084
  3.6096   3.6151   3.6238   3.6301   3.6517   3.6544   3.6875   3.7093
  3.7813   3.8328   3.8464   3.8835   3.8942   3.9520   3.9966   4.0182
  4.0401   4.0713   4.0776   4.0829   4.0986   4.1083   4.1133   4.1313
  4.1573   4.1815   4.1881   4.2034   4.2132   4.2211   4.2294   4.2341
  4.2443   4.2642   4.2721   4.2824   4.2894   4.3016   4.3071   4.3212
  4.3360   4.3372   4.3687   4.3825   4.3913   4.4152   4.4235   4.4352
  4.4476   4.4655   4.4737   4.4797   4.5114   4.5178   4.5536   4.5985
  4.6373   4.8294   4.8668   4.8903   4.8989   4.9088   4.9385   4.9504
  4.9563   4.9730   4.9949   5.0578   5.1768   5.1882   5.2130   5.2258
  5.2404   5.3316   5.3387   5.3534   5.3953   5.4315   5.7453   5.8103
  5.8254   5.8418   5.8427   6.1030   6.2619   6.3168   6.3683   6.3974
  6.5976   6.6499   6.6616   6.6675   6.7203   6.7498   6.7561   6.7692
  6.7750   6.7871   6.8151   6.8260   6.8374   6.8453   6.8479   6.8530
  6.8783   6.8835   6.8929   6.9097   6.9410   6.9513   7.0034   7.0135
  7.0336   7.0359   7.0444   7.0467   7.0535   7.0738   7.2397   7.2504
  7.2608   7.2686   7.2903   7.3068   7.3264   7.3516   7.3960   7.4152
  7.4568   7.5003   7.5291   7.6271   7.6523   7.6657   7.7002   7.7065
  7.7365   7.7385   7.7858   7.8251   7.9883   8.0289   8.0527   8.0923
  8.1155   8.9596   8.9999   9.0510   9.1864   9.2349  44.6238  44.6367
 44.6454  44.6876  44.7227  58.2502
 --------------------------------------------------------------
 
          Ground-State Mulliken Net Atomic Charges

     Atom                 Charge (a.u.)
  ----------------------------------------
      1 F                    -0.758545
      2 O                    -0.488509
      3 H                     0.322669
      4 H                     0.126735
      5 O                    -0.486375
      6 H                     0.336020
      7 H                     0.131305
      8 O                    -0.456205
      9 H                     0.135358
     10 H                     0.283300
     11 O                    -0.501211
     12 H                     0.172173
     13 H                     0.255303
     14 O                    -0.516838
     15 H                     0.297951
     16 H                     0.146868
  ----------------------------------------
  Sum of atomic charges =    -1.000000

 -----------------------------------------------------------------
                    Cartesian Multipole Moments
 -----------------------------------------------------------------
    Charge (ESU x 10^10)
                -4.8032
    Dipole Moment (Debye)
         X       1.3978      Y      -0.1814      Z       3.2338
       Tot       3.5277
    Quadrupole Moments (Debye-Ang)
        XX     -61.7383     XY       2.3271     YY     -48.0052
        XZ      -0.3857     YZ       3.3776     ZZ     -55.9426
    Octopole Moments (Debye-Ang^2)
       XXX       1.3522    XXY      14.4745    XYY      27.3778
       YYY      -1.3954    XXZ      30.4493    XYZ       4.8582
       YYZ      22.4223    XZZ      -0.7921    YZZ      -7.3695
       ZZZ     -13.9153
    Hexadecapole Moments (Debye-Ang^3)
      XXXX    -883.6385   XXXY      64.0803   XXYY    -294.1826
      XYYY     -30.1048   YYYY    -621.1300   XXXZ     -44.6743
      XXYZ      41.3515   XYYZ      10.5871   YYYZ       6.7348
      XXZZ    -221.3605   XYZZ       1.8986   YYZZ    -162.4618
      XZZZ      12.4861   YZZZ       1.2005   ZZZZ    -339.5723
 -----------------------------------------------------------------
 Total job time:  1706.58s(wall), 3979.92s(cpu) 
 Tue Jan 16 08:47:19 2024

        *************************************************************
        *                                                           *
        *  Thank you very much for using Q-Chem.  Have a nice day.  *
        *                                                           *
        *************************************************************


