
Running Job 1 of 1 121_F-Water_Cls_003_almo.in
qchem 121_F-Water_Cls_003_almo.in_917833.0 /scratch/qchem917833/ 6
/home/kchung25/qchem/5.4.0/exe/qcprog.exe_s 121_F-Water_Cls_003_almo.in_917833.0 /scratch/qchem917833/
                  Welcome to Q-Chem
     A Quantum Leap Into The Future Of Chemistry


 Q-Chem 5.4, Q-Chem, Inc., Pleasanton, CA (2021)

 E. Epifanovsky,  A. T. B. Gilbert,  Xintian Feng,  Joonho Lee,  Yuezhi Mao,  
 N. Mardirossian,  P. Pokhilko,  A. White,  M. Wormit,  M. P. Coons,  
 A. L. Dempwolff,  Zhengting Gan,  D. Hait,  P. R. Horn,  L. D. Jacobson,  
 I. Kaliman,  J. Kussmann,  A. W. Lange,  Ka Un Lao,  D. S. Levine,  Jie Liu,  
 S. C. McKenzie,  A. F. Morrison,  K. Nanda,  F. Plasser,  D. R. Rehn,  
 M. L. Vidal,  Zhi-Qiang You,  Ying Zhu,  B. Alam,  B. Albrecht,  
 A. Aldossary,  E. Alguire,  J. H. Andersen,  D. Barton,  K. Begam,  A. Behn,  
 Y. A. Bernard,  E. J. Berquist,  H. Burton,  A. Carreras,  K. Carter-Fenk,  
 Romit Chakraborty,  A. D. Chien,  K. D. Closser,  V. Cofer-Shabica,  
 S. Dasgupta,  Jia Deng,  M. de Wergifosse,  M. Diedenhofen,  Hainam Do,  
 S. Ehlert,  Po-Tung Fang,  S. Fatehi,  Qingguo Feng,  T. Friedhoff,  
 J. Gayvert,  Qinghui Ge,  G. Gidofalvi,  M. Goldey,  J. Gomes,  
 C. Gonzalez-Espinoza,  S. Gulania,  A. Gunina,  M. W. D. Hanson-Heine,  
 P. H. P. Harbach,  A. W. Hauser,  M. F. Herbst,  M. Hernandez Vera,  
 M. Hodecker,  Z. C. Holden,  S. Houck,  Xunkun Huang,  Kerwin Hui,  
 B. C. Huynh,  M. Ivanov,  Hyunjun Ji,  Hanjie Jiang,  B. Kaduk,  S. Kaehler,  
 K. Khistyaev,  Jaehoon Kim,  P. Klunzinger,  Z. Koczor-Benda,  
 Joong Hoon Koh,  D. Kosenkov,  L. Koulias,  T. Kowalczyk,  C. M. Krauter,  
 K. Kue,  A. Kunitsa,  T. Kus,  A. Landau,  K. V. Lawler,  D. Lefrancois,  
 S. Lehtola,  Rain Li,  Yi-Pei Li,  Jiashu Liang,  M. Liebenthal,  
 Hung-Hsuan Lin,  You-Sheng Lin,  Fenglai Liu,  Kuan-Yu Liu,  
 M. Loipersberger,  A. Luenser,  A. Manjanath,  P. Manohar,  E. Mansoor,  
 S. F. Manzer,  Shan-Ping Mao,  A. V. Marenich,  T. Markovich,  S. Mason,  
 S. A. Maurer,  P. F. McLaughlin,  M. F. S. J. Menger,  J.-M. Mewes,  
 S. A. Mewes,  P. Morgante,  J. W. Mullinax,  K. J. Oosterbaan,  G. Paran,  
 Alexander C. Paul,  Suranjan K. Paul,  F. Pavosevic,  Zheng Pei,  S. Prager,  
 E. I. Proynov,  E. Ramos,  B. Rana,  A. E. Rask,  A. Rettig,  R. M. Richard,  
 F. Rob,  E. Rossomme,  T. Scheele,  M. Scheurer,  M. Schneider,  
 N. Sergueev,  S. M. Sharada,  W. Skomorowski,  D. W. Small,  C. J. Stein,  
 Yu-Chuan Su,  E. J. Sundstrom,  Zhen Tao,  J. Thirman,  T. Tsuchimochi,  
 N. M. Tubman,  S. P. Veccham,  O. Vydrov,  J. Wenzel,  J. Witte,  A. Yamada,  
 Kun Yao,  S. Yeganeh,  S. R. Yost,  A. Zech,  Igor Ying Zhang,  Xing Zhang,  
 Yu Zhang,  D. Zuev,  A. Aspuru-Guzik,  A. T. Bell,  N. A. Besley,  
 K. B. Bravaya,  B. R. Brooks,  D. Casanova,  Jeng-Da Chai,  S. Coriani,  
 C. J. Cramer,  A. E. DePrince, III,  R. A. DiStasio Jr.,  A. Dreuw,  
 B. D. Dunietz,  T. R. Furlani,  W. A. Goddard III,  S. Grimme,  
 S. Hammes-Schiffer,  T. Head-Gordon,  W. J. Hehre,  Chao-Ping Hsu,  
 T.-C. Jagau,  Yousung Jung,  A. Klamt,  Jing Kong,  D. S. Lambrecht,  
 WanZhen Liang,  N. J. Mayhall,  C. W. McCurdy,  J. B. Neaton,  T. Neudecker,  
 C. Ochsenfeld,  J. A. Parkhill,  R. Peverati,  V. A. Rassolov,  Yihan Shao,  
 L. V. Slipchenko,  R. P. Steele,  J. E. Subotnik,  A. J. W. Thom,  
 A. Tkatchenko,  D. G. Truhlar,  T. Van Voorhis,  T. A. Wesolowski,  
 K. B. Whaley,  H. L. Woodcock III,  P. M. Zimmerman,  S. Faraji,  
 P. M. W. Gill,  M. Head-Gordon,  J. M. Herbert,  A. I. Krylov

 Additional authors since Version 5.4.0: 
 Chandrima Chakravarty,  L. Cunha,  R. Kang,  Yongbin Kim,  S. Kotaru,  
 Shaozhi Li,  Xiangyuan Li,  F. Matz,  A. Molle,  V. Parravicini,  
 Haisheng Ren,  Hengyuan Shen,  Yingli Su,  Hung-Yi Tsai,  C. Utku,  
 Fang Wang,  Jeff Yang,  F. Zeller

 Contributors to earlier versions of Q-Chem not listed above: 
 R. D. Adamson,  B. Austin,  R. Baer,  J. Baker,  G. J. O. Beran,  
 K. Brandhorst,  S. T. Brown,  E. F. C. Byrd,  Arup K. Chakraborty,  
 G. K. L. Chan,  Chun-Min Chang,  Yunqing Chen,  C.-L. Cheng,  
 Siu Hung Chien,  D. M. Chipman,  D. L. Crittenden,  H. Dachsel,  
 R. J. Doerksen,  A. D. Dutoi,  R. G. Edgar,  J. Fosso-Tande,  
 L. Fusti-Molnar,  D. Ghosh,  A. Ghysels,  A. Golubeva-Zadorozhnaya,  
 J. Gonthier,  M. S. Gordon,  S. R. Gwaltney,  G. Hawkins,  J. E. Herr,  
 A. Heyden,  S. Hirata,  E. G. Hohenstein,  G. Kedziora,  F. J. Keil,  
 C. Kelley,  Jihan Kim,  R. A. King,  R. Z. Khaliullin,  P. P. Korambath,  
 W. Kurlancheek,  A. Laurent,  A. M. Lee,  M. S. Lee,  S. V. Levchenko,  
 Ching Yeh Lin,  D. Liotard,  E. Livshits,  R. C. Lochan,  I. Lotan,  
 L. A. Martinez-Martinez,  P. E. Maslen,  N. Nair,  D. P. O'Neill,  
 D. Neuhauser,  E. Neuscamman,  C. M. Oana,  R. Olivares-Amaya,  R. Olson,  
 T. M. Perrine,  B. Peters,  P. A. Pieniazek,  A. Prociuk,  Y. M. Rhee,  
 J. Ritchie,  M. A. Rohrdanz,  E. Rosta,  N. J. Russ,  H. F. Schaefer III,  
 M. W. Schmidt,  N. E. Schultz,  S. Sharma,  N. Shenvi,  C. D. Sherrill,  
 A. C. Simmonett,  A. Sodt,  T. Stein,  D. Stuck,  K. S. Thanthiriwatte,  
 V. Vanovschi,  L. Vogt,  Tao Wang,  A. Warshel,  M. A. Watson,  
 C. F. Williams,  Q. Wu,  X. Xu,  Jun Yang,  W. Zhang,  Yan Zhao

   Please cite Q-Chem as follows:
  "Software for the frontiers of quantum chemistry:
   An overview of developments in the Q-Chem 5 package"
   J. Chem. Phys. 155, 084801 (2021)
   https://doi.org/10.1063/5.0055522 (open access)

 Q-Chem 5.4.2 for Intel X86 EM64T Linux

 Parts of Q-Chem use Armadillo 9.900.5 (Nocturnal Misbehaviour).
 http://arma.sourceforge.net/

 Q-Chem begins on Sun Jan 14 06:44:47 2024  

 Host: 
0

     Scratch files written to /scratch/qchem917833//
 Dec1321 |scratch|qcdevops|jenkins|workspace|build_RNUM 5684   
 Processing $rem in /home/kchung25/qchem/5.4.0/config/preferences:
 Processing $rem in /home/kchung25/.qchemrc:

 Q-Chem warning in module libgen/rem_setup.C, line 3079:

 Neither GIA nor STOLL is specified by user. Use STOLL as the default


 Checking the input file for inconsistencies... 	...done.

--------------------------------------------------------------
User input:
--------------------------------------------------------------
$molecule
-1 1
--
-1 1
F      0.000000     0.000000     0.000000
--
0 1
O     -1.051876     0.397188    -2.664526
H     -0.485530    -0.258494    -3.098839
H     -0.784316     0.374530    -1.766571
O     -0.548980    -2.889172    -0.876141
H     -0.402675    -1.956604    -0.860721
H      0.114136    -3.180631    -1.543791
O      0.945837     1.626921     2.124282
H      0.821758     1.095363     1.318237
H      0.313788     1.263948     2.804817
O      2.426736     0.456517    -1.371097
H      2.283500     1.268623    -1.938041
H      1.590392     0.293672    -0.864561
O     -2.021952    -0.732353     1.474827
H     -2.053094    -1.698175     1.306604
H     -1.260753    -0.350683     0.971493
O      2.023011    -1.613709     1.503423
H      1.169042    -1.189349     1.339393
H      1.933657    -2.225891     2.263621
$end

$rem
JOBTYPE          eda
EDA2             1
METHOD           wB97M-V
BASIS            def2-TZVPPD
SYMMETRY         false
MEM_TOTAL        50000
MEM_STATIC       10000
THRESH           14
SCF_CONVERGENCE  8
XC_GRID          000099000590
NL_GRID          1
EDA_CLS_DISP     true
FD_MAT_VEC_PROD  FALSE
$end
--------------------------------------------------------------
 ----------------------------------------------------------------
             Standard Nuclear Orientation (Angstroms)
    I     Atom           X                Y                Z
 ----------------------------------------------------------------
    1      F       0.0182313230    -0.0786589331     0.4790522760
    2      O       2.6816917424    -0.8911914809     1.2598657521
    3      H       2.9918790289    -1.1034129497     0.3665347081
    4      H       1.7920185536    -0.6229718650     1.1375351530
    5      O       1.7451159008     1.5111307210    -1.4974991269
    6      H       1.4340540309     0.8895264628    -0.8586136416
    7      H       2.1263570341     0.9143105914    -2.1822535587
    8      O      -2.6432107814    -0.6104260803     1.3085118666
    9      H      -1.7527737797    -0.6136864956     0.9151044908
   10      H      -2.8824849914     0.3451192342     1.4635738794
   11      O       0.0904045838    -2.6140115249    -0.7635822736
   12      H       0.4388977373    -3.2553588744    -0.0789770550
   13      H       0.0372353582    -1.7206860326    -0.3373064265
   14      O      -0.2428454539     2.3948746506     1.2621333790
   15      H       0.1622002548     2.8851495942     0.5153741199
   16      H      -0.2167729558     1.4282820605     1.0536627296
   17      O      -1.7263331187     0.2216707035    -1.9340801236
   18      H      -1.3356654020     0.4683788163    -1.0839247580
   19      H      -2.1976097600     0.9969039445    -2.3049759136
 ----------------------------------------------------------------
 Molecular Point Group                 C1    NOp =  1
 Largest Abelian Subgroup              C1    NOp =  1
 Nuclear Repulsion Energy =         352.16903014 hartrees
 There are       35 alpha and       35 beta electrons
 Requested basis set is def2-TZVPPD
 There are 182 shells and 484 basis functions

 Q-Chem warning in module libmdc/get_mega.C, line 171:

 Allowed MEM_STATIC has been capped at MEM_STATIC=8191.
 Reduce the value of MEM_STATIC to silence this warning.


 Total QAlloc Memory Limit  50000 MB
 Mega-Array Size      8007 MB
 MEM_STATIC part      8191 MB
 A cutoff of  1.0D-14 yielded  14568 shell pairs
 There are    101304 function pairs (    123582 Cartesian)
 Smallest overlap matrix eigenvalue = 5.17E-05

 Scale SEOQF with 1.000000e-01/1.000000e-01/1.000000e-01

 Standard Electronic Orientation quadrupole field applied
 Nucleus-field energy     =     0.0000000064 hartrees

 -----------------------------------------------------------------------
  General SCF calculation program by
  Eric Jon Sundstrom, Paul Horn, Yuezhi Mao, Dmitri Zuev, Alec White,
  David Stuck, Shaama M.S., Shane Yost, Joonho Lee, David Small,
  Daniel Levine, Susi Lehtola, Hugh Burton, Evgeny Epifanovsky,
  Bang C. Huynh
 -----------------------------------------------------------------------
================================================================
                 ALMO-EDA with the EDA2 driver                  
================================================================
 The second-generation ALMO-EDA (for DFT):                      
 P. R. Horn, Y. Mao and M. Head-Gordon, PCCP, 18, 23067 (2016)  
 Y. Mao et al. Annu. Rev. Phys. Chem. 72, 641 (2021)            
 Decomposition of the frozen energy:                            
 P. R. Horn, Y. Mao and M. Head-Gordon, JCP, 144, 114107 (2016) 
 FERF model for polarization:                                   
 P. R. Horn and M. Head-Gordon, JCP, 143, 114111 (2015)         
================================================================
 Using eda2 option set 1
 Option set summary: Frozen orbital wavefunction, initial wavefunction decomposition, and nDQ polarization.
--------------------------------
Printing EDA Options
--------------------------------
eda_child_super_basis      0
fragmo_guess_mode          0
child_mp                   1
child_mp_orders            232
cls_elec                   1
cls_disp                   1
scfmi_mode                 1
scfmi_occs                 0
scfmi_virts                0
frz_relax                  0
frz_relax_method           0
dc_pen_start               0
dc_pen_conv                0
dc_pen_increment           0
dc_pen_steps               0
dc_pen_thresh_factor       0
dc_pen_pre_newton_thresh   0
frz_ortho_decomp           1
frz_ortho_decomp_conv      6
plot_mo_ortho_frz          0
frgm_method                2
scfmi_freeze_ss            0
separate_rehyb             0
plot_diff_den              0
eda_nocv                   0
eda_vct_relax              1
disp_free_x                0
disp_free_c                0
eda_bsse                   0
eda_pct_a                  0
eda_covp                   0
--------------------------------
Attempting to make child job directory: /scratch/qchem917833//Frg1/
Attempting to make child job directory: /scratch/qchem917833//Frg2/
Creating input file /scratch/qchem917833/Frg1.input
using default PutDataFrgm: nothing
calling putenv with: QCSCRATCH=/scratch/qchem917833/ 
Spawning Job For Fragment 0
Done Job For Fragment 0
calling putenv with: QCSCRATCH=/scratch 
calling putenv with: QCTHREADS=6 
Creating input file /scratch/qchem917833/Frg2.input
using default PutDataFrgm: nothing
calling putenv with: QCSCRATCH=/scratch/qchem917833/ 
Spawning Job For Fragment 1
Done Job For Fragment 1
calling putenv with: QCSCRATCH=/scratch 
calling putenv with: QCTHREADS=6 
Doing General SCFMI
 Exchange:     0.1500 Hartree-Fock + 1.0000 wB97M-V + LR-HF
 Correlation:  1.0000 wB97M-V
 Using Euler-Maclaurin-Lebedev (99,590) quadrature formula
 Nonlocal Correlation:  VV10 with C = 0.0100 and b = 6.00 and scale = 1.00000
 Grid used for NLC:  SG-1 standard quadrature
performing fock build before subrot guess so that all methods have access
Printing subrot_rss_gen Method Specification:
Occupied Subspace Method is 0
Virtual Subspace Method is 0
Energy of the unrelaxed supersystem initial determinant -558.554810528364
write pseudocanon occs and virts to disk
write pseudocanon orbital energies to disk
Tolerance of ortho_decomp_scf: 1.00e-06
GDM subspace size: 20
Beginning the Orthogonal Decomposition of the Initial Supersystem Wavefunction
    1    -558.1147100481      2.94e-01     ortho_decomp Preconditoned Steepest Descent
    2    -558.1689022783      7.02e-03     ortho_decomp BFGS Step
    3    -558.1690728094      4.75e-04     ortho_decomp BFGS Step
    4    -558.1690729587      1.38e-05     ortho_decomp BFGS Step
    5    -558.1690729590      4.18e-07     ortho_decomp 00000 Convergence criterion met
 Hartree-Fock
 Hartree-Fock
 Hartree-Fock
 Exchange:     0.1500 Hartree-Fock + 1.0000 wB97M-V + LR-HF
 Correlation:  1.0000 wB97M-V
 Using Euler-Maclaurin-Lebedev (99,590) quadrature formula
 Nonlocal Correlation:  VV10 with C = 0.0100 and b = 6.00 and scale = 1.00000
 Grid used for NLC:  SG-1 standard quadrature
 Long-range K will be added via erf
 Coulomb attenuation parameter = 0.3 bohr**(-1)
 Nonlocal correlation = 2.877908636311e-01
Doing General SCFMI
 Exchange:     0.1500 Hartree-Fock + 1.0000 wB97M-V + LR-HF
 Correlation:  1.0000 wB97M-V
 Using Euler-Maclaurin-Lebedev (99,590) quadrature formula
 Nonlocal Correlation:  VV10 with C = 0.0100 and b = 6.00 and scale = 1.00000
 Grid used for NLC:  SG-1 standard quadrature
performing fock build at end of subrot_r(subrot) constructor so that all methods have access
<S^2> of initial wavefunction before polarization iterations 0.0000000000
Beginning iterations for the determination of the polarized wavefunction
Energy prior to optimization (guess energy) = -558.554810528364
Begin Timing: Total SCF Calculation
begin iterations for algorithm: DIIS         
the SCF tolerance is set to 1.00e-08
    1    -558.5548105284      8.45e-04     00000 
    2    -558.5910547207      5.67e-04     00000 
    3    -558.6003952955      2.20e-04     00000 
    4    -558.6020180615      4.87e-05     00000 
    5    -558.6023228845      2.24e-05     00000 
    6    -558.6023518798      1.14e-05     00000 
    7    -558.6023570298      1.66e-06     00000 
    8    -558.6023573234      6.23e-07     00000 
    9    -558.6023573437      3.85e-07     00000 
   10    -558.6023573482      1.43e-07     00000 
   11    -558.6023573487      6.17e-08     00000 
   12    -558.6023573488      2.25e-08     00000 
   13    -558.6023573488      1.39e-08     00000 
   14    -558.6023573488      3.45e-09     00000 Convergence criterion met
write pseudocanon occs and virts to disk
write pseudocanon orbital energies to disk
Timing for Total SCF: 365.00s (wall), 2186.00s (cpu)
<S^2> of polarized wavefunction after polarization iterations 0.0000000000
relaxing scfmi constraint to allow all rotations in the entire AO span
Doing General SCFMI
 Exchange:     0.1500 Hartree-Fock + 1.0000 wB97M-V + LR-HF
 Correlation:  1.0000 wB97M-V
 Using Euler-Maclaurin-Lebedev (99,590) quadrature formula
 Nonlocal Correlation:  VV10 with C = 0.0100 and b = 6.00 and scale = 1.00000
 Grid used for NLC:  SG-1 standard quadrature
performing fock build at end of subrot_r(subrot) constructor so that all methods have access
<S^2> of polarized wavefunction before ct-allowed iterations 0.0000000000
Beginning iterations for the determination of the CT-Allowed wavefunction
Energy prior to optimization (guess energy) = -558.602357348801
Begin Timing: Total SCF Calculation
begin iterations for algorithm: DIIS         
the SCF tolerance is set to 1.00e-08
    1    -558.6023573488      3.73e-04     00000 
    2    -558.6211548761      9.78e-05     00000 
    3    -558.6214819510      1.05e-04     00000 
    4    -558.6221890699      6.18e-06     00000 
    5    -558.6221950926      2.74e-06     00000 
    6    -558.6221957080      6.38e-07     00000 
    7    -558.6221957705      1.11e-07     00000 
    8    -558.6221957734      3.43e-08     00000 
    9    -558.6221957736      2.25e-08     00000 
   10    -558.6221957736      3.35e-09     00000 Convergence criterion met
write pseudocanon occs and virts to disk
write pseudocanon orbital energies to disk
Timing for Total SCF: 250.00s (wall), 1495.19s (cpu)
<S^2> of ct_allowed wavefunction after ct-allowed iterations 0.0000000000

================================
        Results of EDA2         
================================
Basic EDA Quantities
--------------------
Fragment Energies (Ha):
1  -99.8700285039
2 -458.5992007501
--------------------
  E_prp (kJ/mol) = -0.0000
  E_frz (kJ/mol) = -224.6963
  E_pol (kJ/mol) = -124.8357
  E_vct (kJ/mol) = -52.0864
  E_int (kJ/mol) = -401.6184
--------------------


Decomposition of frozen interaction energy
--------------------
  --------------------
  Orthogonal Frozen Decomposition:
  --------------------
     E_elec   (ELEC)   (kJ/mol) = -812.7184
     E_pauli  (PAULI)  (kJ/mol) = 641.8742
     E_disp   (DISP)   (kJ/mol) = -53.8521
  --------------------
  Classical Frozen Decomposition:
  --------------------
     E_cls_elec  (CLS ELEC)  (kJ/mol) = -457.6880
     E_mod_pauli (MOD PAULI) (kJ/mol) = 264.4830 (FRZ - CLS ELEC - CLS DISP)
     E_cls_disp  (CLS DISP)  (kJ/mol) = -31.4913
  --------------------
--------------------

Simplified EDA Summary (kJ/mol)
--------------------
 PREPARATION      -0.0000
 FROZEN           -224.6963 (ELEC + PAULI + DISP)
[ELEC + PAULI = -193.2050, DISP = -31.4913]
 POLARIZATION    -124.8357
 CHARGE TRANSFER -52.0864
 TOTAL           -401.6184     (PRP + FRZ + POL + CT)
--------------------
 
 --------------------------------------------------------------
 
                    Orbital Energies (a.u.)
 --------------------------------------------------------------
 
 Alpha MOs
 -- Occupied --
-24.6452 -19.2082 -19.1935 -19.1925 -19.1845 -19.1797 -19.1682  -1.0407
 -1.0125  -1.0029  -0.9903  -0.9720  -0.9709  -0.9619  -0.5054  -0.5039
 -0.5003  -0.4848  -0.4778  -0.4731  -0.3852  -0.3699  -0.3548  -0.3546
 -0.3473  -0.3375  -0.3033  -0.2914  -0.2899  -0.2865  -0.2843  -0.2751
 -0.2713  -0.2657  -0.2614
 -- Virtual --
  0.1306   0.1409   0.1513   0.1567   0.1686   0.1707   0.1892   0.1941
  0.2011   0.2100   0.2180   0.2204   0.2244   0.2280   0.2347   0.2446
  0.2472   0.2649   0.2687   0.2726   0.2799   0.2846   0.2954   0.3098
  0.3195   0.3226   0.3299   0.3387   0.3444   0.3562   0.3677   0.3712
  0.3741   0.3886   0.3942   0.3971   0.4017   0.4079   0.4128   0.4158
  0.4240   0.4335   0.4382   0.4386   0.4427   0.4463   0.4545   0.4626
  0.4663   0.4777   0.4843   0.4898   0.4929   0.5014   0.5133   0.5150
  0.5201   0.5227   0.5242   0.5383   0.5498   0.5570   0.5656   0.5723
  0.5755   0.5798   0.5878   0.5973   0.6034   0.6042   0.6132   0.6271
  0.6320   0.6381   0.6479   0.6593   0.6598   0.6627   0.6716   0.6776
  0.6858   0.7020   0.7060   0.7084   0.7226   0.7241   0.7294   0.7350
  0.7459   0.7570   0.7605   0.7643   0.7709   0.7830   0.7862   0.7928
  0.7973   0.8034   0.8126   0.8256   0.8328   0.8457   0.8567   0.8626
  0.8832   0.9025   0.9088   0.9132   0.9269   0.9387   0.9488   0.9622
  0.9703   0.9855   1.0013   1.0134   1.0176   1.0371   1.0469   1.0519
  1.0605   1.0726   1.0775   1.0833   1.0916   1.0945   1.1125   1.1173
  1.1308   1.1452   1.1503   1.1565   1.1599   1.1715   1.1838   1.1955
  1.2112   1.2154   1.2183   1.2412   1.2515   1.2698   1.2759   1.2858
  1.2944   1.3048   1.3196   1.3275   1.3359   1.3399   1.3436   1.3481
  1.3615   1.3689   1.3827   1.3908   1.4006   1.4166   1.4182   1.4286
  1.4363   1.4437   1.4524   1.4651   1.4756   1.4781   1.5010   1.5070
  1.5295   1.5383   1.5580   1.5690   1.5871   1.5915   1.6003   1.6064
  1.6197   1.6313   1.6480   1.6533   1.6713   1.8256   1.8888   1.9600
  2.0485   2.0846   2.0969   2.1028   2.1132   2.1232   2.1307   2.1406
  2.1607   2.1771   2.2040   2.2128   2.2358   2.2583   2.2693   2.2963
  2.3081   2.3166   2.3307   2.3428   2.3702   2.3833   2.4086   2.4233
  2.4345   2.4418   2.4512   2.4658   2.4873   2.4930   2.4967   2.5162
  2.5782   2.7744   2.8226   2.8334   2.8612   2.8723   2.8849   2.9009
  2.9460   2.9528   2.9840   3.0000   3.0124   3.0224   3.0656   3.0948
  3.1225   3.1747   3.1987   3.2086   3.2397   3.2559   3.2934   3.3084
  3.3357   3.4008   3.4143   3.4281   3.4305   3.4376   3.4523   3.4573
  3.4678   3.4705   3.4922   3.4984   3.5046   3.5236   3.5343   3.5411
  3.5456   3.5665   3.5695   3.5838   3.5887   3.5964   3.5994   3.6054
  3.6123   3.6218   3.6271   3.6363   3.6467   3.6603   3.6678   3.6738
  3.6764   3.7003   3.7152   3.7246   3.8324   3.8511   3.8728   3.9013
  3.9186   3.9407   3.9661   3.9751   4.0040   4.0231   4.0547   4.0690
  4.0807   4.0954   4.1135   4.1219   4.1274   4.1525   4.1563   4.1624
  4.1863   4.2004   4.2067   4.2132   4.2216   4.2294   4.2375   4.2489
  4.2548   4.2602   4.2667   4.2749   4.2807   4.2834   4.2888   4.2917
  4.3163   4.3466   4.3567   4.3715   4.3873   4.3940   4.4077   4.4199
  4.4337   4.4490   4.4675   4.4703   4.4734   4.4896   4.5036   4.5164
  4.5238   4.5429   4.5628   4.6136   4.6414   4.8422   4.8625   4.8760
  4.8800   4.8977   4.9120   4.9241   4.9414   4.9666   4.9873   5.0189
  5.0253   5.0893   5.1418   5.1574   5.1670   5.1797   5.1870   5.2261
  5.3371   5.3753   5.3804   5.4164   5.4478   5.4578   5.7929   5.8138
  5.8196   5.8245   5.8547   5.8845   6.2519   6.2950   6.3079   6.3345
  6.4699   6.4856   6.6072   6.6215   6.6251   6.6656   6.6724   6.6951
  6.7051   6.7377   6.7409   6.7490   6.7637   6.7873   6.8065   6.8133
  6.8273   6.8343   6.8393   6.8433   6.8477   6.8506   6.8618   6.8684
  6.8844   6.9138   6.9248   6.9417   6.9563   6.9746   7.0008   7.0119
  7.0187   7.0333   7.0413   7.0485   7.0635   7.0754   7.2278   7.2483
  7.2540   7.2693   7.2726   7.2840   7.2993   7.3191   7.3296   7.3411
  7.3932   7.4224   7.5359   7.6249   7.6311   7.6549   7.6740   7.6857
  7.7077   7.7190   7.7326   7.7518   7.8365   7.8501   7.8590   7.9966
  8.0155   8.0430   8.0854   8.1067   8.1645   9.0095   9.0285   9.1001
  9.1394   9.4394  44.6280  44.6459  44.6709  44.7160  44.7256  44.7549
 58.3693
 --------------------------------------------------------------
 
          Ground-State Mulliken Net Atomic Charges

     Atom                 Charge (a.u.)
  ----------------------------------------
      1 F                    -0.697114
      2 O                    -0.450985
      3 H                     0.162124
      4 H                     0.242704
      5 O                    -0.401148
      6 H                     0.228861
      7 H                     0.141382
      8 O                    -0.506203
      9 H                     0.272718
     10 H                     0.189348
     11 O                    -0.534987
     12 H                     0.177069
     13 H                     0.317640
     14 O                    -0.573907
     15 H                     0.181350
     16 H                     0.272930
     17 O                    -0.392892
     18 H                     0.242178
     19 H                     0.128934
  ----------------------------------------
  Sum of atomic charges =    -1.000000

 -----------------------------------------------------------------
                    Cartesian Multipole Moments
 -----------------------------------------------------------------
    Charge (ESU x 10^10)
                -4.8032
    Dipole Moment (Debye)
         X       1.2539      Y       0.9228      Z      -2.8467
       Tot       3.2446
    Quadrupole Moments (Debye-Ang)
        XX     -64.6284     XY     -10.5516     YY     -62.5730
        XZ      -4.6607     YZ      -6.7630     ZZ     -62.9855
    Octopole Moments (Debye-Ang^2)
       XXX       3.1494    XXY      19.2574    XYY       1.4452
       YYY     -14.5778    XXZ     -35.2294    XYZ      11.5118
       YYZ      -1.4832    XZZ      -0.0816    YZZ       5.9581
       ZZZ     -17.0790
    Hexadecapole Moments (Debye-Ang^3)
      XXXX   -1023.1381   XXXY     -86.3104   XXYY    -306.1974
      XYYY     -22.6037   YYYY    -736.7275   XXXZ     -49.8351
      XXYZ      31.8685   XYYZ      24.1735   YYYZ     -77.2189
      XXZZ    -264.0782   XYZZ     -19.7144   YYZZ    -273.0908
      XZZZ     -18.9743   YZZZ     -28.8142   ZZZZ    -547.6385
 -----------------------------------------------------------------
 Total job time:  2925.26s(wall), 6587.50s(cpu) 
 Sun Jan 14 07:33:33 2024

        *************************************************************
        *                                                           *
        *  Thank you very much for using Q-Chem.  Have a nice day.  *
        *                                                           *
        *************************************************************


