
Running Job 1 of 1 121_F-Water_Cls_093_almo.in
qchem 121_F-Water_Cls_093_almo.in_1021273.0 /scratch/qchem1021273/ 6
/home/kchung25/qchem/5.4.0/exe/qcprog.exe_s 121_F-Water_Cls_093_almo.in_1021273.0 /scratch/qchem1021273/
                  Welcome to Q-Chem
     A Quantum Leap Into The Future Of Chemistry


 Q-Chem 5.4, Q-Chem, Inc., Pleasanton, CA (2021)

 E. Epifanovsky,  A. T. B. Gilbert,  Xintian Feng,  Joonho Lee,  Yuezhi Mao,  
 N. Mardirossian,  P. Pokhilko,  A. White,  M. Wormit,  M. P. Coons,  
 A. L. Dempwolff,  Zhengting Gan,  D. Hait,  P. R. Horn,  L. D. Jacobson,  
 I. Kaliman,  J. Kussmann,  A. W. Lange,  Ka Un Lao,  D. S. Levine,  Jie Liu,  
 S. C. McKenzie,  A. F. Morrison,  K. Nanda,  F. Plasser,  D. R. Rehn,  
 M. L. Vidal,  Zhi-Qiang You,  Ying Zhu,  B. Alam,  B. Albrecht,  
 A. Aldossary,  E. Alguire,  J. H. Andersen,  D. Barton,  K. Begam,  A. Behn,  
 Y. A. Bernard,  E. J. Berquist,  H. Burton,  A. Carreras,  K. Carter-Fenk,  
 Romit Chakraborty,  A. D. Chien,  K. D. Closser,  V. Cofer-Shabica,  
 S. Dasgupta,  Jia Deng,  M. de Wergifosse,  M. Diedenhofen,  Hainam Do,  
 S. Ehlert,  Po-Tung Fang,  S. Fatehi,  Qingguo Feng,  T. Friedhoff,  
 J. Gayvert,  Qinghui Ge,  G. Gidofalvi,  M. Goldey,  J. Gomes,  
 C. Gonzalez-Espinoza,  S. Gulania,  A. Gunina,  M. W. D. Hanson-Heine,  
 P. H. P. Harbach,  A. W. Hauser,  M. F. Herbst,  M. Hernandez Vera,  
 M. Hodecker,  Z. C. Holden,  S. Houck,  Xunkun Huang,  Kerwin Hui,  
 B. C. Huynh,  M. Ivanov,  Hyunjun Ji,  Hanjie Jiang,  B. Kaduk,  S. Kaehler,  
 K. Khistyaev,  Jaehoon Kim,  P. Klunzinger,  Z. Koczor-Benda,  
 Joong Hoon Koh,  D. Kosenkov,  L. Koulias,  T. Kowalczyk,  C. M. Krauter,  
 K. Kue,  A. Kunitsa,  T. Kus,  A. Landau,  K. V. Lawler,  D. Lefrancois,  
 S. Lehtola,  Rain Li,  Yi-Pei Li,  Jiashu Liang,  M. Liebenthal,  
 Hung-Hsuan Lin,  You-Sheng Lin,  Fenglai Liu,  Kuan-Yu Liu,  
 M. Loipersberger,  A. Luenser,  A. Manjanath,  P. Manohar,  E. Mansoor,  
 S. F. Manzer,  Shan-Ping Mao,  A. V. Marenich,  T. Markovich,  S. Mason,  
 S. A. Maurer,  P. F. McLaughlin,  M. F. S. J. Menger,  J.-M. Mewes,  
 S. A. Mewes,  P. Morgante,  J. W. Mullinax,  K. J. Oosterbaan,  G. Paran,  
 Alexander C. Paul,  Suranjan K. Paul,  F. Pavosevic,  Zheng Pei,  S. Prager,  
 E. I. Proynov,  E. Ramos,  B. Rana,  A. E. Rask,  A. Rettig,  R. M. Richard,  
 F. Rob,  E. Rossomme,  T. Scheele,  M. Scheurer,  M. Schneider,  
 N. Sergueev,  S. M. Sharada,  W. Skomorowski,  D. W. Small,  C. J. Stein,  
 Yu-Chuan Su,  E. J. Sundstrom,  Zhen Tao,  J. Thirman,  T. Tsuchimochi,  
 N. M. Tubman,  S. P. Veccham,  O. Vydrov,  J. Wenzel,  J. Witte,  A. Yamada,  
 Kun Yao,  S. Yeganeh,  S. R. Yost,  A. Zech,  Igor Ying Zhang,  Xing Zhang,  
 Yu Zhang,  D. Zuev,  A. Aspuru-Guzik,  A. T. Bell,  N. A. Besley,  
 K. B. Bravaya,  B. R. Brooks,  D. Casanova,  Jeng-Da Chai,  S. Coriani,  
 C. J. Cramer,  A. E. DePrince, III,  R. A. DiStasio Jr.,  A. Dreuw,  
 B. D. Dunietz,  T. R. Furlani,  W. A. Goddard III,  S. Grimme,  
 S. Hammes-Schiffer,  T. Head-Gordon,  W. J. Hehre,  Chao-Ping Hsu,  
 T.-C. Jagau,  Yousung Jung,  A. Klamt,  Jing Kong,  D. S. Lambrecht,  
 WanZhen Liang,  N. J. Mayhall,  C. W. McCurdy,  J. B. Neaton,  T. Neudecker,  
 C. Ochsenfeld,  J. A. Parkhill,  R. Peverati,  V. A. Rassolov,  Yihan Shao,  
 L. V. Slipchenko,  R. P. Steele,  J. E. Subotnik,  A. J. W. Thom,  
 A. Tkatchenko,  D. G. Truhlar,  T. Van Voorhis,  T. A. Wesolowski,  
 K. B. Whaley,  H. L. Woodcock III,  P. M. Zimmerman,  S. Faraji,  
 P. M. W. Gill,  M. Head-Gordon,  J. M. Herbert,  A. I. Krylov

 Additional authors since Version 5.4.0: 
 Chandrima Chakravarty,  L. Cunha,  R. Kang,  Yongbin Kim,  S. Kotaru,  
 Shaozhi Li,  Xiangyuan Li,  F. Matz,  A. Molle,  V. Parravicini,  
 Haisheng Ren,  Hengyuan Shen,  Yingli Su,  Hung-Yi Tsai,  C. Utku,  
 Fang Wang,  Jeff Yang,  F. Zeller

 Contributors to earlier versions of Q-Chem not listed above: 
 R. D. Adamson,  B. Austin,  R. Baer,  J. Baker,  G. J. O. Beran,  
 K. Brandhorst,  S. T. Brown,  E. F. C. Byrd,  Arup K. Chakraborty,  
 G. K. L. Chan,  Chun-Min Chang,  Yunqing Chen,  C.-L. Cheng,  
 Siu Hung Chien,  D. M. Chipman,  D. L. Crittenden,  H. Dachsel,  
 R. J. Doerksen,  A. D. Dutoi,  R. G. Edgar,  J. Fosso-Tande,  
 L. Fusti-Molnar,  D. Ghosh,  A. Ghysels,  A. Golubeva-Zadorozhnaya,  
 J. Gonthier,  M. S. Gordon,  S. R. Gwaltney,  G. Hawkins,  J. E. Herr,  
 A. Heyden,  S. Hirata,  E. G. Hohenstein,  G. Kedziora,  F. J. Keil,  
 C. Kelley,  Jihan Kim,  R. A. King,  R. Z. Khaliullin,  P. P. Korambath,  
 W. Kurlancheek,  A. Laurent,  A. M. Lee,  M. S. Lee,  S. V. Levchenko,  
 Ching Yeh Lin,  D. Liotard,  E. Livshits,  R. C. Lochan,  I. Lotan,  
 L. A. Martinez-Martinez,  P. E. Maslen,  N. Nair,  D. P. O'Neill,  
 D. Neuhauser,  E. Neuscamman,  C. M. Oana,  R. Olivares-Amaya,  R. Olson,  
 T. M. Perrine,  B. Peters,  P. A. Pieniazek,  A. Prociuk,  Y. M. Rhee,  
 J. Ritchie,  M. A. Rohrdanz,  E. Rosta,  N. J. Russ,  H. F. Schaefer III,  
 M. W. Schmidt,  N. E. Schultz,  S. Sharma,  N. Shenvi,  C. D. Sherrill,  
 A. C. Simmonett,  A. Sodt,  T. Stein,  D. Stuck,  K. S. Thanthiriwatte,  
 V. Vanovschi,  L. Vogt,  Tao Wang,  A. Warshel,  M. A. Watson,  
 C. F. Williams,  Q. Wu,  X. Xu,  Jun Yang,  W. Zhang,  Yan Zhao

   Please cite Q-Chem as follows:
  "Software for the frontiers of quantum chemistry:
   An overview of developments in the Q-Chem 5 package"
   J. Chem. Phys. 155, 084801 (2021)
   https://doi.org/10.1063/5.0055522 (open access)

 Q-Chem 5.4.2 for Intel X86 EM64T Linux

 Parts of Q-Chem use Armadillo 9.900.5 (Nocturnal Misbehaviour).
 http://arma.sourceforge.net/

 Q-Chem begins on Tue Jan 16 14:18:24 2024  

 Host: 
0

     Scratch files written to /scratch/qchem1021273//
 Dec1321 |scratch|qcdevops|jenkins|workspace|build_RNUM 5684   
 Processing $rem in /home/kchung25/qchem/5.4.0/config/preferences:
 Processing $rem in /home/kchung25/.qchemrc:

 Q-Chem warning in module libgen/rem_setup.C, line 3079:

 Neither GIA nor STOLL is specified by user. Use STOLL as the default


 Checking the input file for inconsistencies... 	...done.

--------------------------------------------------------------
User input:
--------------------------------------------------------------
$molecule
-1 1
--
-1 1
F      0.000000     0.000000     0.000000
--
0 1
O      0.705041     0.085824     2.845836
H      0.718042     0.221437     1.918408
H      1.585010     0.151425     3.189331
O      1.846277     0.095164    -2.146633
H      2.732713    -0.105605    -1.756703
H      1.254731     0.091480    -1.406651
O     -2.274277     0.593945    -1.273101
H     -2.701262    -0.233434    -0.967959
H     -1.360007     0.511388    -0.932384
O      1.896841    -1.872735     0.495161
H      1.093557    -1.387163     0.388915
H      2.667595    -1.391507     0.177125
O      1.052918     2.610822     1.020224
H      0.691159     1.833771     0.662648
H      1.468412     2.477073     1.892293
$end

$rem
JOBTYPE          eda
EDA2             1
METHOD           wB97M-V
BASIS            def2-TZVPPD
SYMMETRY         false
MEM_TOTAL        50000
MEM_STATIC       10000
THRESH           14
SCF_CONVERGENCE  8
XC_GRID          000099000590
NL_GRID          1
EDA_CLS_DISP     true
FD_MAT_VEC_PROD  FALSE
$end
--------------------------------------------------------------
 ----------------------------------------------------------------
             Standard Nuclear Orientation (Angstroms)
    I     Atom           X                Y                Z
 ----------------------------------------------------------------
    1      F      -0.4541355368    -0.1316666158    -0.4463311372
    2      O       2.3050241122    -1.0286422859    -0.8772647612
    3      H       1.5303476181    -0.6846543411    -0.4769758278
    4      H       3.0701089288    -0.6670948315    -0.4523336977
    5      O      -1.2425015529     1.9538783194     1.3014702051
    6      H      -0.4215520839     2.4651724805     1.5082131097
    7      H      -0.9476541576     1.2452199141     0.7461487842
    8      O      -2.7922368074    -1.3691403943    -0.8308227337
    9      H      -2.7288527889    -1.2606739668    -1.8025229655
   10      H      -2.0031830397    -0.8918456002    -0.5016158134
   11      O       1.0924270001     2.0194228483    -1.0219047749
   12      H       0.5395324937     1.2539976887    -1.0495734256
   13      H       1.2239190808     2.3515747180    -0.1279394613
   14      O       0.8417317913    -1.5601614217     1.8440870120
   15      H       0.3845173618    -1.1412454815     1.1527095268
   16      H       1.8044800713    -1.6083075638     1.6963504286
 ----------------------------------------------------------------
 Molecular Point Group                 C1    NOp =  1
 Largest Abelian Subgroup              C1    NOp =  1
 Nuclear Repulsion Energy =         265.86989835 hartrees
 There are       30 alpha and       30 beta electrons
 Requested basis set is def2-TZVPPD
 There are 154 shells and 410 basis functions

 Q-Chem warning in module libmdc/get_mega.C, line 171:

 Allowed MEM_STATIC has been capped at MEM_STATIC=8191.
 Reduce the value of MEM_STATIC to silence this warning.


 Total QAlloc Memory Limit  50000 MB
 Mega-Array Size      8007 MB
 MEM_STATIC part      8191 MB
 A cutoff of  1.0D-14 yielded  10561 shell pairs
 There are     73835 function pairs (     90380 Cartesian)
 Smallest overlap matrix eigenvalue = 7.45E-05

 Scale SEOQF with 1.000000e-01/1.000000e-01/1.000000e-01

 Standard Electronic Orientation quadrupole field applied
 Nucleus-field energy     =     0.0000000070 hartrees

 -----------------------------------------------------------------------
  General SCF calculation program by
  Eric Jon Sundstrom, Paul Horn, Yuezhi Mao, Dmitri Zuev, Alec White,
  David Stuck, Shaama M.S., Shane Yost, Joonho Lee, David Small,
  Daniel Levine, Susi Lehtola, Hugh Burton, Evgeny Epifanovsky,
  Bang C. Huynh
 -----------------------------------------------------------------------
================================================================
                 ALMO-EDA with the EDA2 driver                  
================================================================
 The second-generation ALMO-EDA (for DFT):                      
 P. R. Horn, Y. Mao and M. Head-Gordon, PCCP, 18, 23067 (2016)  
 Y. Mao et al. Annu. Rev. Phys. Chem. 72, 641 (2021)            
 Decomposition of the frozen energy:                            
 P. R. Horn, Y. Mao and M. Head-Gordon, JCP, 144, 114107 (2016) 
 FERF model for polarization:                                   
 P. R. Horn and M. Head-Gordon, JCP, 143, 114111 (2015)         
================================================================
 Using eda2 option set 1
 Option set summary: Frozen orbital wavefunction, initial wavefunction decomposition, and nDQ polarization.
--------------------------------
Printing EDA Options
--------------------------------
eda_child_super_basis      0
fragmo_guess_mode          0
child_mp                   1
child_mp_orders            232
cls_elec                   1
cls_disp                   1
scfmi_mode                 1
scfmi_occs                 0
scfmi_virts                0
frz_relax                  0
frz_relax_method           0
dc_pen_start               0
dc_pen_conv                0
dc_pen_increment           0
dc_pen_steps               0
dc_pen_thresh_factor       0
dc_pen_pre_newton_thresh   0
frz_ortho_decomp           1
frz_ortho_decomp_conv      6
plot_mo_ortho_frz          0
frgm_method                2
scfmi_freeze_ss            0
separate_rehyb             0
plot_diff_den              0
eda_nocv                   0
eda_vct_relax              1
disp_free_x                0
disp_free_c                0
eda_bsse                   0
eda_pct_a                  0
eda_covp                   0
--------------------------------
Attempting to make child job directory: /scratch/qchem1021273//Frg1/
Attempting to make child job directory: /scratch/qchem1021273//Frg2/
Creating input file /scratch/qchem1021273/Frg1.input
using default PutDataFrgm: nothing
calling putenv with: QCSCRATCH=/scratch/qchem1021273/ 
Spawning Job For Fragment 0
Done Job For Fragment 0
calling putenv with: QCSCRATCH=/scratch 
calling putenv with: QCTHREADS=6 
Creating input file /scratch/qchem1021273/Frg2.input
using default PutDataFrgm: nothing
calling putenv with: QCSCRATCH=/scratch/qchem1021273/ 
Spawning Job For Fragment 1
Done Job For Fragment 1
calling putenv with: QCSCRATCH=/scratch 
calling putenv with: QCTHREADS=6 
Doing General SCFMI
 Exchange:     0.1500 Hartree-Fock + 1.0000 wB97M-V + LR-HF
 Correlation:  1.0000 wB97M-V
 Using Euler-Maclaurin-Lebedev (99,590) quadrature formula
 Nonlocal Correlation:  VV10 with C = 0.0100 and b = 6.00 and scale = 1.00000
 Grid used for NLC:  SG-1 standard quadrature
performing fock build before subrot guess so that all methods have access
Printing subrot_rss_gen Method Specification:
Occupied Subspace Method is 0
Virtual Subspace Method is 0
Energy of the unrelaxed supersystem initial determinant -482.107714030693
write pseudocanon occs and virts to disk
write pseudocanon orbital energies to disk
Tolerance of ortho_decomp_scf: 1.00e-06
GDM subspace size: 20
Beginning the Orthogonal Decomposition of the Initial Supersystem Wavefunction
    1    -481.7345850961      2.92e-01     ortho_decomp Preconditoned Steepest Descent
    2    -481.7802664236      7.15e-03     ortho_decomp BFGS Step
    3    -481.7804133264      4.68e-04     ortho_decomp BFGS Step
    4    -481.7804134450      1.36e-05     ortho_decomp BFGS Step
    5    -481.7804134452      4.13e-07     ortho_decomp 00000 Convergence criterion met
 Hartree-Fock
 Hartree-Fock
 Hartree-Fock
 Exchange:     0.1500 Hartree-Fock + 1.0000 wB97M-V + LR-HF
 Correlation:  1.0000 wB97M-V
 Using Euler-Maclaurin-Lebedev (99,590) quadrature formula
 Nonlocal Correlation:  VV10 with C = 0.0100 and b = 6.00 and scale = 1.00000
 Grid used for NLC:  SG-1 standard quadrature
 Long-range K will be added via erf
 Coulomb attenuation parameter = 0.3 bohr**(-1)
 Nonlocal correlation = 2.472046054624e-01
Doing General SCFMI
 Exchange:     0.1500 Hartree-Fock + 1.0000 wB97M-V + LR-HF
 Correlation:  1.0000 wB97M-V
 Using Euler-Maclaurin-Lebedev (99,590) quadrature formula
 Nonlocal Correlation:  VV10 with C = 0.0100 and b = 6.00 and scale = 1.00000
 Grid used for NLC:  SG-1 standard quadrature
performing fock build at end of subrot_r(subrot) constructor so that all methods have access
<S^2> of initial wavefunction before polarization iterations 0.0000000000
Beginning iterations for the determination of the polarized wavefunction
Energy prior to optimization (guess energy) = -482.107714030693
Begin Timing: Total SCF Calculation
begin iterations for algorithm: DIIS         
the SCF tolerance is set to 1.00e-08
    1    -482.1077140307      9.08e-04     00000 
    2    -482.1403097964      5.46e-04     00000 
    3    -482.1465195706      2.50e-04     00000 
    4    -482.1479124112      5.02e-05     00000 
    5    -482.1481248584      2.09e-05     00000 
    6    -482.1481423316      1.14e-05     00000 
    7    -482.1481456320      1.66e-06     00000 
    8    -482.1481458287      5.32e-07     00000 
    9    -482.1481458395      3.09e-07     00000 
   10    -482.1481458412      1.33e-07     00000 
   11    -482.1481458414      4.51e-08     00000 
   12    -482.1481458415      1.19e-08     00000 
   13    -482.1481458415      5.30e-09     00000 Convergence criterion met
write pseudocanon occs and virts to disk
write pseudocanon orbital energies to disk
Timing for Total SCF: 211.00s (wall), 1262.10s (cpu)
<S^2> of polarized wavefunction after polarization iterations 0.0000000000
relaxing scfmi constraint to allow all rotations in the entire AO span
Doing General SCFMI
 Exchange:     0.1500 Hartree-Fock + 1.0000 wB97M-V + LR-HF
 Correlation:  1.0000 wB97M-V
 Using Euler-Maclaurin-Lebedev (99,590) quadrature formula
 Nonlocal Correlation:  VV10 with C = 0.0100 and b = 6.00 and scale = 1.00000
 Grid used for NLC:  SG-1 standard quadrature
performing fock build at end of subrot_r(subrot) constructor so that all methods have access
<S^2> of polarized wavefunction before ct-allowed iterations 0.0000000000
Beginning iterations for the determination of the CT-Allowed wavefunction
Energy prior to optimization (guess energy) = -482.148145841475
Begin Timing: Total SCF Calculation
begin iterations for algorithm: DIIS         
the SCF tolerance is set to 1.00e-08
    1    -482.1481458415      4.09e-04     00000 
    2    -482.1643605347      1.04e-04     00000 
    3    -482.1646588368      1.12e-04     00000 
    4    -482.1652343833      6.65e-06     00000 
    5    -482.1652404226      2.26e-06     00000 
    6    -482.1652407643      8.30e-07     00000 
    7    -482.1652408326      1.11e-07     00000 
    8    -482.1652408347      3.48e-08     00000 
    9    -482.1652408349      2.14e-08     00000 
   10    -482.1652408349      3.23e-09     00000 Convergence criterion met
write pseudocanon occs and virts to disk
write pseudocanon orbital energies to disk
Timing for Total SCF: 156.00s (wall), 933.39s (cpu)
<S^2> of ct_allowed wavefunction after ct-allowed iterations 0.0000000000

================================
        Results of EDA2         
================================
Basic EDA Quantities
--------------------
Fragment Energies (Ha):
1  -99.8700285039
2 -382.1596966435
--------------------
  E_prp (kJ/mol) = -0.0000
  E_frz (kJ/mol) = -204.7622
  E_pol (kJ/mol) = -106.1550
  E_vct (kJ/mol) = -44.8834
  E_int (kJ/mol) = -355.8007
--------------------


Decomposition of frozen interaction energy
--------------------
  --------------------
  Orthogonal Frozen Decomposition:
  --------------------
     E_elec   (ELEC)   (kJ/mol) = -692.0670
     E_pauli  (PAULI)  (kJ/mol) = 533.6237
     E_disp   (DISP)   (kJ/mol) = -46.3190
  --------------------
  Classical Frozen Decomposition:
  --------------------
     E_cls_elec  (CLS ELEC)  (kJ/mol) = -401.4737
     E_mod_pauli (MOD PAULI) (kJ/mol) = 224.1020 (FRZ - CLS ELEC - CLS DISP)
     E_cls_disp  (CLS DISP)  (kJ/mol) = -27.3905
  --------------------
--------------------

Simplified EDA Summary (kJ/mol)
--------------------
 PREPARATION      -0.0000
 FROZEN           -204.7622 (ELEC + PAULI + DISP)
[ELEC + PAULI = -177.3718, DISP = -27.3905]
 POLARIZATION    -106.1550
 CHARGE TRANSFER -44.8834
 TOTAL           -355.8007     (PRP + FRZ + POL + CT)
--------------------
 
 --------------------------------------------------------------
 
                    Orbital Energies (a.u.)
 --------------------------------------------------------------
 
 Alpha MOs
 -- Occupied --
-24.6198 -19.1914 -19.1860 -19.1821 -19.1766 -19.1600  -1.0171  -1.0059
 -0.9945  -0.9849  -0.9830  -0.9567  -0.5214  -0.5135  -0.5060  -0.4847
 -0.4580  -0.3677  -0.3630  -0.3454  -0.3417  -0.3345  -0.2946  -0.2832
 -0.2802  -0.2679  -0.2659  -0.2640  -0.2568  -0.2495
 -- Virtual --
  0.1322   0.1461   0.1636   0.1674   0.1786   0.1899   0.1965   0.1992
  0.2122   0.2225   0.2256   0.2293   0.2330   0.2434   0.2477   0.2712
  0.2739   0.2823   0.2864   0.3002   0.3065   0.3258   0.3404   0.3419
  0.3467   0.3604   0.3723   0.3775   0.3874   0.3912   0.3962   0.4095
  0.4127   0.4265   0.4314   0.4377   0.4460   0.4507   0.4534   0.4609
  0.4676   0.4684   0.4695   0.4871   0.4894   0.5015   0.5128   0.5166
  0.5341   0.5460   0.5473   0.5539   0.5591   0.5688   0.5796   0.5914
  0.5942   0.5979   0.6115   0.6148   0.6207   0.6282   0.6348   0.6454
  0.6496   0.6557   0.6657   0.6786   0.6821   0.6889   0.7027   0.7107
  0.7248   0.7333   0.7421   0.7473   0.7590   0.7694   0.7721   0.7791
  0.7919   0.8107   0.8188   0.8263   0.8349   0.8429   0.8605   0.8773
  0.8846   0.9010   0.9090   0.9146   0.9347   0.9458   0.9521   0.9630
  0.9770   0.9989   1.0020   1.0045   1.0225   1.0315   1.0419   1.0582
  1.0765   1.0888   1.1004   1.1111   1.1287   1.1326   1.1403   1.1536
  1.1576   1.1689   1.1823   1.1919   1.2077   1.2173   1.2244   1.2458
  1.2654   1.2707   1.2893   1.3020   1.3153   1.3292   1.3392   1.3405
  1.3423   1.3520   1.3606   1.3778   1.3826   1.4010   1.4035   1.4166
  1.4245   1.4478   1.4585   1.4778   1.4797   1.5144   1.5233   1.5309
  1.5399   1.5562   1.5667   1.5862   1.6038   1.6223   1.6364   1.6474
  1.6547   1.8446   1.9285   1.9673   2.0199   2.0913   2.1024   2.1139
  2.1304   2.1343   2.1700   2.1946   2.2006   2.2330   2.2489   2.2594
  2.2989   2.3095   2.3199   2.3410   2.3664   2.4049   2.4128   2.4185
  2.4326   2.4506   2.4629   2.4766   2.4883   2.5234   2.5427   2.7505
  2.7615   2.7912   2.8232   2.8357   2.8657   2.9097   2.9237   2.9502
  2.9664   2.9912   3.0191   3.0302   3.0347   3.0637   3.1908   3.2099
  3.2316   3.2594   3.3134   3.3830   3.3905   3.4115   3.4172   3.4353
  3.4451   3.4561   3.4693   3.4728   3.4926   3.5040   3.5135   3.5337
  3.5487   3.5565   3.5680   3.5793   3.5842   3.5935   3.6033   3.6071
  3.6196   3.6250   3.6390   3.6484   3.6632   3.6653   3.6702   3.7192
  3.7383   3.8486   3.8834   3.8885   3.9314   3.9409   4.0093   4.0267
  4.0524   4.0586   4.0699   4.0885   4.1106   4.1219   4.1352   4.1453
  4.1626   4.1707   4.1936   4.2014   4.2156   4.2341   4.2469   4.2535
  4.2599   4.2709   4.2743   4.2822   4.2939   4.3060   4.3131   4.3165
  4.3380   4.3647   4.3700   4.3954   4.4309   4.4326   4.4637   4.4736
  4.4841   4.5103   4.5204   4.5414   4.5595   4.5715   4.5748   4.5881
  4.6110   4.8336   4.9029   4.9403   4.9536   4.9582   4.9741   4.9844
  4.9904   5.0015   5.0304   5.0552   5.1551   5.1576   5.2113   5.2517
  5.2768   5.3822   5.3916   5.4300   5.4584   5.4831   5.8185   5.8326
  5.8608   5.8628   5.8777   6.2887   6.2997   6.4050   6.4185   6.4262
  6.6389   6.6578   6.7170   6.7561   6.7584   6.7738   6.7756   6.7812
  6.8046   6.8229   6.8238   6.8354   6.8379   6.8444   6.8607   6.8721
  6.8852   6.9000   6.9212   6.9596   6.9846   7.0119   7.0265   7.0460
  7.0477   7.0573   7.0625   7.0761   7.0822   7.1177   7.2329   7.2754
  7.2860   7.2982   7.3160   7.3316   7.3477   7.3795   7.4156   7.4418
  7.4866   7.5199   7.6460   7.6645   7.7114   7.7206   7.7328   7.7638
  7.7700   7.8094   7.8198   7.8369   8.0081   8.0483   8.1197   8.1867
  8.2165   8.9489   9.0270   9.0790   9.1357   9.2851  44.6219  44.6536
 44.7078  44.7458  44.7818  58.2169
 --------------------------------------------------------------
 
          Ground-State Mulliken Net Atomic Charges

     Atom                 Charge (a.u.)
  ----------------------------------------
      1 F                    -0.781468
      2 O                    -0.398036
      3 H                     0.211485
      4 H                     0.115993
      5 O                    -0.459837
      6 H                     0.171927
      7 H                     0.250141
      8 O                    -0.519388
      9 H                     0.147371
     10 H                     0.294377
     11 O                    -0.466855
     12 H                     0.296700
     13 H                     0.132107
     14 O                    -0.448331
     15 H                     0.289636
     16 H                     0.164177
  ----------------------------------------
  Sum of atomic charges =    -1.000000

 -----------------------------------------------------------------
                    Cartesian Multipole Moments
 -----------------------------------------------------------------
    Charge (ESU x 10^10)
                -4.8032
    Dipole Moment (Debye)
         X       4.7743      Y       1.7529      Z       0.9803
       Tot       5.1796
    Quadrupole Moments (Debye-Ang)
        XX     -56.3017     XY      -0.0575     YY     -57.8891
        XZ      10.5053     YZ       5.1613     ZZ     -52.1367
    Octopole Moments (Debye-Ang^2)
       XXX      63.5347    XXY       7.9542    XYY      14.4841
       YYY      10.2257    XXZ      11.3890    XYZ       9.2716
       YYZ       9.7279    XZZ     -11.8899    YZZ      -0.4175
       ZZZ     -22.7129
    Hexadecapole Moments (Debye-Ang^3)
      XXXX    -831.8168   XXXY     -57.3343   XXYY    -292.2283
      XYYY       8.0016   YYYY    -661.7947   XXXZ      42.0257
      XXYZ     -23.1945   XYYZ      35.4783   YYYZ      46.9466
      XXZZ    -185.0214   XYZZ      17.6779   YYZZ    -192.0644
      XZZZ      41.5821   YZZZ      33.2267   ZZZZ    -402.2463
 -----------------------------------------------------------------
 Total job time:  1677.40s(wall), 3965.85s(cpu) 
 Tue Jan 16 14:46:22 2024

        *************************************************************
        *                                                           *
        *  Thank you very much for using Q-Chem.  Have a nice day.  *
        *                                                           *
        *************************************************************


