
Running Job 1 of 1 122_Cl-Water_Cls_025_almo.in
qchem 122_Cl-Water_Cls_025_almo.in_1026265.0 /scratch/qchem1026265/ 6
/home/kchung25/qchem/5.4.0/exe/qcprog.exe_s 122_Cl-Water_Cls_025_almo.in_1026265.0 /scratch/qchem1026265/
                  Welcome to Q-Chem
     A Quantum Leap Into The Future Of Chemistry


 Q-Chem 5.4, Q-Chem, Inc., Pleasanton, CA (2021)

 E. Epifanovsky,  A. T. B. Gilbert,  Xintian Feng,  Joonho Lee,  Yuezhi Mao,  
 N. Mardirossian,  P. Pokhilko,  A. White,  M. Wormit,  M. P. Coons,  
 A. L. Dempwolff,  Zhengting Gan,  D. Hait,  P. R. Horn,  L. D. Jacobson,  
 I. Kaliman,  J. Kussmann,  A. W. Lange,  Ka Un Lao,  D. S. Levine,  Jie Liu,  
 S. C. McKenzie,  A. F. Morrison,  K. Nanda,  F. Plasser,  D. R. Rehn,  
 M. L. Vidal,  Zhi-Qiang You,  Ying Zhu,  B. Alam,  B. Albrecht,  
 A. Aldossary,  E. Alguire,  J. H. Andersen,  D. Barton,  K. Begam,  A. Behn,  
 Y. A. Bernard,  E. J. Berquist,  H. Burton,  A. Carreras,  K. Carter-Fenk,  
 Romit Chakraborty,  A. D. Chien,  K. D. Closser,  V. Cofer-Shabica,  
 S. Dasgupta,  Jia Deng,  M. de Wergifosse,  M. Diedenhofen,  Hainam Do,  
 S. Ehlert,  Po-Tung Fang,  S. Fatehi,  Qingguo Feng,  T. Friedhoff,  
 J. Gayvert,  Qinghui Ge,  G. Gidofalvi,  M. Goldey,  J. Gomes,  
 C. Gonzalez-Espinoza,  S. Gulania,  A. Gunina,  M. W. D. Hanson-Heine,  
 P. H. P. Harbach,  A. W. Hauser,  M. F. Herbst,  M. Hernandez Vera,  
 M. Hodecker,  Z. C. Holden,  S. Houck,  Xunkun Huang,  Kerwin Hui,  
 B. C. Huynh,  M. Ivanov,  Hyunjun Ji,  Hanjie Jiang,  B. Kaduk,  S. Kaehler,  
 K. Khistyaev,  Jaehoon Kim,  P. Klunzinger,  Z. Koczor-Benda,  
 Joong Hoon Koh,  D. Kosenkov,  L. Koulias,  T. Kowalczyk,  C. M. Krauter,  
 K. Kue,  A. Kunitsa,  T. Kus,  A. Landau,  K. V. Lawler,  D. Lefrancois,  
 S. Lehtola,  Rain Li,  Yi-Pei Li,  Jiashu Liang,  M. Liebenthal,  
 Hung-Hsuan Lin,  You-Sheng Lin,  Fenglai Liu,  Kuan-Yu Liu,  
 M. Loipersberger,  A. Luenser,  A. Manjanath,  P. Manohar,  E. Mansoor,  
 S. F. Manzer,  Shan-Ping Mao,  A. V. Marenich,  T. Markovich,  S. Mason,  
 S. A. Maurer,  P. F. McLaughlin,  M. F. S. J. Menger,  J.-M. Mewes,  
 S. A. Mewes,  P. Morgante,  J. W. Mullinax,  K. J. Oosterbaan,  G. Paran,  
 Alexander C. Paul,  Suranjan K. Paul,  F. Pavosevic,  Zheng Pei,  S. Prager,  
 E. I. Proynov,  E. Ramos,  B. Rana,  A. E. Rask,  A. Rettig,  R. M. Richard,  
 F. Rob,  E. Rossomme,  T. Scheele,  M. Scheurer,  M. Schneider,  
 N. Sergueev,  S. M. Sharada,  W. Skomorowski,  D. W. Small,  C. J. Stein,  
 Yu-Chuan Su,  E. J. Sundstrom,  Zhen Tao,  J. Thirman,  T. Tsuchimochi,  
 N. M. Tubman,  S. P. Veccham,  O. Vydrov,  J. Wenzel,  J. Witte,  A. Yamada,  
 Kun Yao,  S. Yeganeh,  S. R. Yost,  A. Zech,  Igor Ying Zhang,  Xing Zhang,  
 Yu Zhang,  D. Zuev,  A. Aspuru-Guzik,  A. T. Bell,  N. A. Besley,  
 K. B. Bravaya,  B. R. Brooks,  D. Casanova,  Jeng-Da Chai,  S. Coriani,  
 C. J. Cramer,  A. E. DePrince, III,  R. A. DiStasio Jr.,  A. Dreuw,  
 B. D. Dunietz,  T. R. Furlani,  W. A. Goddard III,  S. Grimme,  
 S. Hammes-Schiffer,  T. Head-Gordon,  W. J. Hehre,  Chao-Ping Hsu,  
 T.-C. Jagau,  Yousung Jung,  A. Klamt,  Jing Kong,  D. S. Lambrecht,  
 WanZhen Liang,  N. J. Mayhall,  C. W. McCurdy,  J. B. Neaton,  T. Neudecker,  
 C. Ochsenfeld,  J. A. Parkhill,  R. Peverati,  V. A. Rassolov,  Yihan Shao,  
 L. V. Slipchenko,  R. P. Steele,  J. E. Subotnik,  A. J. W. Thom,  
 A. Tkatchenko,  D. G. Truhlar,  T. Van Voorhis,  T. A. Wesolowski,  
 K. B. Whaley,  H. L. Woodcock III,  P. M. Zimmerman,  S. Faraji,  
 P. M. W. Gill,  M. Head-Gordon,  J. M. Herbert,  A. I. Krylov

 Additional authors since Version 5.4.0: 
 Chandrima Chakravarty,  L. Cunha,  R. Kang,  Yongbin Kim,  S. Kotaru,  
 Shaozhi Li,  Xiangyuan Li,  F. Matz,  A. Molle,  V. Parravicini,  
 Haisheng Ren,  Hengyuan Shen,  Yingli Su,  Hung-Yi Tsai,  C. Utku,  
 Fang Wang,  Jeff Yang,  F. Zeller

 Contributors to earlier versions of Q-Chem not listed above: 
 R. D. Adamson,  B. Austin,  R. Baer,  J. Baker,  G. J. O. Beran,  
 K. Brandhorst,  S. T. Brown,  E. F. C. Byrd,  Arup K. Chakraborty,  
 G. K. L. Chan,  Chun-Min Chang,  Yunqing Chen,  C.-L. Cheng,  
 Siu Hung Chien,  D. M. Chipman,  D. L. Crittenden,  H. Dachsel,  
 R. J. Doerksen,  A. D. Dutoi,  R. G. Edgar,  J. Fosso-Tande,  
 L. Fusti-Molnar,  D. Ghosh,  A. Ghysels,  A. Golubeva-Zadorozhnaya,  
 J. Gonthier,  M. S. Gordon,  S. R. Gwaltney,  G. Hawkins,  J. E. Herr,  
 A. Heyden,  S. Hirata,  E. G. Hohenstein,  G. Kedziora,  F. J. Keil,  
 C. Kelley,  Jihan Kim,  R. A. King,  R. Z. Khaliullin,  P. P. Korambath,  
 W. Kurlancheek,  A. Laurent,  A. M. Lee,  M. S. Lee,  S. V. Levchenko,  
 Ching Yeh Lin,  D. Liotard,  E. Livshits,  R. C. Lochan,  I. Lotan,  
 L. A. Martinez-Martinez,  P. E. Maslen,  N. Nair,  D. P. O'Neill,  
 D. Neuhauser,  E. Neuscamman,  C. M. Oana,  R. Olivares-Amaya,  R. Olson,  
 T. M. Perrine,  B. Peters,  P. A. Pieniazek,  A. Prociuk,  Y. M. Rhee,  
 J. Ritchie,  M. A. Rohrdanz,  E. Rosta,  N. J. Russ,  H. F. Schaefer III,  
 M. W. Schmidt,  N. E. Schultz,  S. Sharma,  N. Shenvi,  C. D. Sherrill,  
 A. C. Simmonett,  A. Sodt,  T. Stein,  D. Stuck,  K. S. Thanthiriwatte,  
 V. Vanovschi,  L. Vogt,  Tao Wang,  A. Warshel,  M. A. Watson,  
 C. F. Williams,  Q. Wu,  X. Xu,  Jun Yang,  W. Zhang,  Yan Zhao

   Please cite Q-Chem as follows:
  "Software for the frontiers of quantum chemistry:
   An overview of developments in the Q-Chem 5 package"
   J. Chem. Phys. 155, 084801 (2021)
   https://doi.org/10.1063/5.0055522 (open access)

 Q-Chem 5.4.2 for Intel X86 EM64T Linux

 Parts of Q-Chem use Armadillo 9.900.5 (Nocturnal Misbehaviour).
 http://arma.sourceforge.net/

 Q-Chem begins on Wed Jan 17 05:50:34 2024  

 Host: 
0

     Scratch files written to /scratch/qchem1026265//
 Dec1321 |scratch|qcdevops|jenkins|workspace|build_RNUM 5684   
 Processing $rem in /home/kchung25/qchem/5.4.0/config/preferences:
 Processing $rem in /home/kchung25/.qchemrc:

 Q-Chem warning in module libgen/rem_setup.C, line 3079:

 Neither GIA nor STOLL is specified by user. Use STOLL as the default


 Checking the input file for inconsistencies... 	...done.

--------------------------------------------------------------
User input:
--------------------------------------------------------------
$molecule
-1 1
--
-1 1
Cl     0.000000     0.000000     0.000000
--
0 1
O      3.272233    -0.339230     0.465325
H      2.339576    -0.145698     0.219241
H      3.571731     0.299655     1.166361
O      0.347877     2.802529     1.428865
H     -0.125574     3.335043     0.784056
H      0.515121     1.891836     1.111430
O      0.954444    -2.748896     1.108647
H      1.725578    -3.078670     0.722052
H      0.880431    -1.768924     0.971943
O     -0.111136    -0.616714     3.117009
H     -0.296790     0.160491     3.738680
H     -0.092426    -0.202776     2.240970
O     -2.552283     1.901749     0.193843
H     -1.976931     1.085456    -0.094548
H     -2.580680     1.825291     1.177092
$end

$rem
JOBTYPE          eda
EDA2             1
METHOD           wB97M-V
BASIS            def2-TZVPPD
SYMMETRY         false
MEM_TOTAL        50000
MEM_STATIC       10000
THRESH           14
SCF_CONVERGENCE  8
XC_GRID          000099000590
NL_GRID          1
EDA_CLS_DISP     true
FD_MAT_VEC_PROD  FALSE
$end
--------------------------------------------------------------
 ----------------------------------------------------------------
             Standard Nuclear Orientation (Angstroms)
    I     Atom           X                Y                Z
 ----------------------------------------------------------------
    1      Cl     -0.1284436839     0.1323733526     0.9741373455
    2      O       2.3552386921    -1.9461133717     0.2322964280
    3      H       1.5687064619    -1.4396921093     0.5368708942
    4      H       2.1317143019    -2.4396901550    -0.6018158993
    5      O      -1.8656678148    -1.6587850651    -0.9728208545
    6      H      -2.6182481824    -1.7895621432    -0.3897035402
    7      H      -1.1029009448    -1.2520852187    -0.5136049882
    8      O       2.6100596125     1.4485804848     0.2924561741
    9      H       3.3473255350     1.0212463429     0.6483757181
   10      H       1.8297822038     0.8368365015     0.2544102421
   11      O       0.4518496891     1.2449266980    -1.9471495506
   12      H      -0.2054005402     1.0000862080    -2.6772626394
   13      H       0.1031463462     0.7846914179    -1.1688639172
   14      O      -3.2353002003     0.7997202609     0.7086875949
   15      H      -2.2653084069     0.8522989615     1.0786672642
   16      H      -3.1347139782     1.0688911460    -0.2351663440
 ----------------------------------------------------------------
 Molecular Point Group                 C1    NOp =  1
 Largest Abelian Subgroup              C1    NOp =  1
 Nuclear Repulsion Energy =         317.82273755 hartrees
 There are       34 alpha and       34 beta electrons
 Requested basis set is def2-TZVPPD
 There are 157 shells and 421 basis functions

 Q-Chem warning in module libmdc/get_mega.C, line 171:

 Allowed MEM_STATIC has been capped at MEM_STATIC=8191.
 Reduce the value of MEM_STATIC to silence this warning.


 Total QAlloc Memory Limit  50000 MB
 Mega-Array Size      8007 MB
 MEM_STATIC part      8191 MB
 A cutoff of  1.0D-14 yielded  10740 shell pairs
 There are     75978 function pairs (     92869 Cartesian)
 Smallest overlap matrix eigenvalue = 1.71E-04

 Scale SEOQF with 1.000000e-01/1.000000e-01/1.000000e-01

 Standard Electronic Orientation quadrupole field applied
 Nucleus-field energy     =     0.0000000091 hartrees

 -----------------------------------------------------------------------
  General SCF calculation program by
  Eric Jon Sundstrom, Paul Horn, Yuezhi Mao, Dmitri Zuev, Alec White,
  David Stuck, Shaama M.S., Shane Yost, Joonho Lee, David Small,
  Daniel Levine, Susi Lehtola, Hugh Burton, Evgeny Epifanovsky,
  Bang C. Huynh
 -----------------------------------------------------------------------
================================================================
                 ALMO-EDA with the EDA2 driver                  
================================================================
 The second-generation ALMO-EDA (for DFT):                      
 P. R. Horn, Y. Mao and M. Head-Gordon, PCCP, 18, 23067 (2016)  
 Y. Mao et al. Annu. Rev. Phys. Chem. 72, 641 (2021)            
 Decomposition of the frozen energy:                            
 P. R. Horn, Y. Mao and M. Head-Gordon, JCP, 144, 114107 (2016) 
 FERF model for polarization:                                   
 P. R. Horn and M. Head-Gordon, JCP, 143, 114111 (2015)         
================================================================
 Using eda2 option set 1
 Option set summary: Frozen orbital wavefunction, initial wavefunction decomposition, and nDQ polarization.
--------------------------------
Printing EDA Options
--------------------------------
eda_child_super_basis      0
fragmo_guess_mode          0
child_mp                   1
child_mp_orders            232
cls_elec                   1
cls_disp                   1
scfmi_mode                 1
scfmi_occs                 0
scfmi_virts                0
frz_relax                  0
frz_relax_method           0
dc_pen_start               0
dc_pen_conv                0
dc_pen_increment           0
dc_pen_steps               0
dc_pen_thresh_factor       0
dc_pen_pre_newton_thresh   0
frz_ortho_decomp           1
frz_ortho_decomp_conv      6
plot_mo_ortho_frz          0
frgm_method                2
scfmi_freeze_ss            0
separate_rehyb             0
plot_diff_den              0
eda_nocv                   0
eda_vct_relax              1
disp_free_x                0
disp_free_c                0
eda_bsse                   0
eda_pct_a                  0
eda_covp                   0
--------------------------------
Attempting to make child job directory: /scratch/qchem1026265//Frg1/
Attempting to make child job directory: /scratch/qchem1026265//Frg2/
Creating input file /scratch/qchem1026265/Frg1.input
using default PutDataFrgm: nothing
calling putenv with: QCSCRATCH=/scratch/qchem1026265/ 
Spawning Job For Fragment 0
Done Job For Fragment 0
calling putenv with: QCSCRATCH=/scratch 
calling putenv with: QCTHREADS=6 
Creating input file /scratch/qchem1026265/Frg2.input
using default PutDataFrgm: nothing
calling putenv with: QCSCRATCH=/scratch/qchem1026265/ 
Spawning Job For Fragment 1
Done Job For Fragment 1
calling putenv with: QCSCRATCH=/scratch 
calling putenv with: QCTHREADS=6 
Doing General SCFMI
 Exchange:     0.1500 Hartree-Fock + 1.0000 wB97M-V + LR-HF
 Correlation:  1.0000 wB97M-V
 Using Euler-Maclaurin-Lebedev (99,590) quadrature formula
 Nonlocal Correlation:  VV10 with C = 0.0100 and b = 6.00 and scale = 1.00000
 Grid used for NLC:  SG-1 standard quadrature
performing fock build before subrot guess so that all methods have access
Printing subrot_rss_gen Method Specification:
Occupied Subspace Method is 0
Virtual Subspace Method is 0
Energy of the unrelaxed supersystem initial determinant -842.462626063963
write pseudocanon occs and virts to disk
write pseudocanon orbital energies to disk
Tolerance of ortho_decomp_scf: 1.00e-06
GDM subspace size: 20
Beginning the Orthogonal Decomposition of the Initial Supersystem Wavefunction
    1    -842.1398528798      3.32e-01     ortho_decomp Preconditoned Steepest Descent
    2    -842.2112394400      4.38e-03     ortho_decomp BFGS Step
    3    -842.2113193237      3.07e-04     ortho_decomp BFGS Step
    4    -842.2113196208      1.35e-05     ortho_decomp BFGS Step
    5    -842.2113196210      3.48e-07     ortho_decomp 00000 Convergence criterion met
 Hartree-Fock
 Hartree-Fock
 Hartree-Fock
 Exchange:     0.1500 Hartree-Fock + 1.0000 wB97M-V + LR-HF
 Correlation:  1.0000 wB97M-V
 Using Euler-Maclaurin-Lebedev (99,590) quadrature formula
 Nonlocal Correlation:  VV10 with C = 0.0100 and b = 6.00 and scale = 1.00000
 Grid used for NLC:  SG-1 standard quadrature
 Long-range K will be added via erf
 Coulomb attenuation parameter = 0.3 bohr**(-1)
 Nonlocal correlation = 2.786581491791e-01
Doing General SCFMI
 Exchange:     0.1500 Hartree-Fock + 1.0000 wB97M-V + LR-HF
 Correlation:  1.0000 wB97M-V
 Using Euler-Maclaurin-Lebedev (99,590) quadrature formula
 Nonlocal Correlation:  VV10 with C = 0.0100 and b = 6.00 and scale = 1.00000
 Grid used for NLC:  SG-1 standard quadrature
performing fock build at end of subrot_r(subrot) constructor so that all methods have access
<S^2> of initial wavefunction before polarization iterations 0.0000000000
Beginning iterations for the determination of the polarized wavefunction
Energy prior to optimization (guess energy) = -842.462626063963
Begin Timing: Total SCF Calculation
begin iterations for algorithm: DIIS         
the SCF tolerance is set to 1.00e-08
    1    -842.4626260640      6.52e-04     00000 
    2    -842.4857701852      2.58e-04     00000 
    3    -842.4881292773      9.20e-05     00000 
    4    -842.4886556070      3.90e-05     00000 
    5    -842.4887757627      2.23e-05     00000 
    6    -842.4888085933      9.91e-06     00000 
    7    -842.4888192786      4.74e-06     00000 
    8    -842.4888218770      2.34e-06     00000 
    9    -842.4888220935      1.78e-06     00000 
   10    -842.4888221570      1.00e-06     00000 
   11    -842.4888221705      5.09e-07     00000 
   12    -842.4888221822      2.23e-07     00000 
   13    -842.4888221855      8.79e-08     00000 
   14    -842.4888221861      4.55e-08     00000 
   15    -842.4888221863      2.87e-08     00000 
   16    -842.4888221863      1.20e-08     00000 
   17    -842.4888221864      4.49e-09     00000 Convergence criterion met
write pseudocanon occs and virts to disk
write pseudocanon orbital energies to disk
Timing for Total SCF: 285.00s (wall), 1707.81s (cpu)
<S^2> of polarized wavefunction after polarization iterations 0.0000000000
relaxing scfmi constraint to allow all rotations in the entire AO span
Doing General SCFMI
 Exchange:     0.1500 Hartree-Fock + 1.0000 wB97M-V + LR-HF
 Correlation:  1.0000 wB97M-V
 Using Euler-Maclaurin-Lebedev (99,590) quadrature formula
 Nonlocal Correlation:  VV10 with C = 0.0100 and b = 6.00 and scale = 1.00000
 Grid used for NLC:  SG-1 standard quadrature
performing fock build at end of subrot_r(subrot) constructor so that all methods have access
<S^2> of polarized wavefunction before ct-allowed iterations 0.0000000000
Beginning iterations for the determination of the CT-Allowed wavefunction
Energy prior to optimization (guess energy) = -842.488822186349
Begin Timing: Total SCF Calculation
begin iterations for algorithm: DIIS         
the SCF tolerance is set to 1.00e-08
    1    -842.4888221863      4.36e-04     00000 
    2    -842.5093780495      7.49e-05     00000 
    3    -842.5102340374      3.87e-05     00000 
    4    -842.5103333707      1.14e-05     00000 
    5    -842.5103443881      5.29e-06     00000 
    6    -842.5103462587      5.93e-07     00000 
    7    -842.5103463635      2.13e-07     00000 
    8    -842.5103463697      1.26e-07     00000 
    9    -842.5103463711      2.02e-08     00000 
   10    -842.5103463712      5.35e-09     00000 Convergence criterion met
write pseudocanon occs and virts to disk
write pseudocanon orbital energies to disk
Timing for Total SCF: 160.00s (wall), 955.72s (cpu)
<S^2> of ct_allowed wavefunction after ct-allowed iterations 0.0000000000

================================
        Results of EDA2         
================================
Basic EDA Quantities
--------------------
Fragment Energies (Ha):
1 -460.2597934914
2 -382.1610814591
--------------------
  E_prp (kJ/mol) = -0.0000
  E_frz (kJ/mol) = -109.6188
  E_pol (kJ/mol) = -68.7787
  E_vct (kJ/mol) = -56.5124
  E_int (kJ/mol) = -234.9100
--------------------


Decomposition of frozen interaction energy
--------------------
  --------------------
  Orthogonal Frozen Decomposition:
  --------------------
     E_elec   (ELEC)   (kJ/mol) = -492.7031
     E_pauli  (PAULI)  (kJ/mol) = 436.5028
     E_disp   (DISP)   (kJ/mol) = -53.4186
  --------------------
  Classical Frozen Decomposition:
  --------------------
     E_cls_elec  (CLS ELEC)  (kJ/mol) = -298.8765
     E_mod_pauli (MOD PAULI) (kJ/mol) = 240.4429 (FRZ - CLS ELEC - CLS DISP)
     E_cls_disp  (CLS DISP)  (kJ/mol) = -51.1852
  --------------------
--------------------

Simplified EDA Summary (kJ/mol)
--------------------
 PREPARATION      -0.0000
 FROZEN           -109.6188 (ELEC + PAULI + DISP)
[ELEC + PAULI = -58.4336, DISP = -51.1852]
 POLARIZATION    -68.7787
 CHARGE TRANSFER -56.5124
 TOTAL           -234.9100     (PRP + FRZ + POL + CT)
--------------------
 
 --------------------------------------------------------------
 
                    Orbital Energies (a.u.)
 --------------------------------------------------------------
 
 Alpha MOs
 -- Occupied --
******** -19.2007 -19.1964 -19.1915 -19.1880 -19.1648  -9.4230  -7.1226
 -7.1221  -7.1218  -0.9905  -0.9888  -0.9826  -0.9766  -0.9738  -0.7149
 -0.5077  -0.5030  -0.4938  -0.4755  -0.4745  -0.3635  -0.3589  -0.3571
 -0.3510  -0.3319  -0.2923  -0.2892  -0.2797  -0.2743  -0.2626  -0.2309
 -0.2269  -0.2207
 -- Virtual --
  0.1360   0.1449   0.1526   0.1580   0.1702   0.1769   0.1881   0.1947
  0.2040   0.2134   0.2163   0.2210   0.2299   0.2327   0.2445   0.2514
  0.2584   0.2639   0.2717   0.2778   0.2899   0.2937   0.3136   0.3172
  0.3191   0.3372   0.3386   0.3576   0.3602   0.3733   0.3755   0.3871
  0.3882   0.4022   0.4041   0.4064   0.4140   0.4217   0.4284   0.4376
  0.4435   0.4445   0.4458   0.4545   0.4615   0.4642   0.4761   0.4854
  0.4877   0.4910   0.4997   0.5064   0.5113   0.5228   0.5269   0.5408
  0.5509   0.5580   0.5620   0.5695   0.5753   0.5846   0.5947   0.6105
  0.6125   0.6191   0.6307   0.6341   0.6447   0.6529   0.6579   0.6702
  0.6741   0.6810   0.6988   0.7054   0.7128   0.7199   0.7237   0.7254
  0.7385   0.7449   0.7578   0.7662   0.7722   0.7768   0.7807   0.8012
  0.8096   0.8233   0.8301   0.8377   0.8438   0.8615   0.8718   0.8882
  0.8971   0.9117   0.9247   0.9428   0.9495   0.9653   0.9741   0.9792
  0.9842   0.9929   1.0004   1.0223   1.0311   1.0411   1.0463   1.0539
  1.0551   1.0673   1.0769   1.0882   1.0926   1.1106   1.1166   1.1315
  1.1406   1.1508   1.1539   1.1688   1.1808   1.1879   1.2277   1.2366
  1.2389   1.2612   1.2748   1.2917   1.3048   1.3183   1.3303   1.3399
  1.3467   1.3610   1.3686   1.3753   1.3880   1.4010   1.4029   1.4151
  1.4207   1.4291   1.4439   1.4640   1.4769   1.4937   1.5200   1.5299
  1.5391   1.5684   1.5779   1.5830   1.6041   1.6149   1.6407   1.6509
  1.6708   1.6887   1.9053   2.0656   2.0802   2.0991   2.1045   2.1126
  2.1251   2.1406   2.1497   2.1819   2.1910   2.1954   2.2257   2.2456
  2.2566   2.2709   2.3010   2.3089   2.3285   2.3383   2.3634   2.3806
  2.3902   2.3943   2.4106   2.4210   2.4275   2.4394   2.4606   2.4693
  2.4904   2.5069   2.5297   2.5474   2.6306   2.6777   2.6864   2.7039
  2.7912   2.8197   2.8422   2.8713   2.8954   2.9160   2.9379   2.9623
  2.9778   3.0164   3.0399   3.0834   3.0970   3.1432   3.1791   3.1987
  3.2383   3.2550   3.3476   3.3687   3.3854   3.3929   3.4018   3.4162
  3.4298   3.4453   3.4608   3.4729   3.4802   3.4827   3.5082   3.5178
  3.5376   3.5420   3.5468   3.5522   3.5627   3.5716   3.5755   3.5885
  3.5945   3.6028   3.6118   3.6249   3.6524   3.6580   3.6966   3.7259
  3.7486   3.7938   3.7995   3.8244   3.8864   3.8907   3.9134   3.9647
  3.9794   4.0363   4.0567   4.0695   4.0775   4.1119   4.1181   4.1503
  4.1593   4.1739   4.1865   4.1977   4.2140   4.2196   4.2322   4.2385
  4.2458   4.2673   4.2745   4.2988   4.3041   4.3188   4.3240   4.3312
  4.3399   4.3666   4.3892   4.4067   4.4168   4.4209   4.4323   4.4343
  4.4536   4.4771   4.4852   4.4949   4.5485   4.7980   4.8370   4.8429
  4.8532   4.8725   4.8923   4.9240   4.9319   4.9659   4.9791   5.0884
  5.1424   5.1582   5.2116   5.2497   5.2904   5.2977   5.3352   5.3748
  5.4326   5.7708   5.7714   5.7948   5.8156   5.8519   6.2096   6.2238
  6.2595   6.3136   6.3536   6.4759   6.5561   6.6197   6.6641   6.6751
  6.6832   6.6918   6.7083   6.7232   6.7536   6.7639   6.7968   6.8091
  6.8159   6.8375   6.8522   6.8757   6.8799   6.8938   6.9202   6.9224
  6.9640   6.9965   7.0024   7.0083   7.0124   7.0205   7.0303   7.0588
  7.0681   7.1614   7.2417   7.2651   7.3474   7.3626   7.5763   7.5837
  7.5931   7.6422   7.6452   7.6495   7.6747   7.7071   7.7445   7.8032
  7.8926   7.9916   8.0025   8.0702   8.1431   8.5311   8.5519   8.6145
  8.6356   8.7238  11.4226  11.4518  11.5397  26.4291  44.4955  44.5422
 44.5917  44.6523  44.7360
 --------------------------------------------------------------
 
          Ground-State Mulliken Net Atomic Charges

     Atom                 Charge (a.u.)
  ----------------------------------------
      1 Cl                   -0.753535
      2 O                    -0.487767
      3 H                     0.290872
      4 H                     0.177124
      5 O                    -0.482159
      6 H                     0.164077
      7 H                     0.265216
      8 O                    -0.437713
      9 H                     0.106910
     10 H                     0.248855
     11 O                    -0.458015
     12 H                     0.181521
     13 H                     0.243390
     14 O                    -0.531439
     15 H                     0.289856
     16 H                     0.182807
  ----------------------------------------
  Sum of atomic charges =    -1.000000

 -----------------------------------------------------------------
                    Cartesian Multipole Moments
 -----------------------------------------------------------------
    Charge (ESU x 10^10)
                -4.8032
    Dipole Moment (Debye)
         X      -0.9672      Y      -1.9752      Z      -1.9270
       Tot       2.9241
    Quadrupole Moments (Debye-Ang)
        XX     -73.4314     XY      -3.2053     YY     -64.0149
        XZ       4.5164     YZ       0.3318     ZZ     -56.4318
    Octopole Moments (Debye-Ang^2)
       XXX      27.6887    XXY     -10.5927    XYY     -16.2791
       YYY     -10.0760    XXZ     -15.2243    XYZ      25.0752
       YYZ      -2.2064    XZZ       1.1848    YZZ       0.2122
       ZZZ     -13.3082
    Hexadecapole Moments (Debye-Ang^3)
      XXXX   -1360.3822   XXXY      82.1696   XXYY    -342.9043
      XYYY     -22.4914   YYYY    -574.2879   XXXZ      93.1341
      XXYZ      -7.8840   XYYZ     -25.2317   YYYZ      15.3741
      XXZZ    -280.9501   XYZZ     -22.3448   YYZZ    -168.7830
      XZZZ      12.2333   YZZZ     -10.0276   ZZZZ    -349.8831
 -----------------------------------------------------------------
 Total job time:  1727.89s(wall), 4473.98s(cpu) 
 Wed Jan 17 06:19:22 2024

        *************************************************************
        *                                                           *
        *  Thank you very much for using Q-Chem.  Have a nice day.  *
        *                                                           *
        *************************************************************


