
Running Job 1 of 1 122_Cl-Water_Cls_091_almo.in
qchem 122_Cl-Water_Cls_091_almo.in_1044991.0 /scratch/qchem1044991/ 6
/home/kchung25/qchem/5.4.0/exe/qcprog.exe_s 122_Cl-Water_Cls_091_almo.in_1044991.0 /scratch/qchem1044991/
                  Welcome to Q-Chem
     A Quantum Leap Into The Future Of Chemistry


 Q-Chem 5.4, Q-Chem, Inc., Pleasanton, CA (2021)

 E. Epifanovsky,  A. T. B. Gilbert,  Xintian Feng,  Joonho Lee,  Yuezhi Mao,  
 N. Mardirossian,  P. Pokhilko,  A. White,  M. Wormit,  M. P. Coons,  
 A. L. Dempwolff,  Zhengting Gan,  D. Hait,  P. R. Horn,  L. D. Jacobson,  
 I. Kaliman,  J. Kussmann,  A. W. Lange,  Ka Un Lao,  D. S. Levine,  Jie Liu,  
 S. C. McKenzie,  A. F. Morrison,  K. Nanda,  F. Plasser,  D. R. Rehn,  
 M. L. Vidal,  Zhi-Qiang You,  Ying Zhu,  B. Alam,  B. Albrecht,  
 A. Aldossary,  E. Alguire,  J. H. Andersen,  D. Barton,  K. Begam,  A. Behn,  
 Y. A. Bernard,  E. J. Berquist,  H. Burton,  A. Carreras,  K. Carter-Fenk,  
 Romit Chakraborty,  A. D. Chien,  K. D. Closser,  V. Cofer-Shabica,  
 S. Dasgupta,  Jia Deng,  M. de Wergifosse,  M. Diedenhofen,  Hainam Do,  
 S. Ehlert,  Po-Tung Fang,  S. Fatehi,  Qingguo Feng,  T. Friedhoff,  
 J. Gayvert,  Qinghui Ge,  G. Gidofalvi,  M. Goldey,  J. Gomes,  
 C. Gonzalez-Espinoza,  S. Gulania,  A. Gunina,  M. W. D. Hanson-Heine,  
 P. H. P. Harbach,  A. W. Hauser,  M. F. Herbst,  M. Hernandez Vera,  
 M. Hodecker,  Z. C. Holden,  S. Houck,  Xunkun Huang,  Kerwin Hui,  
 B. C. Huynh,  M. Ivanov,  Hyunjun Ji,  Hanjie Jiang,  B. Kaduk,  S. Kaehler,  
 K. Khistyaev,  Jaehoon Kim,  P. Klunzinger,  Z. Koczor-Benda,  
 Joong Hoon Koh,  D. Kosenkov,  L. Koulias,  T. Kowalczyk,  C. M. Krauter,  
 K. Kue,  A. Kunitsa,  T. Kus,  A. Landau,  K. V. Lawler,  D. Lefrancois,  
 S. Lehtola,  Rain Li,  Yi-Pei Li,  Jiashu Liang,  M. Liebenthal,  
 Hung-Hsuan Lin,  You-Sheng Lin,  Fenglai Liu,  Kuan-Yu Liu,  
 M. Loipersberger,  A. Luenser,  A. Manjanath,  P. Manohar,  E. Mansoor,  
 S. F. Manzer,  Shan-Ping Mao,  A. V. Marenich,  T. Markovich,  S. Mason,  
 S. A. Maurer,  P. F. McLaughlin,  M. F. S. J. Menger,  J.-M. Mewes,  
 S. A. Mewes,  P. Morgante,  J. W. Mullinax,  K. J. Oosterbaan,  G. Paran,  
 Alexander C. Paul,  Suranjan K. Paul,  F. Pavosevic,  Zheng Pei,  S. Prager,  
 E. I. Proynov,  E. Ramos,  B. Rana,  A. E. Rask,  A. Rettig,  R. M. Richard,  
 F. Rob,  E. Rossomme,  T. Scheele,  M. Scheurer,  M. Schneider,  
 N. Sergueev,  S. M. Sharada,  W. Skomorowski,  D. W. Small,  C. J. Stein,  
 Yu-Chuan Su,  E. J. Sundstrom,  Zhen Tao,  J. Thirman,  T. Tsuchimochi,  
 N. M. Tubman,  S. P. Veccham,  O. Vydrov,  J. Wenzel,  J. Witte,  A. Yamada,  
 Kun Yao,  S. Yeganeh,  S. R. Yost,  A. Zech,  Igor Ying Zhang,  Xing Zhang,  
 Yu Zhang,  D. Zuev,  A. Aspuru-Guzik,  A. T. Bell,  N. A. Besley,  
 K. B. Bravaya,  B. R. Brooks,  D. Casanova,  Jeng-Da Chai,  S. Coriani,  
 C. J. Cramer,  A. E. DePrince, III,  R. A. DiStasio Jr.,  A. Dreuw,  
 B. D. Dunietz,  T. R. Furlani,  W. A. Goddard III,  S. Grimme,  
 S. Hammes-Schiffer,  T. Head-Gordon,  W. J. Hehre,  Chao-Ping Hsu,  
 T.-C. Jagau,  Yousung Jung,  A. Klamt,  Jing Kong,  D. S. Lambrecht,  
 WanZhen Liang,  N. J. Mayhall,  C. W. McCurdy,  J. B. Neaton,  T. Neudecker,  
 C. Ochsenfeld,  J. A. Parkhill,  R. Peverati,  V. A. Rassolov,  Yihan Shao,  
 L. V. Slipchenko,  R. P. Steele,  J. E. Subotnik,  A. J. W. Thom,  
 A. Tkatchenko,  D. G. Truhlar,  T. Van Voorhis,  T. A. Wesolowski,  
 K. B. Whaley,  H. L. Woodcock III,  P. M. Zimmerman,  S. Faraji,  
 P. M. W. Gill,  M. Head-Gordon,  J. M. Herbert,  A. I. Krylov

 Additional authors since Version 5.4.0: 
 Chandrima Chakravarty,  L. Cunha,  R. Kang,  Yongbin Kim,  S. Kotaru,  
 Shaozhi Li,  Xiangyuan Li,  F. Matz,  A. Molle,  V. Parravicini,  
 Haisheng Ren,  Hengyuan Shen,  Yingli Su,  Hung-Yi Tsai,  C. Utku,  
 Fang Wang,  Jeff Yang,  F. Zeller

 Contributors to earlier versions of Q-Chem not listed above: 
 R. D. Adamson,  B. Austin,  R. Baer,  J. Baker,  G. J. O. Beran,  
 K. Brandhorst,  S. T. Brown,  E. F. C. Byrd,  Arup K. Chakraborty,  
 G. K. L. Chan,  Chun-Min Chang,  Yunqing Chen,  C.-L. Cheng,  
 Siu Hung Chien,  D. M. Chipman,  D. L. Crittenden,  H. Dachsel,  
 R. J. Doerksen,  A. D. Dutoi,  R. G. Edgar,  J. Fosso-Tande,  
 L. Fusti-Molnar,  D. Ghosh,  A. Ghysels,  A. Golubeva-Zadorozhnaya,  
 J. Gonthier,  M. S. Gordon,  S. R. Gwaltney,  G. Hawkins,  J. E. Herr,  
 A. Heyden,  S. Hirata,  E. G. Hohenstein,  G. Kedziora,  F. J. Keil,  
 C. Kelley,  Jihan Kim,  R. A. King,  R. Z. Khaliullin,  P. P. Korambath,  
 W. Kurlancheek,  A. Laurent,  A. M. Lee,  M. S. Lee,  S. V. Levchenko,  
 Ching Yeh Lin,  D. Liotard,  E. Livshits,  R. C. Lochan,  I. Lotan,  
 L. A. Martinez-Martinez,  P. E. Maslen,  N. Nair,  D. P. O'Neill,  
 D. Neuhauser,  E. Neuscamman,  C. M. Oana,  R. Olivares-Amaya,  R. Olson,  
 T. M. Perrine,  B. Peters,  P. A. Pieniazek,  A. Prociuk,  Y. M. Rhee,  
 J. Ritchie,  M. A. Rohrdanz,  E. Rosta,  N. J. Russ,  H. F. Schaefer III,  
 M. W. Schmidt,  N. E. Schultz,  S. Sharma,  N. Shenvi,  C. D. Sherrill,  
 A. C. Simmonett,  A. Sodt,  T. Stein,  D. Stuck,  K. S. Thanthiriwatte,  
 V. Vanovschi,  L. Vogt,  Tao Wang,  A. Warshel,  M. A. Watson,  
 C. F. Williams,  Q. Wu,  X. Xu,  Jun Yang,  W. Zhang,  Yan Zhao

   Please cite Q-Chem as follows:
  "Software for the frontiers of quantum chemistry:
   An overview of developments in the Q-Chem 5 package"
   J. Chem. Phys. 155, 084801 (2021)
   https://doi.org/10.1063/5.0055522 (open access)

 Q-Chem 5.4.2 for Intel X86 EM64T Linux

 Parts of Q-Chem use Armadillo 9.900.5 (Nocturnal Misbehaviour).
 http://arma.sourceforge.net/

 Q-Chem begins on Thu Jan 18 11:46:14 2024  

 Host: 
0

     Scratch files written to /scratch/qchem1044991//
 Dec1321 |scratch|qcdevops|jenkins|workspace|build_RNUM 5684   
 Processing $rem in /home/kchung25/qchem/5.4.0/config/preferences:
 Processing $rem in /home/kchung25/.qchemrc:

 Q-Chem warning in module libgen/rem_setup.C, line 3079:

 Neither GIA nor STOLL is specified by user. Use STOLL as the default


 Checking the input file for inconsistencies... 	...done.

--------------------------------------------------------------
User input:
--------------------------------------------------------------
$molecule
-1 1
--
-1 1
Cl     0.000000     0.000000     0.000000
--
0 1
O     -1.229184    -2.993822     0.453137
H     -0.418614    -3.395812     0.092820
H     -1.013280    -2.074811     0.585463
O     -1.235222    -1.766810    -2.572586
H     -2.178163    -1.662201    -2.417220
H     -0.769873    -1.718371    -1.664414
O     -1.384432    -0.260144     2.883153
H     -0.766609    -0.589156     3.510778
H     -0.859119    -0.152996     2.083720
O      1.607896     0.813395    -2.710175
H      2.315273     1.449805    -2.414289
H      1.015105     0.595265    -1.995542
O      1.117807     2.673918     1.419992
H      1.158491     1.823418     1.031762
H      0.169419     2.693657     1.399060
O     -2.874762     0.414810    -1.653760
H     -2.035974     0.467676    -1.186949
H     -3.362591    -0.291211    -1.125177
$end

$rem
JOBTYPE          eda
EDA2             1
METHOD           wB97M-V
BASIS            def2-TZVPPD
SYMMETRY         false
MEM_TOTAL        50000
MEM_STATIC       10000
THRESH           14
SCF_CONVERGENCE  8
XC_GRID          000099000590
NL_GRID          1
EDA_CLS_DISP     true
FD_MAT_VEC_PROD  FALSE
$end
--------------------------------------------------------------
 ----------------------------------------------------------------
             Standard Nuclear Orientation (Angstroms)
    I     Atom           X                Y                Z
 ----------------------------------------------------------------
    1      Cl      0.4629544528    -0.1361904260     0.3286636967
    2      O      -1.5660744068     2.2542034718     1.2496715766
    3      H      -1.7471776930     1.7953073007     2.0893524263
    4      H      -0.8210081290     1.7954661707     0.8713301226
    5      O      -2.8652578217    -0.5326885564     0.1515140941
    6      H      -3.0598348384    -0.0122562475    -0.6330299536
    7      H      -2.0366250575    -0.1256797747     0.5889886692
    8      O       1.7273931488     2.7517883814    -0.2693925523
    9      H       2.1894799234     3.0660765216     0.4866273375
   10      H       1.4533673455     1.8650241921    -0.0142716100
   11      O      -0.2532022434    -3.2783163849     0.7827050478
   12      H       0.6179497826    -3.7198009122     0.9805281835
   13      H      -0.1320427809    -2.3658009941     0.5330688376
   14      O       3.5250150357    -0.9602609599    -0.2716695286
   15      H       2.7477657542    -0.8451714487     0.2366275593
   16      H       3.1555567306    -0.5232710579    -1.0285103056
   17      O      -1.5188161062    -0.1361364384    -2.3627729975
   18      H      -0.8431720654    -0.2325602026    -1.6856613225
   19      H      -1.7869455204     0.8291875857    -2.2527779096
 ----------------------------------------------------------------
 Molecular Point Group                 C1    NOp =  1
 Largest Abelian Subgroup              C1    NOp =  1
 Nuclear Repulsion Energy =         403.84725915 hartrees
 There are       39 alpha and       39 beta electrons
 Requested basis set is def2-TZVPPD
 There are 185 shells and 495 basis functions

 Q-Chem warning in module libmdc/get_mega.C, line 171:

 Allowed MEM_STATIC has been capped at MEM_STATIC=8191.
 Reduce the value of MEM_STATIC to silence this warning.


 Total QAlloc Memory Limit  50000 MB
 Mega-Array Size      8007 MB
 MEM_STATIC part      8191 MB
 A cutoff of  1.0D-14 yielded  14324 shell pairs
 There are     99608 function pairs (    121076 Cartesian)
 Smallest overlap matrix eigenvalue = 8.12E-05

 Scale SEOQF with 1.000000e-01/1.000000e-01/1.000000e-01

 Standard Electronic Orientation quadrupole field applied
 Nucleus-field energy     =     0.0000000181 hartrees

 -----------------------------------------------------------------------
  General SCF calculation program by
  Eric Jon Sundstrom, Paul Horn, Yuezhi Mao, Dmitri Zuev, Alec White,
  David Stuck, Shaama M.S., Shane Yost, Joonho Lee, David Small,
  Daniel Levine, Susi Lehtola, Hugh Burton, Evgeny Epifanovsky,
  Bang C. Huynh
 -----------------------------------------------------------------------
================================================================
                 ALMO-EDA with the EDA2 driver                  
================================================================
 The second-generation ALMO-EDA (for DFT):                      
 P. R. Horn, Y. Mao and M. Head-Gordon, PCCP, 18, 23067 (2016)  
 Y. Mao et al. Annu. Rev. Phys. Chem. 72, 641 (2021)            
 Decomposition of the frozen energy:                            
 P. R. Horn, Y. Mao and M. Head-Gordon, JCP, 144, 114107 (2016) 
 FERF model for polarization:                                   
 P. R. Horn and M. Head-Gordon, JCP, 143, 114111 (2015)         
================================================================
 Using eda2 option set 1
 Option set summary: Frozen orbital wavefunction, initial wavefunction decomposition, and nDQ polarization.
--------------------------------
Printing EDA Options
--------------------------------
eda_child_super_basis      0
fragmo_guess_mode          0
child_mp                   1
child_mp_orders            232
cls_elec                   1
cls_disp                   1
scfmi_mode                 1
scfmi_occs                 0
scfmi_virts                0
frz_relax                  0
frz_relax_method           0
dc_pen_start               0
dc_pen_conv                0
dc_pen_increment           0
dc_pen_steps               0
dc_pen_thresh_factor       0
dc_pen_pre_newton_thresh   0
frz_ortho_decomp           1
frz_ortho_decomp_conv      6
plot_mo_ortho_frz          0
frgm_method                2
scfmi_freeze_ss            0
separate_rehyb             0
plot_diff_den              0
eda_nocv                   0
eda_vct_relax              1
disp_free_x                0
disp_free_c                0
eda_bsse                   0
eda_pct_a                  0
eda_covp                   0
--------------------------------
Attempting to make child job directory: /scratch/qchem1044991//Frg1/
Attempting to make child job directory: /scratch/qchem1044991//Frg2/
Creating input file /scratch/qchem1044991/Frg1.input
using default PutDataFrgm: nothing
calling putenv with: QCSCRATCH=/scratch/qchem1044991/ 
Spawning Job For Fragment 0
Done Job For Fragment 0
calling putenv with: QCSCRATCH=/scratch 
calling putenv with: QCTHREADS=6 
Creating input file /scratch/qchem1044991/Frg2.input
using default PutDataFrgm: nothing
calling putenv with: QCSCRATCH=/scratch/qchem1044991/ 
Spawning Job For Fragment 1
Done Job For Fragment 1
calling putenv with: QCSCRATCH=/scratch 
calling putenv with: QCTHREADS=6 
Doing General SCFMI
 Exchange:     0.1500 Hartree-Fock + 1.0000 wB97M-V + LR-HF
 Correlation:  1.0000 wB97M-V
 Using Euler-Maclaurin-Lebedev (99,590) quadrature formula
 Nonlocal Correlation:  VV10 with C = 0.0100 and b = 6.00 and scale = 1.00000
 Grid used for NLC:  SG-1 standard quadrature
performing fock build before subrot guess so that all methods have access
Printing subrot_rss_gen Method Specification:
Occupied Subspace Method is 0
Virtual Subspace Method is 0
Energy of the unrelaxed supersystem initial determinant -918.922020551310
write pseudocanon occs and virts to disk
write pseudocanon orbital energies to disk
Tolerance of ortho_decomp_scf: 1.00e-06
GDM subspace size: 20
Beginning the Orthogonal Decomposition of the Initial Supersystem Wavefunction
    1    -918.5872276396      2.89e-01     ortho_decomp Preconditoned Steepest Descent
    2    -918.6540647346      3.85e-03     ortho_decomp BFGS Step
    3    -918.6541418628      2.70e-04     ortho_decomp BFGS Step
    4    -918.6541421325      1.16e-05     ortho_decomp BFGS Step
    5    -918.6541421328      2.65e-07     ortho_decomp 00000 Convergence criterion met
 Hartree-Fock
 Hartree-Fock
 Hartree-Fock
 Exchange:     0.1500 Hartree-Fock + 1.0000 wB97M-V + LR-HF
 Correlation:  1.0000 wB97M-V
 Using Euler-Maclaurin-Lebedev (99,590) quadrature formula
 Nonlocal Correlation:  VV10 with C = 0.0100 and b = 6.00 and scale = 1.00000
 Grid used for NLC:  SG-1 standard quadrature
 Long-range K will be added via erf
 Coulomb attenuation parameter = 0.3 bohr**(-1)
 Nonlocal correlation = 3.199008454682e-01
Doing General SCFMI
 Exchange:     0.1500 Hartree-Fock + 1.0000 wB97M-V + LR-HF
 Correlation:  1.0000 wB97M-V
 Using Euler-Maclaurin-Lebedev (99,590) quadrature formula
 Nonlocal Correlation:  VV10 with C = 0.0100 and b = 6.00 and scale = 1.00000
 Grid used for NLC:  SG-1 standard quadrature
performing fock build at end of subrot_r(subrot) constructor so that all methods have access
<S^2> of initial wavefunction before polarization iterations 0.0000000000
Beginning iterations for the determination of the polarized wavefunction
Energy prior to optimization (guess energy) = -918.922020551310
Begin Timing: Total SCF Calculation
begin iterations for algorithm: DIIS         
the SCF tolerance is set to 1.00e-08
    1    -918.9220205513      5.29e-04     00000 
    2    -918.9418301417      2.03e-04     00000 
    3    -918.9439835891      7.13e-05     00000 
    4    -918.9444451218      2.99e-05     00000 
    5    -918.9445602285      1.50e-05     00000 
    6    -918.9445848055      8.03e-06     00000 
    7    -918.9445911959      3.08e-06     00000 
    8    -918.9445925204      1.39e-06     00000 
    9    -918.9445926016      1.02e-06     00000 
   10    -918.9445926229      5.71e-07     00000 
   11    -918.9445926306      2.42e-07     00000 
   12    -918.9445926340      1.28e-07     00000 
   13    -918.9445926353      6.70e-08     00000 
   14    -918.9445926356      2.48e-08     00000 
   15    -918.9445926357      1.19e-08     00000 
   16    -918.9445926357      4.76e-09     00000 Convergence criterion met
write pseudocanon occs and virts to disk
write pseudocanon orbital energies to disk
Timing for Total SCF: 406.00s (wall), 2440.16s (cpu)
<S^2> of polarized wavefunction after polarization iterations 0.0000000000
relaxing scfmi constraint to allow all rotations in the entire AO span
Doing General SCFMI
 Exchange:     0.1500 Hartree-Fock + 1.0000 wB97M-V + LR-HF
 Correlation:  1.0000 wB97M-V
 Using Euler-Maclaurin-Lebedev (99,590) quadrature formula
 Nonlocal Correlation:  VV10 with C = 0.0100 and b = 6.00 and scale = 1.00000
 Grid used for NLC:  SG-1 standard quadrature
performing fock build at end of subrot_r(subrot) constructor so that all methods have access
<S^2> of polarized wavefunction before ct-allowed iterations 0.0000000000
Beginning iterations for the determination of the CT-Allowed wavefunction
Energy prior to optimization (guess energy) = -918.944592635683
Begin Timing: Total SCF Calculation
begin iterations for algorithm: DIIS         
the SCF tolerance is set to 1.00e-08
    1    -918.9445926357      3.30e-04     00000 
    2    -918.9602493957      5.34e-05     00000 
    3    -918.9608404299      2.69e-05     00000 
    4    -918.9609047119      7.97e-06     00000 
    5    -918.9609116156      3.42e-06     00000 
    6    -918.9609126507      3.45e-07     00000 
    7    -918.9609127023      1.03e-07     00000 
    8    -918.9609127052      5.73e-08     00000 
    9    -918.9609127056      1.42e-08     00000 
   10    -918.9609127056      2.42e-09     00000 Convergence criterion met
write pseudocanon occs and virts to disk
write pseudocanon orbital energies to disk
Timing for Total SCF: 240.00s (wall), 1442.89s (cpu)
<S^2> of ct_allowed wavefunction after ct-allowed iterations 0.0000000000

================================
        Results of EDA2         
================================
Basic EDA Quantities
--------------------
Fragment Energies (Ha):
1 -460.2597934915
2 -458.5940322650
--------------------
  E_prp (kJ/mol) = 0.0000
  E_frz (kJ/mol) = -179.0476
  E_pol (kJ/mol) = -59.2637
  E_vct (kJ/mol) = -42.8489
  E_int (kJ/mol) = -281.1601
--------------------


Decomposition of frozen interaction energy
--------------------
  --------------------
  Orthogonal Frozen Decomposition:
  --------------------
     E_elec   (ELEC)   (kJ/mol) = -533.2446
     E_pauli  (PAULI)  (kJ/mol) = 411.2906
     E_disp   (DISP)   (kJ/mol) = -57.0936
  --------------------
  Classical Frozen Decomposition:
  --------------------
     E_cls_elec  (CLS ELEC)  (kJ/mol) = -337.8000
     E_mod_pauli (MOD PAULI) (kJ/mol) = 211.9901 (FRZ - CLS ELEC - CLS DISP)
     E_cls_disp  (CLS DISP)  (kJ/mol) = -53.2377
  --------------------
--------------------

Simplified EDA Summary (kJ/mol)
--------------------
 PREPARATION      0.0000
 FROZEN           -179.0476 (ELEC + PAULI + DISP)
[ELEC + PAULI = -125.8099, DISP = -53.2377]
 POLARIZATION    -59.2637
 CHARGE TRANSFER -42.8489
 TOTAL           -281.1601     (PRP + FRZ + POL + CT)
--------------------
 
 --------------------------------------------------------------
 
                    Orbital Energies (a.u.)
 --------------------------------------------------------------
 
 Alpha MOs
 -- Occupied --
******** -19.2084 -19.2063 -19.2029 -19.2007 -19.1928 -19.1862  -9.4385
 -7.1379  -7.1378  -7.1374  -1.0234  -1.0165  -1.0137  -1.0025  -0.9894
 -0.9761  -0.7289  -0.5173  -0.5113  -0.5048  -0.4968  -0.4909  -0.4834
 -0.3979  -0.3817  -0.3798  -0.3775  -0.3524  -0.3508  -0.3070  -0.3016
 -0.2982  -0.2952  -0.2852  -0.2673  -0.2444  -0.2415  -0.2413
 -- Virtual --
  0.1315   0.1371   0.1413   0.1464   0.1642   0.1724   0.1763   0.1805
  0.1851   0.2037   0.2051   0.2119   0.2145   0.2181   0.2223   0.2276
  0.2410   0.2464   0.2493   0.2596   0.2604   0.2696   0.2785   0.2798
  0.2868   0.2907   0.3060   0.3114   0.3137   0.3189   0.3344   0.3383
  0.3504   0.3557   0.3660   0.3753   0.3785   0.3812   0.3859   0.3902
  0.3975   0.4063   0.4111   0.4167   0.4233   0.4272   0.4315   0.4375
  0.4419   0.4456   0.4514   0.4592   0.4680   0.4696   0.4772   0.4800
  0.4855   0.4942   0.4979   0.5045   0.5067   0.5161   0.5185   0.5240
  0.5281   0.5343   0.5408   0.5483   0.5550   0.5681   0.5727   0.5768
  0.5857   0.5883   0.5934   0.6074   0.6156   0.6236   0.6281   0.6302
  0.6378   0.6441   0.6530   0.6614   0.6701   0.6783   0.6868   0.6926
  0.6962   0.7042   0.7103   0.7168   0.7252   0.7296   0.7373   0.7465
  0.7485   0.7554   0.7586   0.7721   0.7860   0.7897   0.8008   0.8084
  0.8128   0.8204   0.8357   0.8442   0.8628   0.8662   0.8740   0.8807
  0.8897   0.8970   0.9120   0.9240   0.9305   0.9392   0.9467   0.9577
  0.9671   0.9735   0.9797   0.9975   0.9996   1.0067   1.0170   1.0278
  1.0313   1.0355   1.0506   1.0571   1.0671   1.0732   1.0781   1.0832
  1.0961   1.1112   1.1141   1.1233   1.1263   1.1311   1.1463   1.1639
  1.1669   1.1756   1.1869   1.1968   1.2067   1.2270   1.2288   1.2342
  1.2555   1.2732   1.2845   1.2951   1.3030   1.3089   1.3134   1.3275
  1.3354   1.3435   1.3571   1.3650   1.3730   1.3803   1.3876   1.3929
  1.4058   1.4140   1.4169   1.4234   1.4422   1.4497   1.4665   1.4881
  1.5158   1.5250   1.5356   1.5479   1.5606   1.5743   1.5870   1.5931
  1.6065   1.6118   1.6268   1.6536   1.6970   1.7069   1.7580   1.8570
  2.0700   2.0787   2.0911   2.0986   2.1069   2.1194   2.1381   2.1526
  2.1625   2.1629   2.1930   2.2220   2.2348   2.2430   2.2496   2.2702
  2.2799   2.2865   2.3016   2.3218   2.3417   2.3440   2.3481   2.3749
  2.3791   2.3934   2.4020   2.4116   2.4155   2.4189   2.4295   2.4405
  2.4542   2.4609   2.4818   2.4965   2.5091   2.5575   2.5875   2.6080
  2.6728   2.6865   2.7177   2.7474   2.7921   2.8289   2.8780   2.8853
  2.8899   2.9216   2.9375   2.9589   2.9682   3.0133   3.0410   3.0642
  3.1025   3.1342   3.1467   3.1832   3.2310   3.2710   3.2765   3.2853
  3.3302   3.3513   3.3701   3.3947   3.4042   3.4104   3.4130   3.4319
  3.4428   3.4497   3.4537   3.4724   3.4784   3.4927   3.5062   3.5092
  3.5381   3.5415   3.5560   3.5678   3.5834   3.5906   3.5987   3.6050
  3.6097   3.6228   3.6352   3.6419   3.6529   3.6842   3.6972   3.7163
  3.7287   3.7426   3.7541   3.7611   3.8118   3.8231   3.8343   3.8479
  3.8612   3.8769   3.8992   3.9378   3.9484   4.0175   4.0300   4.0350
  4.0552   4.0601   4.0755   4.0992   4.1059   4.1227   4.1335   4.1556
  4.1750   4.1852   4.1936   4.2018   4.2142   4.2246   4.2381   4.2444
  4.2525   4.2662   4.2709   4.2775   4.2819   4.3207   4.3309   4.3391
  4.3567   4.3637   4.3686   4.3746   4.3832   4.3944   4.3973   4.4071
  4.4185   4.4261   4.4545   4.4593   4.4933   4.4961   4.5176   4.5631
  4.5695   4.8461   4.8574   4.8738   4.8831   4.8942   4.9067   4.9156
  4.9215   4.9528   4.9604   4.9950   5.1083   5.1101   5.1491   5.1742
  5.1880   5.1918   5.1937   5.3345   5.3664   5.4089   5.4288   5.4344
  5.4976   5.7858   5.8036   5.8259   5.8424   5.8688   5.8802   6.2192
  6.2759   6.3811   6.3978   6.4747   6.5518   6.5610   6.6169   6.6309
  6.6664   6.6939   6.7132   6.7169   6.7348   6.7423   6.7505   6.7574
  6.7677   6.7734   6.7751   6.8134   6.8155   6.8231   6.8256   6.8317
  6.8398   6.8440   6.8484   6.8751   6.8945   6.9171   6.9594   6.9748
  6.9794   6.9892   7.0050   7.0061   7.0350   7.0438   7.0579   7.0768
  7.0788   7.2037   7.2165   7.2372   7.2535   7.2748   7.3280   7.5792
  7.6386   7.6602   7.6776   7.6902   7.7113   7.7231   7.7636   7.7695
  7.7968   7.8399   7.8738   7.9670   7.9976   8.0113   8.0307   8.0422
  8.0691   8.5328   8.5542   8.6091   8.6367   8.7521  11.3856  11.5074
 11.5401  26.3011  44.5723  44.6150  44.6380  44.6443  44.6824  44.6990
 --------------------------------------------------------------
 
          Ground-State Mulliken Net Atomic Charges

     Atom                 Charge (a.u.)
  ----------------------------------------
      1 Cl                   -0.848066
      2 O                    -0.454350
      3 H                     0.175846
      4 H                     0.257467
      5 O                    -0.473941
      6 H                     0.189939
      7 H                     0.220568
      8 O                    -0.410923
      9 H                     0.116929
     10 H                     0.262680
     11 O                    -0.479191
     12 H                     0.183469
     13 H                     0.293298
     14 O                    -0.415321
     15 H                     0.224775
     16 H                     0.160576
     17 O                    -0.498895
     18 H                     0.294248
     19 H                     0.200894
  ----------------------------------------
  Sum of atomic charges =    -1.000000

 -----------------------------------------------------------------
                    Cartesian Multipole Moments
 -----------------------------------------------------------------
    Charge (ESU x 10^10)
                -4.8032
    Dipole Moment (Debye)
         X       0.9513      Y       2.2213      Z       1.3707
       Tot       2.7781
    Quadrupole Moments (Debye-Ang)
        XX     -85.8754     XY      -4.7841     YY     -80.4156
        XZ       3.3010     YZ       0.7287     ZZ     -61.0977
    Octopole Moments (Debye-Ang^2)
       XXX     -38.9923    XXY      32.6401    XYY      27.4450
       YYY     -12.5669    XXZ      -2.7953    XYZ      10.6435
       YYZ       3.3715    XZZ       7.3183    YZZ      12.0639
       ZZZ      26.5775
    Hexadecapole Moments (Debye-Ang^3)
      XXXX   -1682.9095   XXXY      57.5982   XXYY    -446.2159
      XYYY     -43.0837   YYYY   -1267.1501   XXXZ      49.8302
      XXYZ       0.4707   XYYZ      77.2618   YYYZ       7.1198
      XXZZ    -258.2664   XYZZ     -31.9562   YYZZ    -256.5245
      XZZZ     -51.7591   YZZZ       1.7833   ZZZZ    -465.1467
 -----------------------------------------------------------------
 Total job time:  2713.80s(wall), 6683.64s(cpu) 
 Thu Jan 18 12:31:28 2024

        *************************************************************
        *                                                           *
        *  Thank you very much for using Q-Chem.  Have a nice day.  *
        *                                                           *
        *************************************************************


