
Running Job 1 of 1 122_Cl-Water_Cls_063_almo.in
qchem 122_Cl-Water_Cls_063_almo.in_1033019.0 /scratch/qchem1033019/ 6
/home/kchung25/qchem/5.4.0/exe/qcprog.exe_s 122_Cl-Water_Cls_063_almo.in_1033019.0 /scratch/qchem1033019/
                  Welcome to Q-Chem
     A Quantum Leap Into The Future Of Chemistry


 Q-Chem 5.4, Q-Chem, Inc., Pleasanton, CA (2021)

 E. Epifanovsky,  A. T. B. Gilbert,  Xintian Feng,  Joonho Lee,  Yuezhi Mao,  
 N. Mardirossian,  P. Pokhilko,  A. White,  M. Wormit,  M. P. Coons,  
 A. L. Dempwolff,  Zhengting Gan,  D. Hait,  P. R. Horn,  L. D. Jacobson,  
 I. Kaliman,  J. Kussmann,  A. W. Lange,  Ka Un Lao,  D. S. Levine,  Jie Liu,  
 S. C. McKenzie,  A. F. Morrison,  K. Nanda,  F. Plasser,  D. R. Rehn,  
 M. L. Vidal,  Zhi-Qiang You,  Ying Zhu,  B. Alam,  B. Albrecht,  
 A. Aldossary,  E. Alguire,  J. H. Andersen,  D. Barton,  K. Begam,  A. Behn,  
 Y. A. Bernard,  E. J. Berquist,  H. Burton,  A. Carreras,  K. Carter-Fenk,  
 Romit Chakraborty,  A. D. Chien,  K. D. Closser,  V. Cofer-Shabica,  
 S. Dasgupta,  Jia Deng,  M. de Wergifosse,  M. Diedenhofen,  Hainam Do,  
 S. Ehlert,  Po-Tung Fang,  S. Fatehi,  Qingguo Feng,  T. Friedhoff,  
 J. Gayvert,  Qinghui Ge,  G. Gidofalvi,  M. Goldey,  J. Gomes,  
 C. Gonzalez-Espinoza,  S. Gulania,  A. Gunina,  M. W. D. Hanson-Heine,  
 P. H. P. Harbach,  A. W. Hauser,  M. F. Herbst,  M. Hernandez Vera,  
 M. Hodecker,  Z. C. Holden,  S. Houck,  Xunkun Huang,  Kerwin Hui,  
 B. C. Huynh,  M. Ivanov,  Hyunjun Ji,  Hanjie Jiang,  B. Kaduk,  S. Kaehler,  
 K. Khistyaev,  Jaehoon Kim,  P. Klunzinger,  Z. Koczor-Benda,  
 Joong Hoon Koh,  D. Kosenkov,  L. Koulias,  T. Kowalczyk,  C. M. Krauter,  
 K. Kue,  A. Kunitsa,  T. Kus,  A. Landau,  K. V. Lawler,  D. Lefrancois,  
 S. Lehtola,  Rain Li,  Yi-Pei Li,  Jiashu Liang,  M. Liebenthal,  
 Hung-Hsuan Lin,  You-Sheng Lin,  Fenglai Liu,  Kuan-Yu Liu,  
 M. Loipersberger,  A. Luenser,  A. Manjanath,  P. Manohar,  E. Mansoor,  
 S. F. Manzer,  Shan-Ping Mao,  A. V. Marenich,  T. Markovich,  S. Mason,  
 S. A. Maurer,  P. F. McLaughlin,  M. F. S. J. Menger,  J.-M. Mewes,  
 S. A. Mewes,  P. Morgante,  J. W. Mullinax,  K. J. Oosterbaan,  G. Paran,  
 Alexander C. Paul,  Suranjan K. Paul,  F. Pavosevic,  Zheng Pei,  S. Prager,  
 E. I. Proynov,  E. Ramos,  B. Rana,  A. E. Rask,  A. Rettig,  R. M. Richard,  
 F. Rob,  E. Rossomme,  T. Scheele,  M. Scheurer,  M. Schneider,  
 N. Sergueev,  S. M. Sharada,  W. Skomorowski,  D. W. Small,  C. J. Stein,  
 Yu-Chuan Su,  E. J. Sundstrom,  Zhen Tao,  J. Thirman,  T. Tsuchimochi,  
 N. M. Tubman,  S. P. Veccham,  O. Vydrov,  J. Wenzel,  J. Witte,  A. Yamada,  
 Kun Yao,  S. Yeganeh,  S. R. Yost,  A. Zech,  Igor Ying Zhang,  Xing Zhang,  
 Yu Zhang,  D. Zuev,  A. Aspuru-Guzik,  A. T. Bell,  N. A. Besley,  
 K. B. Bravaya,  B. R. Brooks,  D. Casanova,  Jeng-Da Chai,  S. Coriani,  
 C. J. Cramer,  A. E. DePrince, III,  R. A. DiStasio Jr.,  A. Dreuw,  
 B. D. Dunietz,  T. R. Furlani,  W. A. Goddard III,  S. Grimme,  
 S. Hammes-Schiffer,  T. Head-Gordon,  W. J. Hehre,  Chao-Ping Hsu,  
 T.-C. Jagau,  Yousung Jung,  A. Klamt,  Jing Kong,  D. S. Lambrecht,  
 WanZhen Liang,  N. J. Mayhall,  C. W. McCurdy,  J. B. Neaton,  T. Neudecker,  
 C. Ochsenfeld,  J. A. Parkhill,  R. Peverati,  V. A. Rassolov,  Yihan Shao,  
 L. V. Slipchenko,  R. P. Steele,  J. E. Subotnik,  A. J. W. Thom,  
 A. Tkatchenko,  D. G. Truhlar,  T. Van Voorhis,  T. A. Wesolowski,  
 K. B. Whaley,  H. L. Woodcock III,  P. M. Zimmerman,  S. Faraji,  
 P. M. W. Gill,  M. Head-Gordon,  J. M. Herbert,  A. I. Krylov

 Additional authors since Version 5.4.0: 
 Chandrima Chakravarty,  L. Cunha,  R. Kang,  Yongbin Kim,  S. Kotaru,  
 Shaozhi Li,  Xiangyuan Li,  F. Matz,  A. Molle,  V. Parravicini,  
 Haisheng Ren,  Hengyuan Shen,  Yingli Su,  Hung-Yi Tsai,  C. Utku,  
 Fang Wang,  Jeff Yang,  F. Zeller

 Contributors to earlier versions of Q-Chem not listed above: 
 R. D. Adamson,  B. Austin,  R. Baer,  J. Baker,  G. J. O. Beran,  
 K. Brandhorst,  S. T. Brown,  E. F. C. Byrd,  Arup K. Chakraborty,  
 G. K. L. Chan,  Chun-Min Chang,  Yunqing Chen,  C.-L. Cheng,  
 Siu Hung Chien,  D. M. Chipman,  D. L. Crittenden,  H. Dachsel,  
 R. J. Doerksen,  A. D. Dutoi,  R. G. Edgar,  J. Fosso-Tande,  
 L. Fusti-Molnar,  D. Ghosh,  A. Ghysels,  A. Golubeva-Zadorozhnaya,  
 J. Gonthier,  M. S. Gordon,  S. R. Gwaltney,  G. Hawkins,  J. E. Herr,  
 A. Heyden,  S. Hirata,  E. G. Hohenstein,  G. Kedziora,  F. J. Keil,  
 C. Kelley,  Jihan Kim,  R. A. King,  R. Z. Khaliullin,  P. P. Korambath,  
 W. Kurlancheek,  A. Laurent,  A. M. Lee,  M. S. Lee,  S. V. Levchenko,  
 Ching Yeh Lin,  D. Liotard,  E. Livshits,  R. C. Lochan,  I. Lotan,  
 L. A. Martinez-Martinez,  P. E. Maslen,  N. Nair,  D. P. O'Neill,  
 D. Neuhauser,  E. Neuscamman,  C. M. Oana,  R. Olivares-Amaya,  R. Olson,  
 T. M. Perrine,  B. Peters,  P. A. Pieniazek,  A. Prociuk,  Y. M. Rhee,  
 J. Ritchie,  M. A. Rohrdanz,  E. Rosta,  N. J. Russ,  H. F. Schaefer III,  
 M. W. Schmidt,  N. E. Schultz,  S. Sharma,  N. Shenvi,  C. D. Sherrill,  
 A. C. Simmonett,  A. Sodt,  T. Stein,  D. Stuck,  K. S. Thanthiriwatte,  
 V. Vanovschi,  L. Vogt,  Tao Wang,  A. Warshel,  M. A. Watson,  
 C. F. Williams,  Q. Wu,  X. Xu,  Jun Yang,  W. Zhang,  Yan Zhao

   Please cite Q-Chem as follows:
  "Software for the frontiers of quantum chemistry:
   An overview of developments in the Q-Chem 5 package"
   J. Chem. Phys. 155, 084801 (2021)
   https://doi.org/10.1063/5.0055522 (open access)

 Q-Chem 5.4.2 for Intel X86 EM64T Linux

 Parts of Q-Chem use Armadillo 9.900.5 (Nocturnal Misbehaviour).
 http://arma.sourceforge.net/

 Q-Chem begins on Wed Jan 17 22:32:06 2024  

 Host: 
0

     Scratch files written to /scratch/qchem1033019//
 Dec1321 |scratch|qcdevops|jenkins|workspace|build_RNUM 5684   
 Processing $rem in /home/kchung25/qchem/5.4.0/config/preferences:
 Processing $rem in /home/kchung25/.qchemrc:

 Q-Chem warning in module libgen/rem_setup.C, line 3079:

 Neither GIA nor STOLL is specified by user. Use STOLL as the default


 Checking the input file for inconsistencies... 	...done.

--------------------------------------------------------------
User input:
--------------------------------------------------------------
$molecule
-1 1
--
-1 1
Cl     0.000000     0.000000     0.000000
--
0 1
O      2.577144     1.301097    -1.507566
H      1.636751     1.082512    -1.310522
H      2.493026     1.546902    -2.431710
O     -0.803884    -0.114309     3.230273
H     -1.032596    -0.160666     2.314983
H     -1.231357    -0.797408     3.797174
O      0.843661    -2.286358    -2.084704
H      0.687224    -1.478250    -1.561391
H      0.748808    -1.967004    -2.989697
O     -3.119480    -1.368652    -0.412857
H     -2.259889    -0.968028    -0.211314
H     -2.868990    -2.275884    -0.520071
$end

$rem
JOBTYPE          eda
EDA2             1
METHOD           wB97M-V
BASIS            def2-TZVPPD
SYMMETRY         false
MEM_TOTAL        50000
MEM_STATIC       10000
THRESH           14
SCF_CONVERGENCE  8
XC_GRID          000099000590
NL_GRID          1
EDA_CLS_DISP     true
FD_MAT_VEC_PROD  FALSE
$end
--------------------------------------------------------------
 ----------------------------------------------------------------
             Standard Nuclear Orientation (Angstroms)
    I     Atom           X                Y                Z
 ----------------------------------------------------------------
    1      Cl     -0.0323485913    -0.4155022290    -0.2261269315
    2      O      -3.1073992214    -1.4606576666    -0.4690128676
    3      H      -2.2641181865    -1.0108673852    -0.7088264066
    4      H      -3.7112237716    -0.9825246131    -1.0420074264
    5      O       2.7527530800    -2.0261557794     0.6358263786
    6      H       2.3038999915    -1.3072168135     0.2188472391
    7      H       3.5495899429    -1.7691406354     1.1551801915
    8      O      -1.6995848828     1.9134607088     1.2165935325
    9      H      -1.3569395315     1.1597453285     0.7009629871
   10      H      -2.2940453176     2.3394940212     0.5880167217
   11      O       2.1412619618     2.1492904690    -0.9132006171
   12      H       1.5981905918     1.3722703670    -0.7099050054
   13      H       2.0283248318     2.6542757703    -0.1197618773
 ----------------------------------------------------------------
 Molecular Point Group                 C1    NOp =  1
 Largest Abelian Subgroup              C1    NOp =  1
 Nuclear Repulsion Energy =         212.36535008 hartrees
 There are       29 alpha and       29 beta electrons
 Requested basis set is def2-TZVPPD
 There are 129 shells and 347 basis functions

 Q-Chem warning in module libmdc/get_mega.C, line 171:

 Allowed MEM_STATIC has been capped at MEM_STATIC=8191.
 Reduce the value of MEM_STATIC to silence this warning.


 Total QAlloc Memory Limit  50000 MB
 Mega-Array Size      8007 MB
 MEM_STATIC part      8191 MB

                       Distance Matrix (Angstroms)
             Cl(  1)   O (  2)   H (  3)   H (  4)   O (  5)   H (  6)
   O (  2)  3.256882
   H (  3)  2.359715  0.985365
   H (  4)  3.810682  0.959968  1.485237
   O (  5)  3.330760  5.990145  5.292249  6.759237
   H (  6)  2.539924  5.457001  4.670674  6.154421  0.944571
   H (  7)  4.070704  6.859203  6.152130  7.626652  0.985258  1.625373
   O (  8)  3.207053  4.025902  3.546496  4.187446  5.973373  5.234133
   H (  9)  2.257309  3.361468  2.742634  3.629039  5.200364  4.440730
   H ( 10)  3.656242  4.027407  3.592718  3.962472  6.673182  5.880126
   O ( 11)  3.431445  6.385724  5.425471  6.639009  4.495304  3.640800
   H ( 12)  2.467555  5.497826  4.538367  5.817666  3.833185  2.922372
   H ( 13)  3.698814  6.590168  5.674975  6.857060  4.796056  3.985476
             H (  7)   O (  8)   H (  9)   H ( 10)   O ( 11)   H ( 12)
   O (  8)  6.412422
   H (  9)  5.732252  0.975381
   H ( 10)  7.165935  0.964363  1.510871
   O ( 11)  4.649268  4.398152  3.977705  4.686340
   H ( 12)  4.141855  3.857409  3.281541  4.215403  0.969544
   H ( 13)  4.848333  4.028891  3.790412  4.391232  0.947264  1.475406

 
 A cutoff of  1.0D-14 yielded   6897 shell pairs
 There are     48713 function pairs (     59502 Cartesian)
 Smallest overlap matrix eigenvalue = 2.62E-04

 Scale SEOQF with 1.000000e-01/1.000000e-01/1.000000e-01

 Standard Electronic Orientation quadrupole field applied
 Nucleus-field energy     =     0.0000000159 hartrees

 -----------------------------------------------------------------------
  General SCF calculation program by
  Eric Jon Sundstrom, Paul Horn, Yuezhi Mao, Dmitri Zuev, Alec White,
  David Stuck, Shaama M.S., Shane Yost, Joonho Lee, David Small,
  Daniel Levine, Susi Lehtola, Hugh Burton, Evgeny Epifanovsky,
  Bang C. Huynh
 -----------------------------------------------------------------------
================================================================
                 ALMO-EDA with the EDA2 driver                  
================================================================
 The second-generation ALMO-EDA (for DFT):                      
 P. R. Horn, Y. Mao and M. Head-Gordon, PCCP, 18, 23067 (2016)  
 Y. Mao et al. Annu. Rev. Phys. Chem. 72, 641 (2021)            
 Decomposition of the frozen energy:                            
 P. R. Horn, Y. Mao and M. Head-Gordon, JCP, 144, 114107 (2016) 
 FERF model for polarization:                                   
 P. R. Horn and M. Head-Gordon, JCP, 143, 114111 (2015)         
================================================================
 Using eda2 option set 1
 Option set summary: Frozen orbital wavefunction, initial wavefunction decomposition, and nDQ polarization.
--------------------------------
Printing EDA Options
--------------------------------
eda_child_super_basis      0
fragmo_guess_mode          0
child_mp                   1
child_mp_orders            232
cls_elec                   1
cls_disp                   1
scfmi_mode                 1
scfmi_occs                 0
scfmi_virts                0
frz_relax                  0
frz_relax_method           0
dc_pen_start               0
dc_pen_conv                0
dc_pen_increment           0
dc_pen_steps               0
dc_pen_thresh_factor       0
dc_pen_pre_newton_thresh   0
frz_ortho_decomp           1
frz_ortho_decomp_conv      6
plot_mo_ortho_frz          0
frgm_method                2
scfmi_freeze_ss            0
separate_rehyb             0
plot_diff_den              0
eda_nocv                   0
eda_vct_relax              1
disp_free_x                0
disp_free_c                0
eda_bsse                   0
eda_pct_a                  0
eda_covp                   0
--------------------------------
Attempting to make child job directory: /scratch/qchem1033019//Frg1/
Attempting to make child job directory: /scratch/qchem1033019//Frg2/
Creating input file /scratch/qchem1033019/Frg1.input
using default PutDataFrgm: nothing
calling putenv with: QCSCRATCH=/scratch/qchem1033019/ 
Spawning Job For Fragment 0
Done Job For Fragment 0
calling putenv with: QCSCRATCH=/scratch 
calling putenv with: QCTHREADS=6 
Creating input file /scratch/qchem1033019/Frg2.input
using default PutDataFrgm: nothing
calling putenv with: QCSCRATCH=/scratch/qchem1033019/ 
Spawning Job For Fragment 1
Done Job For Fragment 1
calling putenv with: QCSCRATCH=/scratch 
calling putenv with: QCTHREADS=6 
Doing General SCFMI
 Exchange:     0.1500 Hartree-Fock + 1.0000 wB97M-V + LR-HF
 Correlation:  1.0000 wB97M-V
 Using Euler-Maclaurin-Lebedev (99,590) quadrature formula
 Nonlocal Correlation:  VV10 with C = 0.0100 and b = 6.00 and scale = 1.00000
 Grid used for NLC:  SG-1 standard quadrature
performing fock build before subrot guess so that all methods have access
Printing subrot_rss_gen Method Specification:
Occupied Subspace Method is 0
Virtual Subspace Method is 0
Energy of the unrelaxed supersystem initial determinant -766.035930144799
write pseudocanon occs and virts to disk
write pseudocanon orbital energies to disk
Tolerance of ortho_decomp_scf: 1.00e-06
GDM subspace size: 20
Beginning the Orthogonal Decomposition of the Initial Supersystem Wavefunction
    1    -765.8423638408      2.72e-01     ortho_decomp Preconditoned Steepest Descent
    2    -765.8812148316      3.41e-03     ortho_decomp BFGS Step
    3    -765.8812517545      2.18e-04     ortho_decomp BFGS Step
    4    -765.8812518830      9.36e-06     ortho_decomp BFGS Step
    5    -765.8812518831      2.14e-07     ortho_decomp 00000 Convergence criterion met
 Hartree-Fock
 Hartree-Fock
 Hartree-Fock
 Exchange:     0.1500 Hartree-Fock + 1.0000 wB97M-V + LR-HF
 Correlation:  1.0000 wB97M-V
 Using Euler-Maclaurin-Lebedev (99,590) quadrature formula
 Nonlocal Correlation:  VV10 with C = 0.0100 and b = 6.00 and scale = 1.00000
 Grid used for NLC:  SG-1 standard quadrature
 Long-range K will be added via erf
 Coulomb attenuation parameter = 0.3 bohr**(-1)
 Nonlocal correlation = 2.405797728057e-01
Doing General SCFMI
 Exchange:     0.1500 Hartree-Fock + 1.0000 wB97M-V + LR-HF
 Correlation:  1.0000 wB97M-V
 Using Euler-Maclaurin-Lebedev (99,590) quadrature formula
 Nonlocal Correlation:  VV10 with C = 0.0100 and b = 6.00 and scale = 1.00000
 Grid used for NLC:  SG-1 standard quadrature
performing fock build at end of subrot_r(subrot) constructor so that all methods have access
<S^2> of initial wavefunction before polarization iterations 0.0000000000
Beginning iterations for the determination of the polarized wavefunction
Energy prior to optimization (guess energy) = -766.035930144799
Begin Timing: Total SCF Calculation
begin iterations for algorithm: DIIS         
the SCF tolerance is set to 1.00e-08
    1    -766.0359301448      6.33e-04     00000 
    2    -766.0503145474      2.35e-04     00000 
    3    -766.0516208893      9.51e-05     00000 
    4    -766.0518974845      4.28e-05     00000 
    5    -766.0519626829      1.84e-05     00000 
    6    -766.0519759748      6.76e-06     00000 
    7    -766.0519787145      2.43e-06     00000 
    8    -766.0519791058      9.09e-07     00000 
    9    -766.0519791259      6.01e-07     00000 
   10    -766.0519791317      2.65e-07     00000 
   11    -766.0519791326      1.23e-07     00000 
   12    -766.0519791328      4.97e-08     00000 
   13    -766.0519791329      1.40e-08     00000 
   14    -766.0519791329      5.22e-09     00000 Convergence criterion met
write pseudocanon occs and virts to disk
write pseudocanon orbital energies to disk
Timing for Total SCF: 113.00s (wall), 676.73s (cpu)
<S^2> of polarized wavefunction after polarization iterations 0.0000000000
relaxing scfmi constraint to allow all rotations in the entire AO span
Doing General SCFMI
 Exchange:     0.1500 Hartree-Fock + 1.0000 wB97M-V + LR-HF
 Correlation:  1.0000 wB97M-V
 Using Euler-Maclaurin-Lebedev (99,590) quadrature formula
 Nonlocal Correlation:  VV10 with C = 0.0100 and b = 6.00 and scale = 1.00000
 Grid used for NLC:  SG-1 standard quadrature
performing fock build at end of subrot_r(subrot) constructor so that all methods have access
<S^2> of polarized wavefunction before ct-allowed iterations 0.0000000000
Beginning iterations for the determination of the CT-Allowed wavefunction
Energy prior to optimization (guess energy) = -766.051979132868
Begin Timing: Total SCF Calculation
begin iterations for algorithm: DIIS         
the SCF tolerance is set to 1.00e-08
    1    -766.0519791329      3.95e-04     00000 
    2    -766.0643121094      6.80e-05     00000 
    3    -766.0648819672      3.18e-05     00000 
    4    -766.0649312530      1.09e-05     00000 
    5    -766.0649387988      4.37e-06     00000 
    6    -766.0649397403      6.41e-07     00000 
    7    -766.0649398278      1.48e-07     00000 
    8    -766.0649398318      7.07e-08     00000 
    9    -766.0649398321      2.65e-08     00000 
   10    -766.0649398322      4.96e-09     00000 Convergence criterion met
write pseudocanon occs and virts to disk
write pseudocanon orbital energies to disk
Timing for Total SCF: 78.00s (wall), 466.49s (cpu)
<S^2> of ct_allowed wavefunction after ct-allowed iterations 0.0000000000

================================
        Results of EDA2         
================================
Basic EDA Quantities
--------------------
Fragment Energies (Ha):
1 -460.2597934915
2 -305.7374355996
--------------------
  E_prp (kJ/mol) = 0.0000
  E_frz (kJ/mol) = -101.6108
  E_pol (kJ/mol) = -42.1371
  E_vct (kJ/mol) = -34.0287
  E_int (kJ/mol) = -177.7767
--------------------


Decomposition of frozen interaction energy
--------------------
  --------------------
  Orthogonal Frozen Decomposition:
  --------------------
     E_elec   (ELEC)   (kJ/mol) = -304.5502
     E_pauli  (PAULI)  (kJ/mol) = 238.3678
     E_disp   (DISP)   (kJ/mol) = -35.4285
  --------------------
  Classical Frozen Decomposition:
  --------------------
     E_cls_elec  (CLS ELEC)  (kJ/mol) = -194.4088
     E_mod_pauli (MOD PAULI) (kJ/mol) = 126.9271 (FRZ - CLS ELEC - CLS DISP)
     E_cls_disp  (CLS DISP)  (kJ/mol) = -34.1291
  --------------------
--------------------

Simplified EDA Summary (kJ/mol)
--------------------
 PREPARATION      0.0000
 FROZEN           -101.6108 (ELEC + PAULI + DISP)
[ELEC + PAULI = -67.4817, DISP = -34.1291]
 POLARIZATION    -42.1371
 CHARGE TRANSFER -34.0287
 TOTAL           -177.7767     (PRP + FRZ + POL + CT)
--------------------
 
 --------------------------------------------------------------
 
                    Orbital Energies (a.u.)
 --------------------------------------------------------------
 
 Alpha MOs
 -- Occupied --
******** -19.1926 -19.1920 -19.1918 -19.1832  -9.3928  -7.0925  -7.0919
 -7.0916  -1.0010  -0.9937  -0.9931  -0.9858  -0.6788  -0.5148  -0.4899
 -0.4799  -0.4790  -0.3705  -0.3680  -0.3578  -0.3458  -0.2870  -0.2858
 -0.2837  -0.2754  -0.2028  -0.1964  -0.1933
 -- Virtual --
  0.1399   0.1439   0.1524   0.1677   0.1822   0.1982   0.2009   0.2022
  0.2104   0.2159   0.2216   0.2282   0.2386   0.2481   0.2596   0.2676
  0.2760   0.2811   0.2973   0.3229   0.3286   0.3304   0.3385   0.3455
  0.3489   0.3655   0.3722   0.3797   0.3879   0.3920   0.3939   0.4035
  0.4120   0.4186   0.4281   0.4365   0.4454   0.4521   0.4639   0.4702
  0.4743   0.4775   0.4782   0.4943   0.5072   0.5221   0.5289   0.5379
  0.5467   0.5573   0.5730   0.5846   0.5964   0.6073   0.6084   0.6227
  0.6307   0.6363   0.6470   0.6507   0.6576   0.6590   0.6662   0.6799
  0.6895   0.6988   0.7029   0.7179   0.7243   0.7256   0.7409   0.7475
  0.7588   0.7733   0.7899   0.7977   0.8271   0.8632   0.8657   0.8823
  0.8992   0.9098   0.9131   0.9208   0.9352   0.9410   0.9527   0.9708
  0.9808   0.9909   0.9994   1.0149   1.0280   1.0418   1.0455   1.0583
  1.0716   1.0729   1.0856   1.0956   1.1107   1.1173   1.1381   1.1584
  1.1711   1.2022   1.2128   1.2147   1.2268   1.2581   1.2643   1.2759
  1.2865   1.2978   1.3099   1.3208   1.3271   1.3504   1.3570   1.3797
  1.3858   1.3937   1.4206   1.4476   1.4520   1.4579   1.5392   1.5549
  1.5659   1.5719   1.5817   1.6108   1.6897   1.7487   2.0482   2.0793
  2.0925   2.1037   2.1408   2.1458   2.1547   2.1593   2.1755   2.1936
  2.2052   2.2312   2.2713   2.2959   2.3093   2.3209   2.3412   2.3512
  2.3552   2.3627   2.3874   2.3906   2.4106   2.4366   2.4411   2.4513
  2.4607   2.4804   2.5157   2.6070   2.6137   2.6698   2.6764   2.7199
  2.7893   2.8047   2.8210   2.9089   2.9168   2.9320   2.9577   2.9804
  3.0529   3.0895   3.1008   3.1574   3.1781   3.2860   3.3129   3.3374
  3.3460   3.3744   3.4122   3.4339   3.4396   3.4494   3.4589   3.4695
  3.4810   3.5249   3.5346   3.5838   3.5968   3.6007   3.6066   3.6282
  3.6404   3.6462   3.6603   3.6624   3.6714   3.7267   3.7979   3.8143
  3.8341   3.8660   3.9008   3.9663   4.0003   4.0193   4.0283   4.0451
  4.0610   4.0982   4.1084   4.1316   4.1437   4.1750   4.1798   4.2044
  4.2097   4.2355   4.2524   4.2568   4.2779   4.3215   4.3422   4.3514
  4.3616   4.3681   4.3766   4.3859   4.3962   4.4447   4.4848   4.4966
  4.5112   4.8679   4.8729   4.8840   4.8906   4.9504   4.9685   4.9942
  5.0054   5.1140   5.1481   5.1538   5.1863   5.3246   5.3734   5.3841
  5.4199   5.7722   5.8494   5.8565   5.8718   6.1730   6.4461   6.4834
  6.5133   6.6192   6.6586   6.6718   6.6796   6.6923   6.7353   6.7437
  6.7508   6.7538   6.7643   6.7700   6.8168   6.8242   6.8305   6.8338
  6.8423   6.9163   6.9314   6.9500   6.9939   7.0293   7.0436   7.0521
  7.0644   7.1825   7.2040   7.2211   7.3373   7.5171   7.6798   7.6876
  7.6905   7.7147   7.8154   7.8344   7.8831   7.8882   7.9373   7.9530
  8.0762   8.5279   8.5390   8.5770   8.6398   8.6693  11.3185  11.4544
 11.5061  25.8144  44.5117  44.5643  44.5754  44.6100
 --------------------------------------------------------------
 
          Ground-State Mulliken Net Atomic Charges

     Atom                 Charge (a.u.)
  ----------------------------------------
      1 Cl                   -0.788733
      2 O                    -0.396653
      3 H                     0.196734
      4 H                     0.129203
      5 O                    -0.417820
      6 H                     0.202109
      7 H                     0.167844
      8 O                    -0.442664
      9 H                     0.251979
     10 H                     0.133046
     11 O                    -0.441661
     12 H                     0.272212
     13 H                     0.134405
  ----------------------------------------
  Sum of atomic charges =    -1.000000

 -----------------------------------------------------------------
                    Cartesian Multipole Moments
 -----------------------------------------------------------------
    Charge (ESU x 10^10)
                -4.8032
    Dipole Moment (Debye)
         X      -0.1218      Y       2.8217      Z      -0.3296
       Tot       2.8434
    Quadrupole Moments (Debye-Ang)
        XX     -52.3393     XY      -5.3119     YY     -60.8673
        XZ      13.5155     YZ       0.4780     ZZ     -49.8175
    Octopole Moments (Debye-Ang^2)
       XXX       0.1401    XXY      19.7083    XYY      -8.8059
       YYY      27.3933    XXZ       3.6539    XYZ      17.1456
       YYZ       4.1666    XZZ       2.4076    YZZ     -13.3129
       ZZZ      -1.3542
    Hexadecapole Moments (Debye-Ang^3)
      XXXX   -1069.8665   XXXY    -109.4767   XXYY    -385.8241
      XYYY       0.3613   YYYY    -733.7659   XXXZ     150.4501
      XXYZ      -1.3606   XYYZ      36.2762   YYYZ      12.1952
      XXZZ    -210.3009   XYZZ      -3.7613   YYZZ    -176.3108
      XZZZ      31.9652   YZZZ      -8.5930   ZZZZ    -192.8728
 -----------------------------------------------------------------
 Total job time:  750.10s(wall), 2004.20s(cpu) 
 Wed Jan 17 22:44:36 2024

        *************************************************************
        *                                                           *
        *  Thank you very much for using Q-Chem.  Have a nice day.  *
        *                                                           *
        *************************************************************


