
Running Job 1 of 1 122_Cl-Water_Cls_041_almo.in
qchem 122_Cl-Water_Cls_041_almo.in_1031238.0 /scratch/qchem1031238/ 6
/home/kchung25/qchem/5.4.0/exe/qcprog.exe_s 122_Cl-Water_Cls_041_almo.in_1031238.0 /scratch/qchem1031238/
                  Welcome to Q-Chem
     A Quantum Leap Into The Future Of Chemistry


 Q-Chem 5.4, Q-Chem, Inc., Pleasanton, CA (2021)

 E. Epifanovsky,  A. T. B. Gilbert,  Xintian Feng,  Joonho Lee,  Yuezhi Mao,  
 N. Mardirossian,  P. Pokhilko,  A. White,  M. Wormit,  M. P. Coons,  
 A. L. Dempwolff,  Zhengting Gan,  D. Hait,  P. R. Horn,  L. D. Jacobson,  
 I. Kaliman,  J. Kussmann,  A. W. Lange,  Ka Un Lao,  D. S. Levine,  Jie Liu,  
 S. C. McKenzie,  A. F. Morrison,  K. Nanda,  F. Plasser,  D. R. Rehn,  
 M. L. Vidal,  Zhi-Qiang You,  Ying Zhu,  B. Alam,  B. Albrecht,  
 A. Aldossary,  E. Alguire,  J. H. Andersen,  D. Barton,  K. Begam,  A. Behn,  
 Y. A. Bernard,  E. J. Berquist,  H. Burton,  A. Carreras,  K. Carter-Fenk,  
 Romit Chakraborty,  A. D. Chien,  K. D. Closser,  V. Cofer-Shabica,  
 S. Dasgupta,  Jia Deng,  M. de Wergifosse,  M. Diedenhofen,  Hainam Do,  
 S. Ehlert,  Po-Tung Fang,  S. Fatehi,  Qingguo Feng,  T. Friedhoff,  
 J. Gayvert,  Qinghui Ge,  G. Gidofalvi,  M. Goldey,  J. Gomes,  
 C. Gonzalez-Espinoza,  S. Gulania,  A. Gunina,  M. W. D. Hanson-Heine,  
 P. H. P. Harbach,  A. W. Hauser,  M. F. Herbst,  M. Hernandez Vera,  
 M. Hodecker,  Z. C. Holden,  S. Houck,  Xunkun Huang,  Kerwin Hui,  
 B. C. Huynh,  M. Ivanov,  Hyunjun Ji,  Hanjie Jiang,  B. Kaduk,  S. Kaehler,  
 K. Khistyaev,  Jaehoon Kim,  P. Klunzinger,  Z. Koczor-Benda,  
 Joong Hoon Koh,  D. Kosenkov,  L. Koulias,  T. Kowalczyk,  C. M. Krauter,  
 K. Kue,  A. Kunitsa,  T. Kus,  A. Landau,  K. V. Lawler,  D. Lefrancois,  
 S. Lehtola,  Rain Li,  Yi-Pei Li,  Jiashu Liang,  M. Liebenthal,  
 Hung-Hsuan Lin,  You-Sheng Lin,  Fenglai Liu,  Kuan-Yu Liu,  
 M. Loipersberger,  A. Luenser,  A. Manjanath,  P. Manohar,  E. Mansoor,  
 S. F. Manzer,  Shan-Ping Mao,  A. V. Marenich,  T. Markovich,  S. Mason,  
 S. A. Maurer,  P. F. McLaughlin,  M. F. S. J. Menger,  J.-M. Mewes,  
 S. A. Mewes,  P. Morgante,  J. W. Mullinax,  K. J. Oosterbaan,  G. Paran,  
 Alexander C. Paul,  Suranjan K. Paul,  F. Pavosevic,  Zheng Pei,  S. Prager,  
 E. I. Proynov,  E. Ramos,  B. Rana,  A. E. Rask,  A. Rettig,  R. M. Richard,  
 F. Rob,  E. Rossomme,  T. Scheele,  M. Scheurer,  M. Schneider,  
 N. Sergueev,  S. M. Sharada,  W. Skomorowski,  D. W. Small,  C. J. Stein,  
 Yu-Chuan Su,  E. J. Sundstrom,  Zhen Tao,  J. Thirman,  T. Tsuchimochi,  
 N. M. Tubman,  S. P. Veccham,  O. Vydrov,  J. Wenzel,  J. Witte,  A. Yamada,  
 Kun Yao,  S. Yeganeh,  S. R. Yost,  A. Zech,  Igor Ying Zhang,  Xing Zhang,  
 Yu Zhang,  D. Zuev,  A. Aspuru-Guzik,  A. T. Bell,  N. A. Besley,  
 K. B. Bravaya,  B. R. Brooks,  D. Casanova,  Jeng-Da Chai,  S. Coriani,  
 C. J. Cramer,  A. E. DePrince, III,  R. A. DiStasio Jr.,  A. Dreuw,  
 B. D. Dunietz,  T. R. Furlani,  W. A. Goddard III,  S. Grimme,  
 S. Hammes-Schiffer,  T. Head-Gordon,  W. J. Hehre,  Chao-Ping Hsu,  
 T.-C. Jagau,  Yousung Jung,  A. Klamt,  Jing Kong,  D. S. Lambrecht,  
 WanZhen Liang,  N. J. Mayhall,  C. W. McCurdy,  J. B. Neaton,  T. Neudecker,  
 C. Ochsenfeld,  J. A. Parkhill,  R. Peverati,  V. A. Rassolov,  Yihan Shao,  
 L. V. Slipchenko,  R. P. Steele,  J. E. Subotnik,  A. J. W. Thom,  
 A. Tkatchenko,  D. G. Truhlar,  T. Van Voorhis,  T. A. Wesolowski,  
 K. B. Whaley,  H. L. Woodcock III,  P. M. Zimmerman,  S. Faraji,  
 P. M. W. Gill,  M. Head-Gordon,  J. M. Herbert,  A. I. Krylov

 Additional authors since Version 5.4.0: 
 Chandrima Chakravarty,  L. Cunha,  R. Kang,  Yongbin Kim,  S. Kotaru,  
 Shaozhi Li,  Xiangyuan Li,  F. Matz,  A. Molle,  V. Parravicini,  
 Haisheng Ren,  Hengyuan Shen,  Yingli Su,  Hung-Yi Tsai,  C. Utku,  
 Fang Wang,  Jeff Yang,  F. Zeller

 Contributors to earlier versions of Q-Chem not listed above: 
 R. D. Adamson,  B. Austin,  R. Baer,  J. Baker,  G. J. O. Beran,  
 K. Brandhorst,  S. T. Brown,  E. F. C. Byrd,  Arup K. Chakraborty,  
 G. K. L. Chan,  Chun-Min Chang,  Yunqing Chen,  C.-L. Cheng,  
 Siu Hung Chien,  D. M. Chipman,  D. L. Crittenden,  H. Dachsel,  
 R. J. Doerksen,  A. D. Dutoi,  R. G. Edgar,  J. Fosso-Tande,  
 L. Fusti-Molnar,  D. Ghosh,  A. Ghysels,  A. Golubeva-Zadorozhnaya,  
 J. Gonthier,  M. S. Gordon,  S. R. Gwaltney,  G. Hawkins,  J. E. Herr,  
 A. Heyden,  S. Hirata,  E. G. Hohenstein,  G. Kedziora,  F. J. Keil,  
 C. Kelley,  Jihan Kim,  R. A. King,  R. Z. Khaliullin,  P. P. Korambath,  
 W. Kurlancheek,  A. Laurent,  A. M. Lee,  M. S. Lee,  S. V. Levchenko,  
 Ching Yeh Lin,  D. Liotard,  E. Livshits,  R. C. Lochan,  I. Lotan,  
 L. A. Martinez-Martinez,  P. E. Maslen,  N. Nair,  D. P. O'Neill,  
 D. Neuhauser,  E. Neuscamman,  C. M. Oana,  R. Olivares-Amaya,  R. Olson,  
 T. M. Perrine,  B. Peters,  P. A. Pieniazek,  A. Prociuk,  Y. M. Rhee,  
 J. Ritchie,  M. A. Rohrdanz,  E. Rosta,  N. J. Russ,  H. F. Schaefer III,  
 M. W. Schmidt,  N. E. Schultz,  S. Sharma,  N. Shenvi,  C. D. Sherrill,  
 A. C. Simmonett,  A. Sodt,  T. Stein,  D. Stuck,  K. S. Thanthiriwatte,  
 V. Vanovschi,  L. Vogt,  Tao Wang,  A. Warshel,  M. A. Watson,  
 C. F. Williams,  Q. Wu,  X. Xu,  Jun Yang,  W. Zhang,  Yan Zhao

   Please cite Q-Chem as follows:
  "Software for the frontiers of quantum chemistry:
   An overview of developments in the Q-Chem 5 package"
   J. Chem. Phys. 155, 084801 (2021)
   https://doi.org/10.1063/5.0055522 (open access)

 Q-Chem 5.4.2 for Intel X86 EM64T Linux

 Parts of Q-Chem use Armadillo 9.900.5 (Nocturnal Misbehaviour).
 http://arma.sourceforge.net/

 Q-Chem begins on Wed Jan 17 11:36:51 2024  

 Host: 
0

     Scratch files written to /scratch/qchem1031238//
 Dec1321 |scratch|qcdevops|jenkins|workspace|build_RNUM 5684   
 Processing $rem in /home/kchung25/qchem/5.4.0/config/preferences:
 Processing $rem in /home/kchung25/.qchemrc:

 Q-Chem warning in module libgen/rem_setup.C, line 3079:

 Neither GIA nor STOLL is specified by user. Use STOLL as the default


 Checking the input file for inconsistencies... 	...done.

--------------------------------------------------------------
User input:
--------------------------------------------------------------
$molecule
-1 1
--
-1 1
Cl     0.000000     0.000000     0.000000
--
0 1
O      2.247823     1.054428     2.091133
H      1.975481     0.561471     1.348335
H      2.892441     0.520458     2.606351
O      0.349162    -2.885324     1.690405
H      0.406239    -3.703972     1.217566
H      0.590132    -2.160564     1.081020
O      1.622947     1.853072    -2.013003
H      2.373746     1.475204    -2.405921
H      1.243024     1.154997    -1.444838
$end

$rem
JOBTYPE          eda
EDA2             1
METHOD           wB97M-V
BASIS            def2-TZVPPD
SYMMETRY         false
MEM_TOTAL        50000
MEM_STATIC       10000
THRESH           14
SCF_CONVERGENCE  8
XC_GRID          000099000590
NL_GRID          1
EDA_CLS_DISP     true
FD_MAT_VEC_PROD  FALSE
$end
--------------------------------------------------------------
 ----------------------------------------------------------------
             Standard Nuclear Orientation (Angstroms)
    I     Atom           X                Y                Z
 ----------------------------------------------------------------
    1      Cl      0.0444203593     0.7751831396     0.6077086520
    2      O       0.1160291419    -2.4392612091     0.1609608689
    3      H       0.1098443206    -1.5607276902    -0.1505936876
    4      H      -0.4667835254    -2.9831140811    -0.4140690110
    5      O      -3.1275625288     0.4555898083    -0.4604029581
    6      H      -3.4767366819     1.0714742859    -1.0895156449
    7      H      -2.1524298666     0.4756096801    -0.5187910787
    8      O       3.0187517286     0.5622333637    -0.5004516155
    9      H       3.1140374781     0.5471444526    -1.4232521732
   10      H       2.0591754338     0.6430042766    -0.3356758500
 ----------------------------------------------------------------
 Molecular Point Group                 C1    NOp =  1
 Largest Abelian Subgroup              C1    NOp =  1
 Nuclear Repulsion Energy =         145.89862814 hartrees
 There are       24 alpha and       24 beta electrons
 Requested basis set is def2-TZVPPD
 There are 101 shells and 273 basis functions

 Q-Chem warning in module libmdc/get_mega.C, line 171:

 Allowed MEM_STATIC has been capped at MEM_STATIC=8191.
 Reduce the value of MEM_STATIC to silence this warning.


 Total QAlloc Memory Limit  50000 MB
 Mega-Array Size      8007 MB
 MEM_STATIC part      8191 MB

                       Distance Matrix (Angstroms)
             Cl(  1)   O (  2)   H (  3)   H (  4)   O (  5)   H (  6)
   O (  2)  3.246131
   H (  3)  2.456783  0.932162
   H (  4)  3.928124  0.982907  1.557274
   O (  5)  3.362213  4.391713  3.826529  4.348169
   H (  6)  3.920064  5.176574  4.546826  5.094677  0.947111
   H (  7)  2.486945  3.755588  3.065962  3.849044  0.977084  1.560311
   O (  8)  3.181197  4.227557  3.618163  4.972515  6.147370  6.541995
   H (  9)  3.687730  4.518451  3.884322  5.128689  6.316093  6.620016
   H ( 10)  2.228606  3.677340  2.947979  4.419881  5.191621  5.603408
             H (  7)   O (  8)   H (  9)
   O (  8)  5.171940
   H (  9)  5.344048  0.927830
   H ( 10)  4.218906  0.976966  1.518139
 
 A cutoff of  1.0D-14 yielded   4456 shell pairs
 There are     32114 function pairs (     39471 Cartesian)
 Smallest overlap matrix eigenvalue = 2.76E-04

 Scale SEOQF with 1.000000e-01/1.000000e-01/1.000000e-01

 Standard Electronic Orientation quadrupole field applied
 Nucleus-field energy     =     0.0000000104 hartrees

 -----------------------------------------------------------------------
  General SCF calculation program by
  Eric Jon Sundstrom, Paul Horn, Yuezhi Mao, Dmitri Zuev, Alec White,
  David Stuck, Shaama M.S., Shane Yost, Joonho Lee, David Small,
  Daniel Levine, Susi Lehtola, Hugh Burton, Evgeny Epifanovsky,
  Bang C. Huynh
 -----------------------------------------------------------------------
================================================================
                 ALMO-EDA with the EDA2 driver                  
================================================================
 The second-generation ALMO-EDA (for DFT):                      
 P. R. Horn, Y. Mao and M. Head-Gordon, PCCP, 18, 23067 (2016)  
 Y. Mao et al. Annu. Rev. Phys. Chem. 72, 641 (2021)            
 Decomposition of the frozen energy:                            
 P. R. Horn, Y. Mao and M. Head-Gordon, JCP, 144, 114107 (2016) 
 FERF model for polarization:                                   
 P. R. Horn and M. Head-Gordon, JCP, 143, 114111 (2015)         
================================================================
 Using eda2 option set 1
 Option set summary: Frozen orbital wavefunction, initial wavefunction decomposition, and nDQ polarization.
--------------------------------
Printing EDA Options
--------------------------------
eda_child_super_basis      0
fragmo_guess_mode          0
child_mp                   1
child_mp_orders            232
cls_elec                   1
cls_disp                   1
scfmi_mode                 1
scfmi_occs                 0
scfmi_virts                0
frz_relax                  0
frz_relax_method           0
dc_pen_start               0
dc_pen_conv                0
dc_pen_increment           0
dc_pen_steps               0
dc_pen_thresh_factor       0
dc_pen_pre_newton_thresh   0
frz_ortho_decomp           1
frz_ortho_decomp_conv      6
plot_mo_ortho_frz          0
frgm_method                2
scfmi_freeze_ss            0
separate_rehyb             0
plot_diff_den              0
eda_nocv                   0
eda_vct_relax              1
disp_free_x                0
disp_free_c                0
eda_bsse                   0
eda_pct_a                  0
eda_covp                   0
--------------------------------
Attempting to make child job directory: /scratch/qchem1031238//Frg1/
Attempting to make child job directory: /scratch/qchem1031238//Frg2/
Creating input file /scratch/qchem1031238/Frg1.input
using default PutDataFrgm: nothing
calling putenv with: QCSCRATCH=/scratch/qchem1031238/ 
Spawning Job For Fragment 0
Done Job For Fragment 0
calling putenv with: QCSCRATCH=/scratch 
calling putenv with: QCTHREADS=6 
Creating input file /scratch/qchem1031238/Frg2.input
using default PutDataFrgm: nothing
calling putenv with: QCSCRATCH=/scratch/qchem1031238/ 
Spawning Job For Fragment 1
Done Job For Fragment 1
calling putenv with: QCSCRATCH=/scratch 
calling putenv with: QCTHREADS=6 
Doing General SCFMI
 Exchange:     0.1500 Hartree-Fock + 1.0000 wB97M-V + LR-HF
 Correlation:  1.0000 wB97M-V
 Using Euler-Maclaurin-Lebedev (99,590) quadrature formula
 Nonlocal Correlation:  VV10 with C = 0.0100 and b = 6.00 and scale = 1.00000
 Grid used for NLC:  SG-1 standard quadrature
performing fock build before subrot guess so that all methods have access
Printing subrot_rss_gen Method Specification:
Occupied Subspace Method is 0
Virtual Subspace Method is 0
Energy of the unrelaxed supersystem initial determinant -689.587238913300
write pseudocanon occs and virts to disk
write pseudocanon orbital energies to disk
Tolerance of ortho_decomp_scf: 1.00e-06
GDM subspace size: 20
Beginning the Orthogonal Decomposition of the Initial Supersystem Wavefunction
    1    -689.4413342105      2.80e-01     ortho_decomp Preconditoned Steepest Descent
    2    -689.4720229203      3.51e-03     ortho_decomp BFGS Step
    3    -689.4720519158      2.22e-04     ortho_decomp BFGS Step
    4    -689.4720520155      9.70e-06     ortho_decomp BFGS Step
    5    -689.4720520156      2.14e-07     ortho_decomp 00000 Convergence criterion met
 Hartree-Fock
 Hartree-Fock
 Hartree-Fock
 Exchange:     0.1500 Hartree-Fock + 1.0000 wB97M-V + LR-HF
 Correlation:  1.0000 wB97M-V
 Using Euler-Maclaurin-Lebedev (99,590) quadrature formula
 Nonlocal Correlation:  VV10 with C = 0.0100 and b = 6.00 and scale = 1.00000
 Grid used for NLC:  SG-1 standard quadrature
 Long-range K will be added via erf
 Coulomb attenuation parameter = 0.3 bohr**(-1)
 Nonlocal correlation = 1.994852374099e-01
Doing General SCFMI
 Exchange:     0.1500 Hartree-Fock + 1.0000 wB97M-V + LR-HF
 Correlation:  1.0000 wB97M-V
 Using Euler-Maclaurin-Lebedev (99,590) quadrature formula
 Nonlocal Correlation:  VV10 with C = 0.0100 and b = 6.00 and scale = 1.00000
 Grid used for NLC:  SG-1 standard quadrature
performing fock build at end of subrot_r(subrot) constructor so that all methods have access
<S^2> of initial wavefunction before polarization iterations 0.0000000000
Beginning iterations for the determination of the polarized wavefunction
Energy prior to optimization (guess energy) = -689.587238913300
Begin Timing: Total SCF Calculation
begin iterations for algorithm: DIIS         
the SCF tolerance is set to 1.00e-08
    1    -689.5872389133      7.42e-04     00000 
    2    -689.5997778981      2.90e-04     00000 
    3    -689.6009042165      1.18e-04     00000 
    4    -689.6011472000      5.14e-05     00000 
    5    -689.6011980709      2.18e-05     00000 
    6    -689.6012087059      7.07e-06     00000 
    7    -689.6012104900      2.45e-06     00000 
    8    -689.6012107253      7.72e-07     00000 
    9    -689.6012107390      4.26e-07     00000 
   10    -689.6012107416      2.16e-07     00000 
   11    -689.6012107421      1.05e-07     00000 
   12    -689.6012107421      4.17e-08     00000 
   13    -689.6012107422      1.25e-08     00000 
   14    -689.6012107422      5.21e-09     00000 Convergence criterion met
write pseudocanon occs and virts to disk
write pseudocanon orbital energies to disk
Timing for Total SCF: 61.00s (wall), 363.05s (cpu)
<S^2> of polarized wavefunction after polarization iterations 0.0000000000
relaxing scfmi constraint to allow all rotations in the entire AO span
Doing General SCFMI
 Exchange:     0.1500 Hartree-Fock + 1.0000 wB97M-V + LR-HF
 Correlation:  1.0000 wB97M-V
 Using Euler-Maclaurin-Lebedev (99,590) quadrature formula
 Nonlocal Correlation:  VV10 with C = 0.0100 and b = 6.00 and scale = 1.00000
 Grid used for NLC:  SG-1 standard quadrature
performing fock build at end of subrot_r(subrot) constructor so that all methods have access
<S^2> of polarized wavefunction before ct-allowed iterations 0.0000000000
Beginning iterations for the determination of the CT-Allowed wavefunction
Energy prior to optimization (guess energy) = -689.601210742162
Begin Timing: Total SCF Calculation
begin iterations for algorithm: DIIS         
the SCF tolerance is set to 1.00e-08
    1    -689.6012107422      4.66e-04     00000 
    2    -689.6114223485      7.78e-05     00000 
    3    -689.6119007960      3.55e-05     00000 
    4    -689.6119399016      1.31e-05     00000 
    5    -689.6119468696      4.76e-06     00000 
    6    -689.6119476023      8.04e-07     00000 
    7    -689.6119476892      1.66e-07     00000 
    8    -689.6119476928      5.07e-08     00000 
    9    -689.6119476930      2.18e-08     00000 
   10    -689.6119476930      7.85e-09     00000 Convergence criterion met
write pseudocanon occs and virts to disk
write pseudocanon orbital energies to disk
Timing for Total SCF: 42.00s (wall), 251.38s (cpu)
<S^2> of ct_allowed wavefunction after ct-allowed iterations 0.0000000000

================================
        Results of EDA2         
================================
Basic EDA Quantities
--------------------
Fragment Energies (Ha):
1 -460.2597934915
2 -229.3026150925
--------------------
  E_prp (kJ/mol) = -0.0000
  E_frz (kJ/mol) = -65.1928
  E_pol (kJ/mol) = -36.6835
  E_vct (kJ/mol) = -28.1902
  E_int (kJ/mol) = -130.0665
--------------------


Decomposition of frozen interaction energy
--------------------
  --------------------
  Orthogonal Frozen Decomposition:
  --------------------
     E_elec   (ELEC)   (kJ/mol) = -224.1267
     E_pauli  (PAULI)  (kJ/mol) = 186.4192
     E_disp   (DISP)   (kJ/mol) = -27.4853
  --------------------
  Classical Frozen Decomposition:
  --------------------
     E_cls_elec  (CLS ELEC)  (kJ/mol) = -141.7976
     E_mod_pauli (MOD PAULI) (kJ/mol) = 103.1763 (FRZ - CLS ELEC - CLS DISP)
     E_cls_disp  (CLS DISP)  (kJ/mol) = -26.5716
  --------------------
--------------------

Simplified EDA Summary (kJ/mol)
--------------------
 PREPARATION      -0.0000
 FROZEN           -65.1928 (ELEC + PAULI + DISP)
[ELEC + PAULI = -38.6212, DISP = -26.5716]
 POLARIZATION    -36.6835
 CHARGE TRANSFER -28.1902
 TOTAL           -130.0665     (PRP + FRZ + POL + CT)
--------------------
 
 --------------------------------------------------------------
 
                    Orbital Energies (a.u.)
 --------------------------------------------------------------
 
 Alpha MOs
 -- Occupied --
******** -19.1878 -19.1795 -19.1670  -9.3726  -7.0721  -7.0720  -7.0715
 -0.9924  -0.9859  -0.9801  -0.6574  -0.4992  -0.4942  -0.4799  -0.3525
 -0.3439  -0.3415  -0.2821  -0.2740  -0.2653  -0.1787  -0.1785  -0.1736
 -- Virtual --
  0.1467   0.1542   0.1595   0.1904   0.1956   0.2030   0.2098   0.2192
  0.2241   0.2370   0.2423   0.2511   0.2665   0.2914   0.2967   0.3207
  0.3232   0.3477   0.3610   0.3662   0.3704   0.3855   0.3892   0.3981
  0.4051   0.4095   0.4150   0.4230   0.4455   0.4478   0.4647   0.4745
  0.4858   0.4938   0.4992   0.5115   0.5223   0.5293   0.5393   0.5592
  0.5700   0.5953   0.6018   0.6130   0.6210   0.6319   0.6347   0.6427
  0.6571   0.6617   0.6700   0.6775   0.6975   0.7208   0.7327   0.7358
  0.7514   0.7850   0.7974   0.8102   0.8585   0.8657   0.8968   0.9070
  0.9221   0.9300   0.9387   0.9446   0.9482   0.9588   0.9840   0.9900
  1.0030   1.0054   1.0340   1.0500   1.0617   1.0678   1.0838   1.0927
  1.1088   1.1183   1.1314   1.2115   1.2238   1.2395   1.2450   1.2840
  1.2994   1.3029   1.3366   1.3522   1.3559   1.3648   1.3766   1.4067
  1.4158   1.4391   1.4501   1.5300   1.5387   1.5830   1.6147   1.6577
  1.7482   2.0678   2.0835   2.0877   2.1369   2.1533   2.1681   2.1838
  2.1875   2.2031   2.2479   2.2916   2.3000   2.3277   2.3360   2.3502
  2.3754   2.3824   2.3982   2.4148   2.4430   2.4475   2.4621   2.4831
  2.5114   2.5599   2.5948   2.6920   2.7292   2.7652   2.7909   2.8028
  2.8776   2.9199   2.9455   2.9720   3.0150   3.0807   3.1367   3.1717
  3.3322   3.3483   3.3703   3.3813   3.3995   3.4178   3.4575   3.4699
  3.4865   3.5488   3.5497   3.5974   3.6042   3.6089   3.6212   3.6431
  3.6526   3.7234   3.7295   3.8129   3.8471   3.8837   3.9142   4.0555
  4.0643   4.0702   4.0814   4.1094   4.1299   4.1340   4.1796   4.2010
  4.2075   4.2632   4.2687   4.2888   4.3578   4.3838   4.3958   4.4164
  4.4365   4.4392   4.4469   4.4589   4.4957   4.8996   4.9037   4.9275
  4.9291   4.9641   4.9933   5.1693   5.1746   5.2247   5.3411   5.3924
  5.4171   5.8357   5.8522   5.8901   6.3320   6.3474   6.4526   6.6776
  6.6831   6.6945   6.7580   6.7782   6.7857   6.8185   6.8540   6.8647
  6.8696   6.8750   6.8969   6.9266   6.9341   6.9695   7.0281   7.0600
  7.0825   7.2671   7.2791   7.2893   7.6480   7.6725   7.7267   7.7434
  7.7635   7.8473   8.0275   8.0622   8.0685   8.5381   8.5412   8.5578
  8.6122   8.6510  11.3144  11.3986  11.4910  25.7625  44.4932  44.5577
 44.6268
 --------------------------------------------------------------
 
          Ground-State Mulliken Net Atomic Charges

     Atom                 Charge (a.u.)
  ----------------------------------------
      1 Cl                   -0.810079
      2 O                    -0.373190
      3 H                     0.165454
      4 H                     0.156601
      5 O                    -0.405888
      6 H                     0.121070
      7 H                     0.223053
      8 O                    -0.407256
      9 H                     0.089546
     10 H                     0.240688
  ----------------------------------------
  Sum of atomic charges =    -1.000000

 -----------------------------------------------------------------
                    Cartesian Multipole Moments
 -----------------------------------------------------------------
    Charge (ESU x 10^10)
                -4.8032
    Dipole Moment (Debye)
         X      -1.7310      Y      -1.0407      Z      -5.0353
       Tot       5.4253
    Quadrupole Moments (Debye-Ang)
        XX     -56.5078     XY      -1.2034     YY     -43.2027
        XZ       0.3402     YZ      -0.4751     ZZ     -35.6495
    Octopole Moments (Debye-Ang^2)
       XXX     -15.9838    XXY       1.6586    XYY     -18.0794
       YYY      -7.7670    XXZ     -19.5933    XYZ       3.5653
       YYZ     -14.6306    XZZ       3.9276    YZZ       0.1190
       ZZZ     -13.5107
    Hexadecapole Moments (Debye-Ang^3)
      XXXX   -1054.3506   XXXY     -64.1673   XXYY    -203.6410
      XYYY      21.3716   YYYY    -382.3155   XXXZ       6.9134
      XXYZ     -27.7294   XYYZ      12.5883   YYYZ      18.5514
      XXZZ    -120.2620   XYZZ      -3.2025   YYZZ     -82.5738
      XZZZ     -10.2262   YZZZ      -9.7513   ZZZZ    -105.3336
 -----------------------------------------------------------------
 Total job time:  369.50s(wall), 1068.84s(cpu) 
 Wed Jan 17 11:43:01 2024

        *************************************************************
        *                                                           *
        *  Thank you very much for using Q-Chem.  Have a nice day.  *
        *                                                           *
        *************************************************************


