
Running Job 1 of 1 122_Cl-Water_Cls_028_almo.in
qchem 122_Cl-Water_Cls_028_almo.in_1029941.0 /scratch/qchem1029941/ 6
/home/kchung25/qchem/5.4.0/exe/qcprog.exe_s 122_Cl-Water_Cls_028_almo.in_1029941.0 /scratch/qchem1029941/
                  Welcome to Q-Chem
     A Quantum Leap Into The Future Of Chemistry


 Q-Chem 5.4, Q-Chem, Inc., Pleasanton, CA (2021)

 E. Epifanovsky,  A. T. B. Gilbert,  Xintian Feng,  Joonho Lee,  Yuezhi Mao,  
 N. Mardirossian,  P. Pokhilko,  A. White,  M. Wormit,  M. P. Coons,  
 A. L. Dempwolff,  Zhengting Gan,  D. Hait,  P. R. Horn,  L. D. Jacobson,  
 I. Kaliman,  J. Kussmann,  A. W. Lange,  Ka Un Lao,  D. S. Levine,  Jie Liu,  
 S. C. McKenzie,  A. F. Morrison,  K. Nanda,  F. Plasser,  D. R. Rehn,  
 M. L. Vidal,  Zhi-Qiang You,  Ying Zhu,  B. Alam,  B. Albrecht,  
 A. Aldossary,  E. Alguire,  J. H. Andersen,  D. Barton,  K. Begam,  A. Behn,  
 Y. A. Bernard,  E. J. Berquist,  H. Burton,  A. Carreras,  K. Carter-Fenk,  
 Romit Chakraborty,  A. D. Chien,  K. D. Closser,  V. Cofer-Shabica,  
 S. Dasgupta,  Jia Deng,  M. de Wergifosse,  M. Diedenhofen,  Hainam Do,  
 S. Ehlert,  Po-Tung Fang,  S. Fatehi,  Qingguo Feng,  T. Friedhoff,  
 J. Gayvert,  Qinghui Ge,  G. Gidofalvi,  M. Goldey,  J. Gomes,  
 C. Gonzalez-Espinoza,  S. Gulania,  A. Gunina,  M. W. D. Hanson-Heine,  
 P. H. P. Harbach,  A. W. Hauser,  M. F. Herbst,  M. Hernandez Vera,  
 M. Hodecker,  Z. C. Holden,  S. Houck,  Xunkun Huang,  Kerwin Hui,  
 B. C. Huynh,  M. Ivanov,  Hyunjun Ji,  Hanjie Jiang,  B. Kaduk,  S. Kaehler,  
 K. Khistyaev,  Jaehoon Kim,  P. Klunzinger,  Z. Koczor-Benda,  
 Joong Hoon Koh,  D. Kosenkov,  L. Koulias,  T. Kowalczyk,  C. M. Krauter,  
 K. Kue,  A. Kunitsa,  T. Kus,  A. Landau,  K. V. Lawler,  D. Lefrancois,  
 S. Lehtola,  Rain Li,  Yi-Pei Li,  Jiashu Liang,  M. Liebenthal,  
 Hung-Hsuan Lin,  You-Sheng Lin,  Fenglai Liu,  Kuan-Yu Liu,  
 M. Loipersberger,  A. Luenser,  A. Manjanath,  P. Manohar,  E. Mansoor,  
 S. F. Manzer,  Shan-Ping Mao,  A. V. Marenich,  T. Markovich,  S. Mason,  
 S. A. Maurer,  P. F. McLaughlin,  M. F. S. J. Menger,  J.-M. Mewes,  
 S. A. Mewes,  P. Morgante,  J. W. Mullinax,  K. J. Oosterbaan,  G. Paran,  
 Alexander C. Paul,  Suranjan K. Paul,  F. Pavosevic,  Zheng Pei,  S. Prager,  
 E. I. Proynov,  E. Ramos,  B. Rana,  A. E. Rask,  A. Rettig,  R. M. Richard,  
 F. Rob,  E. Rossomme,  T. Scheele,  M. Scheurer,  M. Schneider,  
 N. Sergueev,  S. M. Sharada,  W. Skomorowski,  D. W. Small,  C. J. Stein,  
 Yu-Chuan Su,  E. J. Sundstrom,  Zhen Tao,  J. Thirman,  T. Tsuchimochi,  
 N. M. Tubman,  S. P. Veccham,  O. Vydrov,  J. Wenzel,  J. Witte,  A. Yamada,  
 Kun Yao,  S. Yeganeh,  S. R. Yost,  A. Zech,  Igor Ying Zhang,  Xing Zhang,  
 Yu Zhang,  D. Zuev,  A. Aspuru-Guzik,  A. T. Bell,  N. A. Besley,  
 K. B. Bravaya,  B. R. Brooks,  D. Casanova,  Jeng-Da Chai,  S. Coriani,  
 C. J. Cramer,  A. E. DePrince, III,  R. A. DiStasio Jr.,  A. Dreuw,  
 B. D. Dunietz,  T. R. Furlani,  W. A. Goddard III,  S. Grimme,  
 S. Hammes-Schiffer,  T. Head-Gordon,  W. J. Hehre,  Chao-Ping Hsu,  
 T.-C. Jagau,  Yousung Jung,  A. Klamt,  Jing Kong,  D. S. Lambrecht,  
 WanZhen Liang,  N. J. Mayhall,  C. W. McCurdy,  J. B. Neaton,  T. Neudecker,  
 C. Ochsenfeld,  J. A. Parkhill,  R. Peverati,  V. A. Rassolov,  Yihan Shao,  
 L. V. Slipchenko,  R. P. Steele,  J. E. Subotnik,  A. J. W. Thom,  
 A. Tkatchenko,  D. G. Truhlar,  T. Van Voorhis,  T. A. Wesolowski,  
 K. B. Whaley,  H. L. Woodcock III,  P. M. Zimmerman,  S. Faraji,  
 P. M. W. Gill,  M. Head-Gordon,  J. M. Herbert,  A. I. Krylov

 Additional authors since Version 5.4.0: 
 Chandrima Chakravarty,  L. Cunha,  R. Kang,  Yongbin Kim,  S. Kotaru,  
 Shaozhi Li,  Xiangyuan Li,  F. Matz,  A. Molle,  V. Parravicini,  
 Haisheng Ren,  Hengyuan Shen,  Yingli Su,  Hung-Yi Tsai,  C. Utku,  
 Fang Wang,  Jeff Yang,  F. Zeller

 Contributors to earlier versions of Q-Chem not listed above: 
 R. D. Adamson,  B. Austin,  R. Baer,  J. Baker,  G. J. O. Beran,  
 K. Brandhorst,  S. T. Brown,  E. F. C. Byrd,  Arup K. Chakraborty,  
 G. K. L. Chan,  Chun-Min Chang,  Yunqing Chen,  C.-L. Cheng,  
 Siu Hung Chien,  D. M. Chipman,  D. L. Crittenden,  H. Dachsel,  
 R. J. Doerksen,  A. D. Dutoi,  R. G. Edgar,  J. Fosso-Tande,  
 L. Fusti-Molnar,  D. Ghosh,  A. Ghysels,  A. Golubeva-Zadorozhnaya,  
 J. Gonthier,  M. S. Gordon,  S. R. Gwaltney,  G. Hawkins,  J. E. Herr,  
 A. Heyden,  S. Hirata,  E. G. Hohenstein,  G. Kedziora,  F. J. Keil,  
 C. Kelley,  Jihan Kim,  R. A. King,  R. Z. Khaliullin,  P. P. Korambath,  
 W. Kurlancheek,  A. Laurent,  A. M. Lee,  M. S. Lee,  S. V. Levchenko,  
 Ching Yeh Lin,  D. Liotard,  E. Livshits,  R. C. Lochan,  I. Lotan,  
 L. A. Martinez-Martinez,  P. E. Maslen,  N. Nair,  D. P. O'Neill,  
 D. Neuhauser,  E. Neuscamman,  C. M. Oana,  R. Olivares-Amaya,  R. Olson,  
 T. M. Perrine,  B. Peters,  P. A. Pieniazek,  A. Prociuk,  Y. M. Rhee,  
 J. Ritchie,  M. A. Rohrdanz,  E. Rosta,  N. J. Russ,  H. F. Schaefer III,  
 M. W. Schmidt,  N. E. Schultz,  S. Sharma,  N. Shenvi,  C. D. Sherrill,  
 A. C. Simmonett,  A. Sodt,  T. Stein,  D. Stuck,  K. S. Thanthiriwatte,  
 V. Vanovschi,  L. Vogt,  Tao Wang,  A. Warshel,  M. A. Watson,  
 C. F. Williams,  Q. Wu,  X. Xu,  Jun Yang,  W. Zhang,  Yan Zhao

   Please cite Q-Chem as follows:
  "Software for the frontiers of quantum chemistry:
   An overview of developments in the Q-Chem 5 package"
   J. Chem. Phys. 155, 084801 (2021)
   https://doi.org/10.1063/5.0055522 (open access)

 Q-Chem 5.4.2 for Intel X86 EM64T Linux

 Parts of Q-Chem use Armadillo 9.900.5 (Nocturnal Misbehaviour).
 http://arma.sourceforge.net/

 Q-Chem begins on Wed Jan 17 06:58:40 2024  

 Host: 
0

     Scratch files written to /scratch/qchem1029941//
 Dec1321 |scratch|qcdevops|jenkins|workspace|build_RNUM 5684   
 Processing $rem in /home/kchung25/qchem/5.4.0/config/preferences:
 Processing $rem in /home/kchung25/.qchemrc:

 Q-Chem warning in module libgen/rem_setup.C, line 3079:

 Neither GIA nor STOLL is specified by user. Use STOLL as the default


 Checking the input file for inconsistencies... 	...done.

--------------------------------------------------------------
User input:
--------------------------------------------------------------
$molecule
-1 1
--
-1 1
Cl     0.000000     0.000000     0.000000
--
0 1
O      1.179099    -2.702793    -1.094667
H      0.929403    -2.029129    -0.462359
H      1.092980    -3.573515    -0.633220
O      0.081134    -0.715370     3.048829
H      0.119206    -0.799922     2.117339
H      0.247800     0.236344     3.210993
O      3.112573     0.441417     0.245605
H      3.060093     0.433467     1.176247
H      2.153407     0.499648    -0.068952
O      1.136783     3.068748     0.881171
H      0.679395     2.461157     0.268662
H      1.062669     3.915090     0.427493
$end

$rem
JOBTYPE          eda
EDA2             1
METHOD           wB97M-V
BASIS            def2-TZVPPD
SYMMETRY         false
MEM_TOTAL        50000
MEM_STATIC       10000
THRESH           14
SCF_CONVERGENCE  8
XC_GRID          000099000590
NL_GRID          1
EDA_CLS_DISP     true
FD_MAT_VEC_PROD  FALSE
$end
--------------------------------------------------------------
 ----------------------------------------------------------------
             Standard Nuclear Orientation (Angstroms)
    I     Atom           X                Y                Z
 ----------------------------------------------------------------
    1      Cl      0.2493573939     0.1411780873     1.0426602024
    2      O       3.0839224541    -0.8314583193     0.0872128549
    3      H       2.2655471218    -0.3352535256     0.0924380287
    4      H       3.7765504429    -0.2358994258    -0.2923694035
    5      O      -0.0022014540     2.6193447111    -0.8571038789
    6      H       0.3592386609     1.8896589480    -0.3953768292
    7      H      -0.9661393933     2.4445044525    -0.8665266895
    8      O      -0.4254597273    -1.5990426349    -1.4989013561
    9      H      -0.6978484630    -0.8418095024    -1.9693418356
   10      H      -0.3295887175    -1.2901298337    -0.5409253637
   11      O      -3.0024912730    -0.4974664266     0.3330366118
   12      H      -2.2119829473    -0.5749223612     0.9010463355
   13      H      -3.6650124002    -0.9871948786     0.8318784635
 ----------------------------------------------------------------
 Molecular Point Group                 C1    NOp =  1
 Largest Abelian Subgroup              C1    NOp =  1
 Nuclear Repulsion Energy =         226.49631599 hartrees
 There are       29 alpha and       29 beta electrons
 Requested basis set is def2-TZVPPD
 There are 129 shells and 347 basis functions

 Q-Chem warning in module libmdc/get_mega.C, line 171:

 Allowed MEM_STATIC has been capped at MEM_STATIC=8191.
 Reduce the value of MEM_STATIC to silence this warning.


 Total QAlloc Memory Limit  50000 MB
 Mega-Array Size      8007 MB
 MEM_STATIC part      8191 MB

                       Distance Matrix (Angstroms)
             Cl(  1)   O (  2)   H (  3)   H (  4)   O (  5)   H (  6)
   O (  2)  3.145419
   H (  3)  2.279239  0.957071
   H (  4)  3.790196  0.989195  1.562395
   O (  5)  3.132682  4.724821  3.843691  4.769729
   H (  6)  2.266541  3.880886  2.970221  4.025746  0.936094
   H (  7)  3.229201  5.295711  4.369264  5.477895  0.979711  1.512105
   O (  8)  3.153297  3.926921  3.372098  4.579385  4.287872  3.742266
   H (  9)  3.306905  4.304801  3.645442  4.816597  3.701430  3.325014
   H ( 10)  2.211688  3.500999  2.836841  4.246594  3.935879  3.256797
   O ( 11)  3.389093  6.100526  5.276024  6.812852  4.486946  4.186906
   H ( 12)  2.567304  5.364210  4.556266  6.115694  4.263516  3.790258
   H ( 13)  4.079209  6.791679  6.011933  7.563414  5.410728  5.096768
             H (  7)   O (  8)   H (  9)   H ( 10)   O ( 11)   H ( 12)
   O (  8)  4.128257
   H (  9)  3.476786  0.932154
   H ( 10)  3.802461  1.011107  1.541746
   O ( 11)  3.773708  3.348217  3.275805  2.921735
   H ( 12)  3.713944  3.162315  3.256219  2.476734  0.976493
   H ( 13)  4.684555  4.037523  4.083140  3.619587  0.963126  1.511968

 
 A cutoff of  1.0D-14 yielded   7296 shell pairs
 There are     52160 function pairs (     63943 Cartesian)
 Smallest overlap matrix eigenvalue = 2.33E-04

 Scale SEOQF with 1.000000e-01/1.000000e-01/1.000000e-01

 Standard Electronic Orientation quadrupole field applied
 Nucleus-field energy     =     0.0000000083 hartrees

 -----------------------------------------------------------------------
  General SCF calculation program by
  Eric Jon Sundstrom, Paul Horn, Yuezhi Mao, Dmitri Zuev, Alec White,
  David Stuck, Shaama M.S., Shane Yost, Joonho Lee, David Small,
  Daniel Levine, Susi Lehtola, Hugh Burton, Evgeny Epifanovsky,
  Bang C. Huynh
 -----------------------------------------------------------------------
================================================================
                 ALMO-EDA with the EDA2 driver                  
================================================================
 The second-generation ALMO-EDA (for DFT):                      
 P. R. Horn, Y. Mao and M. Head-Gordon, PCCP, 18, 23067 (2016)  
 Y. Mao et al. Annu. Rev. Phys. Chem. 72, 641 (2021)            
 Decomposition of the frozen energy:                            
 P. R. Horn, Y. Mao and M. Head-Gordon, JCP, 144, 114107 (2016) 
 FERF model for polarization:                                   
 P. R. Horn and M. Head-Gordon, JCP, 143, 114111 (2015)         
================================================================
 Using eda2 option set 1
 Option set summary: Frozen orbital wavefunction, initial wavefunction decomposition, and nDQ polarization.
--------------------------------
Printing EDA Options
--------------------------------
eda_child_super_basis      0
fragmo_guess_mode          0
child_mp                   1
child_mp_orders            232
cls_elec                   1
cls_disp                   1
scfmi_mode                 1
scfmi_occs                 0
scfmi_virts                0
frz_relax                  0
frz_relax_method           0
dc_pen_start               0
dc_pen_conv                0
dc_pen_increment           0
dc_pen_steps               0
dc_pen_thresh_factor       0
dc_pen_pre_newton_thresh   0
frz_ortho_decomp           1
frz_ortho_decomp_conv      6
plot_mo_ortho_frz          0
frgm_method                2
scfmi_freeze_ss            0
separate_rehyb             0
plot_diff_den              0
eda_nocv                   0
eda_vct_relax              1
disp_free_x                0
disp_free_c                0
eda_bsse                   0
eda_pct_a                  0
eda_covp                   0
--------------------------------
Attempting to make child job directory: /scratch/qchem1029941//Frg1/
Attempting to make child job directory: /scratch/qchem1029941//Frg2/
Creating input file /scratch/qchem1029941/Frg1.input
using default PutDataFrgm: nothing
calling putenv with: QCSCRATCH=/scratch/qchem1029941/ 
Spawning Job For Fragment 0
Done Job For Fragment 0
calling putenv with: QCSCRATCH=/scratch 
calling putenv with: QCTHREADS=6 
Creating input file /scratch/qchem1029941/Frg2.input
using default PutDataFrgm: nothing
calling putenv with: QCSCRATCH=/scratch/qchem1029941/ 
Spawning Job For Fragment 1
Done Job For Fragment 1
calling putenv with: QCSCRATCH=/scratch 
calling putenv with: QCTHREADS=6 
Doing General SCFMI
 Exchange:     0.1500 Hartree-Fock + 1.0000 wB97M-V + LR-HF
 Correlation:  1.0000 wB97M-V
 Using Euler-Maclaurin-Lebedev (99,590) quadrature formula
 Nonlocal Correlation:  VV10 with C = 0.0100 and b = 6.00 and scale = 1.00000
 Grid used for NLC:  SG-1 standard quadrature
performing fock build before subrot guess so that all methods have access
Printing subrot_rss_gen Method Specification:
Occupied Subspace Method is 0
Virtual Subspace Method is 0
Energy of the unrelaxed supersystem initial determinant -766.031172288999
write pseudocanon occs and virts to disk
write pseudocanon orbital energies to disk
Tolerance of ortho_decomp_scf: 1.00e-06
GDM subspace size: 20
Beginning the Orthogonal Decomposition of the Initial Supersystem Wavefunction
    1    -765.7955645829      3.13e-01     ortho_decomp Preconditoned Steepest Descent
    2    -765.8466928434      4.14e-03     ortho_decomp BFGS Step
    3    -765.8467500317      2.87e-04     ortho_decomp BFGS Step
    4    -765.8467502367      1.25e-05     ortho_decomp BFGS Step
    5    -765.8467502369      2.89e-07     ortho_decomp 00000 Convergence criterion met
 Hartree-Fock
 Hartree-Fock
 Hartree-Fock
 Exchange:     0.1500 Hartree-Fock + 1.0000 wB97M-V + LR-HF
 Correlation:  1.0000 wB97M-V
 Using Euler-Maclaurin-Lebedev (99,590) quadrature formula
 Nonlocal Correlation:  VV10 with C = 0.0100 and b = 6.00 and scale = 1.00000
 Grid used for NLC:  SG-1 standard quadrature
 Long-range K will be added via erf
 Coulomb attenuation parameter = 0.3 bohr**(-1)
 Nonlocal correlation = 2.393757577894e-01
Doing General SCFMI
 Exchange:     0.1500 Hartree-Fock + 1.0000 wB97M-V + LR-HF
 Correlation:  1.0000 wB97M-V
 Using Euler-Maclaurin-Lebedev (99,590) quadrature formula
 Nonlocal Correlation:  VV10 with C = 0.0100 and b = 6.00 and scale = 1.00000
 Grid used for NLC:  SG-1 standard quadrature
performing fock build at end of subrot_r(subrot) constructor so that all methods have access
<S^2> of initial wavefunction before polarization iterations 0.0000000000
Beginning iterations for the determination of the polarized wavefunction
Energy prior to optimization (guess energy) = -766.031172288999
Begin Timing: Total SCF Calculation
begin iterations for algorithm: DIIS         
the SCF tolerance is set to 1.00e-08
    1    -766.0311722890      6.71e-04     00000 
    2    -766.0474966411      2.49e-04     00000 
    3    -766.0489921282      9.84e-05     00000 
    4    -766.0493245674      4.45e-05     00000 
    5    -766.0494028355      2.13e-05     00000 
    6    -766.0494229287      8.31e-06     00000 
    7    -766.0494278065      3.39e-06     00000 
    8    -766.0494286646      1.26e-06     00000 
    9    -766.0494287181      8.01e-07     00000 
   10    -766.0494287257      5.01e-07     00000 
   11    -766.0494287282      2.40e-07     00000 
   12    -766.0494287292      1.13e-07     00000 
   13    -766.0494287296      3.71e-08     00000 
   14    -766.0494287297      1.84e-08     00000 
   15    -766.0494287297      1.12e-08     00000 
   16    -766.0494287297      3.62e-09     00000 Convergence criterion met
write pseudocanon occs and virts to disk
write pseudocanon orbital energies to disk
Timing for Total SCF: 147.00s (wall), 882.58s (cpu)
<S^2> of polarized wavefunction after polarization iterations 0.0000000000
relaxing scfmi constraint to allow all rotations in the entire AO span
Doing General SCFMI
 Exchange:     0.1500 Hartree-Fock + 1.0000 wB97M-V + LR-HF
 Correlation:  1.0000 wB97M-V
 Using Euler-Maclaurin-Lebedev (99,590) quadrature formula
 Nonlocal Correlation:  VV10 with C = 0.0100 and b = 6.00 and scale = 1.00000
 Grid used for NLC:  SG-1 standard quadrature
performing fock build at end of subrot_r(subrot) constructor so that all methods have access
<S^2> of polarized wavefunction before ct-allowed iterations 0.0000000000
Beginning iterations for the determination of the CT-Allowed wavefunction
Energy prior to optimization (guess energy) = -766.049428729686
Begin Timing: Total SCF Calculation
begin iterations for algorithm: DIIS         
the SCF tolerance is set to 1.00e-08
    1    -766.0494287297      4.48e-04     00000 
    2    -766.0640129836      7.43e-05     00000 
    3    -766.0646410984      3.58e-05     00000 
    4    -766.0647009325      1.19e-05     00000 
    5    -766.0647095869      4.88e-06     00000 
    6    -766.0647107359      6.71e-07     00000 
    7    -766.0647108362      1.71e-07     00000 
    8    -766.0647108416      7.45e-08     00000 
    9    -766.0647108421      3.14e-08     00000 
   10    -766.0647108421      7.44e-09     00000 Convergence criterion met
write pseudocanon occs and virts to disk
write pseudocanon orbital energies to disk
Timing for Total SCF: 88.00s (wall), 529.80s (cpu)
<S^2> of ct_allowed wavefunction after ct-allowed iterations 0.0000000000

================================
        Results of EDA2         
================================
Basic EDA Quantities
--------------------
Fragment Energies (Ha):
1 -460.2597934914
2 -305.7369520609
--------------------
  E_prp (kJ/mol) = 0.0000
  E_frz (kJ/mol) = -90.3885
  E_pol (kJ/mol) = -47.9329
  E_vct (kJ/mol) = -40.1237
  E_int (kJ/mol) = -178.4450
--------------------


Decomposition of frozen interaction energy
--------------------
  --------------------
  Orthogonal Frozen Decomposition:
  --------------------
     E_elec   (ELEC)   (kJ/mol) = -360.9493
     E_pauli  (PAULI)  (kJ/mol) = 311.6112
     E_disp   (DISP)   (kJ/mol) = -41.0503
  --------------------
  Classical Frozen Decomposition:
  --------------------
     E_cls_elec  (CLS ELEC)  (kJ/mol) = -225.3313
     E_mod_pauli (MOD PAULI) (kJ/mol) = 174.6481 (FRZ - CLS ELEC - CLS DISP)
     E_cls_disp  (CLS DISP)  (kJ/mol) = -39.7053
  --------------------
--------------------

Simplified EDA Summary (kJ/mol)
--------------------
 PREPARATION      0.0000
 FROZEN           -90.3885 (ELEC + PAULI + DISP)
[ELEC + PAULI = -50.6831, DISP = -39.7053]
 POLARIZATION    -47.9329
 CHARGE TRANSFER -40.1237
 TOTAL           -178.4450     (PRP + FRZ + POL + CT)
--------------------
 
 --------------------------------------------------------------
 
                    Orbital Energies (a.u.)
 --------------------------------------------------------------
 
 Alpha MOs
 -- Occupied --
******** -19.2040 -19.1803 -19.1776 -19.1617  -9.3961  -7.0957  -7.0953
 -7.0950  -1.0055  -0.9865  -0.9791  -0.9657  -0.6849  -0.4992  -0.4858
 -0.4838  -0.4660  -0.3749  -0.3541  -0.3458  -0.3364  -0.2951  -0.2750
 -0.2725  -0.2556  -0.2054  -0.1990  -0.1979
 -- Virtual --
  0.1366   0.1511   0.1632   0.1688   0.1788   0.1917   0.2024   0.2060
  0.2137   0.2223   0.2298   0.2329   0.2417   0.2459   0.2554   0.2803
  0.2835   0.2897   0.2946   0.3108   0.3395   0.3441   0.3456   0.3662
  0.3703   0.3797   0.3891   0.3917   0.3947   0.4000   0.4072   0.4206
  0.4247   0.4410   0.4458   0.4546   0.4593   0.4665   0.4758   0.4844
  0.4892   0.5020   0.5068   0.5143   0.5147   0.5290   0.5341   0.5455
  0.5501   0.5662   0.5702   0.5802   0.5918   0.5951   0.6180   0.6244
  0.6318   0.6396   0.6534   0.6593   0.6683   0.6780   0.6969   0.7007
  0.7052   0.7172   0.7242   0.7297   0.7440   0.7594   0.7741   0.7806
  0.7895   0.8009   0.8190   0.8355   0.8383   0.8585   0.8757   0.9006
  0.9094   0.9162   0.9281   0.9388   0.9462   0.9559   0.9635   0.9714
  0.9763   0.9950   1.0169   1.0225   1.0297   1.0477   1.0498   1.0556
  1.0856   1.0902   1.0997   1.1058   1.1194   1.1384   1.1498   1.1648
  1.1821   1.2114   1.2330   1.2452   1.2638   1.2727   1.3003   1.3096
  1.3215   1.3361   1.3396   1.3585   1.3642   1.3830   1.3837   1.3979
  1.4223   1.4271   1.4514   1.4704   1.4759   1.5120   1.5496   1.5656
  1.5868   1.6001   1.6242   1.6481   1.7083   1.8458   2.0750   2.0908
  2.1027   2.1150   2.1350   2.1521   2.1631   2.1778   2.1905   2.1992
  2.2482   2.2610   2.2754   2.2954   2.3180   2.3272   2.3374   2.3641
  2.3735   2.3800   2.3838   2.3973   2.4313   2.4360   2.4553   2.4889
  2.4963   2.5122   2.5491   2.6161   2.6606   2.7214   2.7524   2.7809
  2.7986   2.8649   2.8819   2.9126   2.9220   2.9710   2.9883   3.0059
  3.0351   3.0794   3.1218   3.1741   3.2377   3.3326   3.3487   3.3619
  3.3798   3.4100   3.4212   3.4395   3.4512   3.4590   3.4672   3.4802
  3.5224   3.5595   3.5695   3.5950   3.6045   3.6068   3.6231   3.6271
  3.6299   3.6346   3.6478   3.6596   3.6876   3.7576   3.8050   3.8303
  3.8975   3.9087   3.9369   3.9831   4.0359   4.0510   4.0621   4.0708
  4.0937   4.1321   4.1400   4.1508   4.1740   4.1922   4.1945   4.2070
  4.2382   4.2463   4.2523   4.2749   4.2993   4.3270   4.3650   4.3719
  4.3838   4.3910   4.4270   4.4405   4.4567   4.4660   4.4862   4.5139
  4.5313   4.8630   4.8746   4.8970   4.9094   4.9462   4.9512   4.9778
  4.9938   5.1298   5.1436   5.1602   5.1845   5.3545   5.3576   5.4119
  5.4387   5.8360   5.8396   5.8714   5.8797   6.3399   6.4062   6.4276
  6.4539   6.6029   6.6389   6.6452   6.6680   6.7328   6.7524   6.7639
  6.7886   6.8077   6.8128   6.8232   6.8418   6.8452   6.8616   6.8700
  6.8933   6.9129   6.9186   6.9473   6.9861   7.0242   7.0362   7.0695
  7.0790   7.1997   7.2458   7.2587   7.2693   7.6546   7.6708   7.7202
  7.7253   7.7383   7.7989   7.8066   7.8363   7.9344   8.0029   8.0184
  8.0502   8.5369   8.5579   8.5637   8.6512   8.6672  11.4265  11.4439
 11.4901  26.0693  44.4696  44.5806  44.6596  44.6704
 --------------------------------------------------------------
 
          Ground-State Mulliken Net Atomic Charges

     Atom                 Charge (a.u.)
  ----------------------------------------
      1 Cl                   -0.792110
      2 O                    -0.426913
      3 H                     0.218722
      4 H                     0.160833
      5 O                    -0.465028
      6 H                     0.239323
      7 H                     0.172070
      8 O                    -0.459039
      9 H                     0.129683
     10 H                     0.260651
     11 O                    -0.348412
     12 H                     0.193618
     13 H                     0.116603
  ----------------------------------------
  Sum of atomic charges =    -1.000000

 -----------------------------------------------------------------
                    Cartesian Multipole Moments
 -----------------------------------------------------------------
    Charge (ESU x 10^10)
                -4.8032
    Dipole Moment (Debye)
         X      -2.2033      Y       0.5777      Z      -0.3752
       Tot       2.3085
    Quadrupole Moments (Debye-Ang)
        XX     -47.9567     XY       5.2379     YY     -61.7453
        XZ      -5.8088     YZ      -4.1099     ZZ     -50.9295
    Octopole Moments (Debye-Ang^2)
       XXX      -7.1884    XXY      14.1724    XYY     -16.2885
       YYY     -21.3215    XXZ      -1.1899    XYZ      11.2423
       YYZ      20.2202    XZZ     -11.4409    YZZ       0.8117
       ZZZ     -10.0718
    Hexadecapole Moments (Debye-Ang^3)
      XXXX    -778.6723   XXXY     107.0341   XXYY    -229.6534
      XYYY     -15.9091   YYYY    -620.4772   XXXZ     -87.9046
      XXYZ     -24.6550   XYYZ      -1.9796   YYYZ       2.7565
      XXZZ    -184.8435   XYZZ       1.9456   YYZZ    -161.6771
      XZZZ      -2.2439   YZZZ      -8.0082   ZZZZ    -294.6795
 -----------------------------------------------------------------
 Total job time:  880.59s(wall), 2391.19s(cpu) 
 Wed Jan 17 07:13:21 2024

        *************************************************************
        *                                                           *
        *  Thank you very much for using Q-Chem.  Have a nice day.  *
        *                                                           *
        *************************************************************


