
Running Job 1 of 1 122_Cl-Water_Cls_056_almo.in
qchem 122_Cl-Water_Cls_056_almo.in_1032449.0 /scratch/qchem1032449/ 6
/home/kchung25/qchem/5.4.0/exe/qcprog.exe_s 122_Cl-Water_Cls_056_almo.in_1032449.0 /scratch/qchem1032449/
                  Welcome to Q-Chem
     A Quantum Leap Into The Future Of Chemistry


 Q-Chem 5.4, Q-Chem, Inc., Pleasanton, CA (2021)

 E. Epifanovsky,  A. T. B. Gilbert,  Xintian Feng,  Joonho Lee,  Yuezhi Mao,  
 N. Mardirossian,  P. Pokhilko,  A. White,  M. Wormit,  M. P. Coons,  
 A. L. Dempwolff,  Zhengting Gan,  D. Hait,  P. R. Horn,  L. D. Jacobson,  
 I. Kaliman,  J. Kussmann,  A. W. Lange,  Ka Un Lao,  D. S. Levine,  Jie Liu,  
 S. C. McKenzie,  A. F. Morrison,  K. Nanda,  F. Plasser,  D. R. Rehn,  
 M. L. Vidal,  Zhi-Qiang You,  Ying Zhu,  B. Alam,  B. Albrecht,  
 A. Aldossary,  E. Alguire,  J. H. Andersen,  D. Barton,  K. Begam,  A. Behn,  
 Y. A. Bernard,  E. J. Berquist,  H. Burton,  A. Carreras,  K. Carter-Fenk,  
 Romit Chakraborty,  A. D. Chien,  K. D. Closser,  V. Cofer-Shabica,  
 S. Dasgupta,  Jia Deng,  M. de Wergifosse,  M. Diedenhofen,  Hainam Do,  
 S. Ehlert,  Po-Tung Fang,  S. Fatehi,  Qingguo Feng,  T. Friedhoff,  
 J. Gayvert,  Qinghui Ge,  G. Gidofalvi,  M. Goldey,  J. Gomes,  
 C. Gonzalez-Espinoza,  S. Gulania,  A. Gunina,  M. W. D. Hanson-Heine,  
 P. H. P. Harbach,  A. W. Hauser,  M. F. Herbst,  M. Hernandez Vera,  
 M. Hodecker,  Z. C. Holden,  S. Houck,  Xunkun Huang,  Kerwin Hui,  
 B. C. Huynh,  M. Ivanov,  Hyunjun Ji,  Hanjie Jiang,  B. Kaduk,  S. Kaehler,  
 K. Khistyaev,  Jaehoon Kim,  P. Klunzinger,  Z. Koczor-Benda,  
 Joong Hoon Koh,  D. Kosenkov,  L. Koulias,  T. Kowalczyk,  C. M. Krauter,  
 K. Kue,  A. Kunitsa,  T. Kus,  A. Landau,  K. V. Lawler,  D. Lefrancois,  
 S. Lehtola,  Rain Li,  Yi-Pei Li,  Jiashu Liang,  M. Liebenthal,  
 Hung-Hsuan Lin,  You-Sheng Lin,  Fenglai Liu,  Kuan-Yu Liu,  
 M. Loipersberger,  A. Luenser,  A. Manjanath,  P. Manohar,  E. Mansoor,  
 S. F. Manzer,  Shan-Ping Mao,  A. V. Marenich,  T. Markovich,  S. Mason,  
 S. A. Maurer,  P. F. McLaughlin,  M. F. S. J. Menger,  J.-M. Mewes,  
 S. A. Mewes,  P. Morgante,  J. W. Mullinax,  K. J. Oosterbaan,  G. Paran,  
 Alexander C. Paul,  Suranjan K. Paul,  F. Pavosevic,  Zheng Pei,  S. Prager,  
 E. I. Proynov,  E. Ramos,  B. Rana,  A. E. Rask,  A. Rettig,  R. M. Richard,  
 F. Rob,  E. Rossomme,  T. Scheele,  M. Scheurer,  M. Schneider,  
 N. Sergueev,  S. M. Sharada,  W. Skomorowski,  D. W. Small,  C. J. Stein,  
 Yu-Chuan Su,  E. J. Sundstrom,  Zhen Tao,  J. Thirman,  T. Tsuchimochi,  
 N. M. Tubman,  S. P. Veccham,  O. Vydrov,  J. Wenzel,  J. Witte,  A. Yamada,  
 Kun Yao,  S. Yeganeh,  S. R. Yost,  A. Zech,  Igor Ying Zhang,  Xing Zhang,  
 Yu Zhang,  D. Zuev,  A. Aspuru-Guzik,  A. T. Bell,  N. A. Besley,  
 K. B. Bravaya,  B. R. Brooks,  D. Casanova,  Jeng-Da Chai,  S. Coriani,  
 C. J. Cramer,  A. E. DePrince, III,  R. A. DiStasio Jr.,  A. Dreuw,  
 B. D. Dunietz,  T. R. Furlani,  W. A. Goddard III,  S. Grimme,  
 S. Hammes-Schiffer,  T. Head-Gordon,  W. J. Hehre,  Chao-Ping Hsu,  
 T.-C. Jagau,  Yousung Jung,  A. Klamt,  Jing Kong,  D. S. Lambrecht,  
 WanZhen Liang,  N. J. Mayhall,  C. W. McCurdy,  J. B. Neaton,  T. Neudecker,  
 C. Ochsenfeld,  J. A. Parkhill,  R. Peverati,  V. A. Rassolov,  Yihan Shao,  
 L. V. Slipchenko,  R. P. Steele,  J. E. Subotnik,  A. J. W. Thom,  
 A. Tkatchenko,  D. G. Truhlar,  T. Van Voorhis,  T. A. Wesolowski,  
 K. B. Whaley,  H. L. Woodcock III,  P. M. Zimmerman,  S. Faraji,  
 P. M. W. Gill,  M. Head-Gordon,  J. M. Herbert,  A. I. Krylov

 Additional authors since Version 5.4.0: 
 Chandrima Chakravarty,  L. Cunha,  R. Kang,  Yongbin Kim,  S. Kotaru,  
 Shaozhi Li,  Xiangyuan Li,  F. Matz,  A. Molle,  V. Parravicini,  
 Haisheng Ren,  Hengyuan Shen,  Yingli Su,  Hung-Yi Tsai,  C. Utku,  
 Fang Wang,  Jeff Yang,  F. Zeller

 Contributors to earlier versions of Q-Chem not listed above: 
 R. D. Adamson,  B. Austin,  R. Baer,  J. Baker,  G. J. O. Beran,  
 K. Brandhorst,  S. T. Brown,  E. F. C. Byrd,  Arup K. Chakraborty,  
 G. K. L. Chan,  Chun-Min Chang,  Yunqing Chen,  C.-L. Cheng,  
 Siu Hung Chien,  D. M. Chipman,  D. L. Crittenden,  H. Dachsel,  
 R. J. Doerksen,  A. D. Dutoi,  R. G. Edgar,  J. Fosso-Tande,  
 L. Fusti-Molnar,  D. Ghosh,  A. Ghysels,  A. Golubeva-Zadorozhnaya,  
 J. Gonthier,  M. S. Gordon,  S. R. Gwaltney,  G. Hawkins,  J. E. Herr,  
 A. Heyden,  S. Hirata,  E. G. Hohenstein,  G. Kedziora,  F. J. Keil,  
 C. Kelley,  Jihan Kim,  R. A. King,  R. Z. Khaliullin,  P. P. Korambath,  
 W. Kurlancheek,  A. Laurent,  A. M. Lee,  M. S. Lee,  S. V. Levchenko,  
 Ching Yeh Lin,  D. Liotard,  E. Livshits,  R. C. Lochan,  I. Lotan,  
 L. A. Martinez-Martinez,  P. E. Maslen,  N. Nair,  D. P. O'Neill,  
 D. Neuhauser,  E. Neuscamman,  C. M. Oana,  R. Olivares-Amaya,  R. Olson,  
 T. M. Perrine,  B. Peters,  P. A. Pieniazek,  A. Prociuk,  Y. M. Rhee,  
 J. Ritchie,  M. A. Rohrdanz,  E. Rosta,  N. J. Russ,  H. F. Schaefer III,  
 M. W. Schmidt,  N. E. Schultz,  S. Sharma,  N. Shenvi,  C. D. Sherrill,  
 A. C. Simmonett,  A. Sodt,  T. Stein,  D. Stuck,  K. S. Thanthiriwatte,  
 V. Vanovschi,  L. Vogt,  Tao Wang,  A. Warshel,  M. A. Watson,  
 C. F. Williams,  Q. Wu,  X. Xu,  Jun Yang,  W. Zhang,  Yan Zhao

   Please cite Q-Chem as follows:
  "Software for the frontiers of quantum chemistry:
   An overview of developments in the Q-Chem 5 package"
   J. Chem. Phys. 155, 084801 (2021)
   https://doi.org/10.1063/5.0055522 (open access)

 Q-Chem 5.4.2 for Intel X86 EM64T Linux

 Parts of Q-Chem use Armadillo 9.900.5 (Nocturnal Misbehaviour).
 http://arma.sourceforge.net/

 Q-Chem begins on Wed Jan 17 18:42:12 2024  

 Host: 
0

     Scratch files written to /scratch/qchem1032449//
 Dec1321 |scratch|qcdevops|jenkins|workspace|build_RNUM 5684   
 Processing $rem in /home/kchung25/qchem/5.4.0/config/preferences:
 Processing $rem in /home/kchung25/.qchemrc:

 Q-Chem warning in module libgen/rem_setup.C, line 3079:

 Neither GIA nor STOLL is specified by user. Use STOLL as the default


 Checking the input file for inconsistencies... 	...done.

--------------------------------------------------------------
User input:
--------------------------------------------------------------
$molecule
-1 1
--
-1 1
Cl     0.000000     0.000000     0.000000
--
0 1
O     -0.626448    -3.113592     0.754314
H     -0.239394    -2.239675     0.691889
H     -1.537945    -2.905973     0.527826
O      1.128243    -1.708551    -2.677056
H      0.826606    -1.143339    -1.981423
H      0.825023    -2.562071    -2.503514
O      2.956940    -0.462505     1.050307
H      2.187350    -0.102340     0.693405
H      2.611752    -1.280708     1.398652
O     -0.731735     3.351951     0.529715
H     -0.503408     2.491672     0.171643
H     -0.052956     3.760527     1.140496
O      1.659667     1.365866    -2.584794
H      1.265558     1.161297    -3.485117
H      1.085125     0.911723    -1.915010
$end

$rem
JOBTYPE          eda
EDA2             1
METHOD           wB97M-V
BASIS            def2-TZVPPD
SYMMETRY         false
MEM_TOTAL        50000
MEM_STATIC       10000
THRESH           14
SCF_CONVERGENCE  8
XC_GRID          000099000590
NL_GRID          1
EDA_CLS_DISP     true
FD_MAT_VEC_PROD  FALSE
$end
--------------------------------------------------------------
 ----------------------------------------------------------------
             Standard Nuclear Orientation (Angstroms)
    I     Atom           X                Y                Z
 ----------------------------------------------------------------
    1      Cl      0.1402544725    -0.6560323385     0.3567074946
    2      O      -2.9177989272    -1.7359290606     0.7282102858
    3      H      -2.0703164597    -1.4717541817     0.3684552259
    4      H      -2.6578011144    -1.9328298215     1.6331193818
    5      O      -1.6726303223     2.1715173637     0.6344106030
    6      H      -1.0800287156     1.4378901569     0.5639179610
    7      H      -2.5033177773     1.8463762474     0.8684986016
    8      O      -0.4880670594    -0.2907168690    -2.7307358641
    9      H      -0.0864216310    -0.3014657034    -1.9013191744
   10      H      -1.2784218771    -0.7893884585    -2.5393695880
   11      O       3.5381007468    -1.3212218365     0.6092411073
   12      H       2.6603669113    -0.9339100688     0.6079594638
   13      H       3.9128854909    -1.5468827158    -0.2903934139
   14      O       1.3643042948     2.4509147315    -0.0303667109
   15      H       1.1714671646     3.0708359920     0.7353116524
   16      H       0.9559921143     1.5771636756     0.2037171129
 ----------------------------------------------------------------
 Molecular Point Group                 C1    NOp =  1
 Largest Abelian Subgroup              C1    NOp =  1
 Nuclear Repulsion Energy =         301.30819802 hartrees
 There are       34 alpha and       34 beta electrons
 Requested basis set is def2-TZVPPD
 There are 157 shells and 421 basis functions

 Q-Chem warning in module libmdc/get_mega.C, line 171:

 Allowed MEM_STATIC has been capped at MEM_STATIC=8191.
 Reduce the value of MEM_STATIC to silence this warning.


 Total QAlloc Memory Limit  50000 MB
 Mega-Array Size      8007 MB
 MEM_STATIC part      8191 MB
 A cutoff of  1.0D-14 yielded  10359 shell pairs
 There are     72647 function pairs (     88551 Cartesian)
 Smallest overlap matrix eigenvalue = 1.87E-04

 Scale SEOQF with 1.000000e-01/1.000000e-01/1.000000e-01

 Standard Electronic Orientation quadrupole field applied
 Nucleus-field energy     =     0.0000000110 hartrees

 -----------------------------------------------------------------------
  General SCF calculation program by
  Eric Jon Sundstrom, Paul Horn, Yuezhi Mao, Dmitri Zuev, Alec White,
  David Stuck, Shaama M.S., Shane Yost, Joonho Lee, David Small,
  Daniel Levine, Susi Lehtola, Hugh Burton, Evgeny Epifanovsky,
  Bang C. Huynh
 -----------------------------------------------------------------------
================================================================
                 ALMO-EDA with the EDA2 driver                  
================================================================
 The second-generation ALMO-EDA (for DFT):                      
 P. R. Horn, Y. Mao and M. Head-Gordon, PCCP, 18, 23067 (2016)  
 Y. Mao et al. Annu. Rev. Phys. Chem. 72, 641 (2021)            
 Decomposition of the frozen energy:                            
 P. R. Horn, Y. Mao and M. Head-Gordon, JCP, 144, 114107 (2016) 
 FERF model for polarization:                                   
 P. R. Horn and M. Head-Gordon, JCP, 143, 114111 (2015)         
================================================================
 Using eda2 option set 1
 Option set summary: Frozen orbital wavefunction, initial wavefunction decomposition, and nDQ polarization.
--------------------------------
Printing EDA Options
--------------------------------
eda_child_super_basis      0
fragmo_guess_mode          0
child_mp                   1
child_mp_orders            232
cls_elec                   1
cls_disp                   1
scfmi_mode                 1
scfmi_occs                 0
scfmi_virts                0
frz_relax                  0
frz_relax_method           0
dc_pen_start               0
dc_pen_conv                0
dc_pen_increment           0
dc_pen_steps               0
dc_pen_thresh_factor       0
dc_pen_pre_newton_thresh   0
frz_ortho_decomp           1
frz_ortho_decomp_conv      6
plot_mo_ortho_frz          0
frgm_method                2
scfmi_freeze_ss            0
separate_rehyb             0
plot_diff_den              0
eda_nocv                   0
eda_vct_relax              1
disp_free_x                0
disp_free_c                0
eda_bsse                   0
eda_pct_a                  0
eda_covp                   0
--------------------------------
Attempting to make child job directory: /scratch/qchem1032449//Frg1/
Attempting to make child job directory: /scratch/qchem1032449//Frg2/
Creating input file /scratch/qchem1032449/Frg1.input
using default PutDataFrgm: nothing
calling putenv with: QCSCRATCH=/scratch/qchem1032449/ 
Spawning Job For Fragment 0
Done Job For Fragment 0
calling putenv with: QCSCRATCH=/scratch 
calling putenv with: QCTHREADS=6 
Creating input file /scratch/qchem1032449/Frg2.input
using default PutDataFrgm: nothing
calling putenv with: QCSCRATCH=/scratch/qchem1032449/ 
Spawning Job For Fragment 1
Done Job For Fragment 1
calling putenv with: QCSCRATCH=/scratch 
calling putenv with: QCTHREADS=6 
Doing General SCFMI
 Exchange:     0.1500 Hartree-Fock + 1.0000 wB97M-V + LR-HF
 Correlation:  1.0000 wB97M-V
 Using Euler-Maclaurin-Lebedev (99,590) quadrature formula
 Nonlocal Correlation:  VV10 with C = 0.0100 and b = 6.00 and scale = 1.00000
 Grid used for NLC:  SG-1 standard quadrature
performing fock build before subrot guess so that all methods have access
Printing subrot_rss_gen Method Specification:
Occupied Subspace Method is 0
Virtual Subspace Method is 0
Energy of the unrelaxed supersystem initial determinant -842.481369798566
write pseudocanon occs and virts to disk
write pseudocanon orbital energies to disk
Tolerance of ortho_decomp_scf: 1.00e-06
GDM subspace size: 20
Beginning the Orthogonal Decomposition of the Initial Supersystem Wavefunction
    1    -842.2231144203      2.72e-01     ortho_decomp Preconditoned Steepest Descent
    2    -842.2726122147      3.60e-03     ortho_decomp BFGS Step
    3    -842.2726680514      2.48e-04     ortho_decomp BFGS Step
    4    -842.2726682393      1.05e-05     ortho_decomp BFGS Step
    5    -842.2726682394      2.29e-07     ortho_decomp 00000 Convergence criterion met
 Hartree-Fock
 Hartree-Fock
 Hartree-Fock
 Exchange:     0.1500 Hartree-Fock + 1.0000 wB97M-V + LR-HF
 Correlation:  1.0000 wB97M-V
 Using Euler-Maclaurin-Lebedev (99,590) quadrature formula
 Nonlocal Correlation:  VV10 with C = 0.0100 and b = 6.00 and scale = 1.00000
 Grid used for NLC:  SG-1 standard quadrature
 Long-range K will be added via erf
 Coulomb attenuation parameter = 0.3 bohr**(-1)
 Nonlocal correlation = 2.807516609747e-01
Doing General SCFMI
 Exchange:     0.1500 Hartree-Fock + 1.0000 wB97M-V + LR-HF
 Correlation:  1.0000 wB97M-V
 Using Euler-Maclaurin-Lebedev (99,590) quadrature formula
 Nonlocal Correlation:  VV10 with C = 0.0100 and b = 6.00 and scale = 1.00000
 Grid used for NLC:  SG-1 standard quadrature
performing fock build at end of subrot_r(subrot) constructor so that all methods have access
<S^2> of initial wavefunction before polarization iterations 0.0000000000
Beginning iterations for the determination of the polarized wavefunction
Energy prior to optimization (guess energy) = -842.481369798567
Begin Timing: Total SCF Calculation
begin iterations for algorithm: DIIS         
the SCF tolerance is set to 1.00e-08
    1    -842.4813697986      5.66e-04     00000 
    2    -842.4986582340      1.97e-04     00000 
    3    -842.5002320405      7.14e-05     00000 
    4    -842.5005679596      2.79e-05     00000 
    5    -842.5006375609      1.31e-05     00000 
    6    -842.5006519740      7.36e-06     00000 
    7    -842.5006550131      2.79e-06     00000 
    8    -842.5006556945      1.04e-06     00000 
    9    -842.5006557335      6.51e-07     00000 
   10    -842.5006557391      4.18e-07     00000 
   11    -842.5006557419      1.67e-07     00000 
   12    -842.5006557428      7.39e-08     00000 
   13    -842.5006557431      3.30e-08     00000 
   14    -842.5006557432      1.51e-08     00000 
   15    -842.5006557432      7.10e-09     00000 Convergence criterion met
write pseudocanon occs and virts to disk
write pseudocanon orbital energies to disk
Timing for Total SCF: 226.00s (wall), 1355.41s (cpu)
<S^2> of polarized wavefunction after polarization iterations 0.0000000000
relaxing scfmi constraint to allow all rotations in the entire AO span
Doing General SCFMI
 Exchange:     0.1500 Hartree-Fock + 1.0000 wB97M-V + LR-HF
 Correlation:  1.0000 wB97M-V
 Using Euler-Maclaurin-Lebedev (99,590) quadrature formula
 Nonlocal Correlation:  VV10 with C = 0.0100 and b = 6.00 and scale = 1.00000
 Grid used for NLC:  SG-1 standard quadrature
performing fock build at end of subrot_r(subrot) constructor so that all methods have access
<S^2> of polarized wavefunction before ct-allowed iterations 0.0000000000
Beginning iterations for the determination of the CT-Allowed wavefunction
Energy prior to optimization (guess energy) = -842.500655743206
Begin Timing: Total SCF Calculation
begin iterations for algorithm: DIIS         
the SCF tolerance is set to 1.00e-08
    1    -842.5006557432      3.59e-04     00000 
    2    -842.5140555434      5.78e-05     00000 
    3    -842.5145957919      2.81e-05     00000 
    4    -842.5146486453      9.04e-06     00000 
    5    -842.5146555865      3.71e-06     00000 
    6    -842.5146565188      4.67e-07     00000 
    7    -842.5146565869      1.56e-07     00000 
    8    -842.5146565906      9.18e-08     00000 
    9    -842.5146565914      1.61e-08     00000 
   10    -842.5146565915      4.15e-09     00000 Convergence criterion met
write pseudocanon occs and virts to disk
write pseudocanon orbital energies to disk
Timing for Total SCF: 144.00s (wall), 865.89s (cpu)
<S^2> of ct_allowed wavefunction after ct-allowed iterations 0.0000000000

================================
        Results of EDA2         
================================
Basic EDA Quantities
--------------------
Fragment Energies (Ha):
1 -460.2597934915
2 -382.1623460826
--------------------
  E_prp (kJ/mol) = 0.0000
  E_frz (kJ/mol) = -155.5108
  E_pol (kJ/mol) = -50.6358
  E_vct (kJ/mol) = -36.7597
  E_int (kJ/mol) = -242.9063
--------------------


Decomposition of frozen interaction energy
--------------------
  --------------------
  Orthogonal Frozen Decomposition:
  --------------------
     E_elec   (ELEC)   (kJ/mol) = -417.8476
     E_pauli  (PAULI)  (kJ/mol) = 306.8830
     E_disp   (DISP)   (kJ/mol) = -44.5462
  --------------------
  Classical Frozen Decomposition:
  --------------------
     E_cls_elec  (CLS ELEC)  (kJ/mol) = -273.7006
     E_mod_pauli (MOD PAULI) (kJ/mol) = 159.8157 (FRZ - CLS ELEC - CLS DISP)
     E_cls_disp  (CLS DISP)  (kJ/mol) = -41.6259
  --------------------
--------------------

Simplified EDA Summary (kJ/mol)
--------------------
 PREPARATION      0.0000
 FROZEN           -155.5108 (ELEC + PAULI + DISP)
[ELEC + PAULI = -113.8849, DISP = -41.6259]
 POLARIZATION    -50.6358
 CHARGE TRANSFER -36.7597
 TOTAL           -242.9063     (PRP + FRZ + POL + CT)
--------------------
 
 --------------------------------------------------------------
 
                    Orbital Energies (a.u.)
 --------------------------------------------------------------
 
 Alpha MOs
 -- Occupied --
******** -19.2029 -19.2002 -19.1921 -19.1896 -19.1811  -9.4199  -7.1193
 -7.1191  -7.1189  -1.0119  -1.0112  -1.0035  -0.9927  -0.9775  -0.7076
 -0.5201  -0.5167  -0.4999  -0.4908  -0.4822  -0.3837  -0.3682  -0.3636
 -0.3518  -0.3505  -0.2982  -0.2913  -0.2912  -0.2812  -0.2772  -0.2272
 -0.2238  -0.2223
 -- Virtual --
  0.1351   0.1385   0.1498   0.1587   0.1666   0.1777   0.1881   0.1922
  0.2032   0.2072   0.2125   0.2155   0.2227   0.2312   0.2367   0.2429
  0.2526   0.2559   0.2672   0.2731   0.2881   0.2989   0.3056   0.3127
  0.3204   0.3265   0.3338   0.3480   0.3523   0.3587   0.3636   0.3716
  0.3756   0.3835   0.3933   0.3972   0.3996   0.4110   0.4149   0.4203
  0.4262   0.4307   0.4470   0.4505   0.4515   0.4576   0.4607   0.4661
  0.4783   0.4897   0.4979   0.5021   0.5120   0.5178   0.5294   0.5341
  0.5344   0.5456   0.5557   0.5613   0.5667   0.5806   0.5938   0.5985
  0.5991   0.6078   0.6175   0.6302   0.6335   0.6440   0.6487   0.6541
  0.6664   0.6736   0.6795   0.6864   0.6966   0.7004   0.7094   0.7169
  0.7224   0.7256   0.7328   0.7374   0.7453   0.7516   0.7548   0.7603
  0.7761   0.7842   0.8006   0.8226   0.8479   0.8574   0.8741   0.8841
  0.8969   0.9047   0.9162   0.9291   0.9391   0.9490   0.9565   0.9669
  0.9709   0.9819   0.9943   1.0154   1.0224   1.0235   1.0330   1.0386
  1.0568   1.0656   1.0790   1.0836   1.0942   1.0974   1.1054   1.1186
  1.1290   1.1353   1.1468   1.1547   1.1649   1.1753   1.1912   1.2238
  1.2327   1.2378   1.2538   1.2606   1.2782   1.2788   1.2909   1.3003
  1.3057   1.3148   1.3350   1.3439   1.3525   1.3559   1.3711   1.3825
  1.3891   1.3956   1.4102   1.4228   1.4331   1.4569   1.4600   1.5016
  1.5257   1.5511   1.5641   1.5683   1.5727   1.5935   1.6077   1.6285
  1.6876   1.7248   1.8379   2.0515   2.0795   2.0865   2.1020   2.1151
  2.1324   2.1418   2.1456   2.1616   2.1683   2.1997   2.2211   2.2395
  2.2749   2.2811   2.2907   2.2996   2.3146   2.3289   2.3351   2.3565
  2.3725   2.3752   2.3814   2.4034   2.4116   2.4219   2.4282   2.4378
  2.4486   2.4651   2.4860   2.5428   2.5646   2.6123   2.6480   2.6720
  2.7074   2.7376   2.8144   2.8320   2.8550   2.8939   2.9218   2.9286
  2.9366   2.9825   3.0112   3.0362   3.0569   3.1396   3.1427   3.1816
  3.2127   3.2258   3.2999   3.3135   3.3607   3.3713   3.4014   3.4180
  3.4239   3.4274   3.4392   3.4412   3.4511   3.4695   3.4723   3.4901
  3.4990   3.5131   3.5333   3.5590   3.5676   3.5825   3.5960   3.6082
  3.6171   3.6257   3.6437   3.6510   3.6585   3.6887   3.7055   3.7470
  3.7719   3.8192   3.8590   3.8706   3.8932   3.9003   3.9122   3.9602
  3.9725   4.0121   4.0243   4.0467   4.0582   4.0859   4.0902   4.1000
  4.1118   4.1302   4.1543   4.1612   4.1893   4.1931   4.2200   4.2273
  4.2309   4.2440   4.2541   4.2690   4.2857   4.3074   4.3266   4.3310
  4.3442   4.3522   4.3824   4.3924   4.3958   4.4060   4.4291   4.4391
  4.4515   4.4959   4.5225   4.5671   4.5758   4.8181   4.8373   4.8761
  4.8836   4.9240   4.9401   4.9618   5.0130   5.0148   5.0934   5.1183
  5.1533   5.1646   5.1753   5.2787   5.3089   5.3240   5.4222   5.4892
  5.5169   5.7319   5.7897   5.8586   5.8904   5.9233   6.0968   6.2528
  6.4600   6.5259   6.5813   6.6268   6.6289   6.6681   6.6754   6.7141
  6.7315   6.7368   6.7412   6.7520   6.7780   6.7912   6.7990   6.8110
  6.8117   6.8146   6.8216   6.8378   6.8498   6.8611   6.8801   6.9344
  6.9549   6.9604   6.9756   6.9976   7.0378   7.0394   7.0517   7.0870
  7.1207   7.2033   7.2390   7.2582   7.3220   7.3650   7.4400   7.6052
  7.6420   7.6685   7.7059   7.7471   7.7900   7.8683   7.8941   7.9271
  7.9532   7.9775   8.0322   8.0501   8.1870   8.5098   8.5524   8.6132
  8.6335   8.6731  11.4177  11.4612  11.4904  26.1846  44.5287  44.5794
 44.6099  44.7074  44.7441
 --------------------------------------------------------------
 
          Ground-State Mulliken Net Atomic Charges

     Atom                 Charge (a.u.)
  ----------------------------------------
      1 Cl                   -0.811708
      2 O                    -0.447357
      3 H                     0.229167
      4 H                     0.162028
      5 O                    -0.360446
      6 H                     0.237761
      7 H                     0.093183
      8 O                    -0.395910
      9 H                     0.234544
     10 H                     0.142777
     11 O                    -0.492467
     12 H                     0.274550
     13 H                     0.187154
     14 O                    -0.484630
     15 H                     0.182121
     16 H                     0.249233
  ----------------------------------------
  Sum of atomic charges =    -1.000000

 -----------------------------------------------------------------
                    Cartesian Multipole Moments
 -----------------------------------------------------------------
    Charge (ESU x 10^10)
                -4.8032
    Dipole Moment (Debye)
         X      -1.2807      Y      -0.5392      Z       1.7154
       Tot       2.2076
    Quadrupole Moments (Debye-Ang)
        XX     -70.0866     XY      -1.2382     YY     -65.5712
        XZ      -6.6069     YZ       6.3277     ZZ     -60.1075
    Octopole Moments (Debye-Ang^2)
       XXX     -11.0993    XXY      18.6215    XYY       7.5226
       YYY      -5.0632    XXZ     -30.3296    XYZ      15.6986
       YYZ       6.2461    XZZ     -12.2006    YZZ      -4.2389
       ZZZ      39.7141
    Hexadecapole Moments (Debye-Ang^3)
      XXXX   -1386.1019   XXXY     -94.5692   XXYY    -389.0830
      XYYY      14.2090   YYYY    -813.2061   XXXZ    -123.6053
      XXYZ      59.5855   XYYZ      -7.2077   YYYZ      34.4171
      XXZZ    -245.7841   XYZZ      34.7844   YYZZ    -188.4959
      XZZZ     -19.7556   YZZZ      -9.3348   ZZZZ    -555.0048
 -----------------------------------------------------------------
 Total job time:  1519.93s(wall), 3858.85s(cpu) 
 Wed Jan 17 19:07:32 2024

        *************************************************************
        *                                                           *
        *  Thank you very much for using Q-Chem.  Have a nice day.  *
        *                                                           *
        *************************************************************


