
Running Job 1 of 1 122_Cl-Water_Cls_042_almo.in
qchem 122_Cl-Water_Cls_042_almo.in_1031289.0 /scratch/qchem1031289/ 6
/home/kchung25/qchem/5.4.0/exe/qcprog.exe_s 122_Cl-Water_Cls_042_almo.in_1031289.0 /scratch/qchem1031289/
                  Welcome to Q-Chem
     A Quantum Leap Into The Future Of Chemistry


 Q-Chem 5.4, Q-Chem, Inc., Pleasanton, CA (2021)

 E. Epifanovsky,  A. T. B. Gilbert,  Xintian Feng,  Joonho Lee,  Yuezhi Mao,  
 N. Mardirossian,  P. Pokhilko,  A. White,  M. Wormit,  M. P. Coons,  
 A. L. Dempwolff,  Zhengting Gan,  D. Hait,  P. R. Horn,  L. D. Jacobson,  
 I. Kaliman,  J. Kussmann,  A. W. Lange,  Ka Un Lao,  D. S. Levine,  Jie Liu,  
 S. C. McKenzie,  A. F. Morrison,  K. Nanda,  F. Plasser,  D. R. Rehn,  
 M. L. Vidal,  Zhi-Qiang You,  Ying Zhu,  B. Alam,  B. Albrecht,  
 A. Aldossary,  E. Alguire,  J. H. Andersen,  D. Barton,  K. Begam,  A. Behn,  
 Y. A. Bernard,  E. J. Berquist,  H. Burton,  A. Carreras,  K. Carter-Fenk,  
 Romit Chakraborty,  A. D. Chien,  K. D. Closser,  V. Cofer-Shabica,  
 S. Dasgupta,  Jia Deng,  M. de Wergifosse,  M. Diedenhofen,  Hainam Do,  
 S. Ehlert,  Po-Tung Fang,  S. Fatehi,  Qingguo Feng,  T. Friedhoff,  
 J. Gayvert,  Qinghui Ge,  G. Gidofalvi,  M. Goldey,  J. Gomes,  
 C. Gonzalez-Espinoza,  S. Gulania,  A. Gunina,  M. W. D. Hanson-Heine,  
 P. H. P. Harbach,  A. W. Hauser,  M. F. Herbst,  M. Hernandez Vera,  
 M. Hodecker,  Z. C. Holden,  S. Houck,  Xunkun Huang,  Kerwin Hui,  
 B. C. Huynh,  M. Ivanov,  Hyunjun Ji,  Hanjie Jiang,  B. Kaduk,  S. Kaehler,  
 K. Khistyaev,  Jaehoon Kim,  P. Klunzinger,  Z. Koczor-Benda,  
 Joong Hoon Koh,  D. Kosenkov,  L. Koulias,  T. Kowalczyk,  C. M. Krauter,  
 K. Kue,  A. Kunitsa,  T. Kus,  A. Landau,  K. V. Lawler,  D. Lefrancois,  
 S. Lehtola,  Rain Li,  Yi-Pei Li,  Jiashu Liang,  M. Liebenthal,  
 Hung-Hsuan Lin,  You-Sheng Lin,  Fenglai Liu,  Kuan-Yu Liu,  
 M. Loipersberger,  A. Luenser,  A. Manjanath,  P. Manohar,  E. Mansoor,  
 S. F. Manzer,  Shan-Ping Mao,  A. V. Marenich,  T. Markovich,  S. Mason,  
 S. A. Maurer,  P. F. McLaughlin,  M. F. S. J. Menger,  J.-M. Mewes,  
 S. A. Mewes,  P. Morgante,  J. W. Mullinax,  K. J. Oosterbaan,  G. Paran,  
 Alexander C. Paul,  Suranjan K. Paul,  F. Pavosevic,  Zheng Pei,  S. Prager,  
 E. I. Proynov,  E. Ramos,  B. Rana,  A. E. Rask,  A. Rettig,  R. M. Richard,  
 F. Rob,  E. Rossomme,  T. Scheele,  M. Scheurer,  M. Schneider,  
 N. Sergueev,  S. M. Sharada,  W. Skomorowski,  D. W. Small,  C. J. Stein,  
 Yu-Chuan Su,  E. J. Sundstrom,  Zhen Tao,  J. Thirman,  T. Tsuchimochi,  
 N. M. Tubman,  S. P. Veccham,  O. Vydrov,  J. Wenzel,  J. Witte,  A. Yamada,  
 Kun Yao,  S. Yeganeh,  S. R. Yost,  A. Zech,  Igor Ying Zhang,  Xing Zhang,  
 Yu Zhang,  D. Zuev,  A. Aspuru-Guzik,  A. T. Bell,  N. A. Besley,  
 K. B. Bravaya,  B. R. Brooks,  D. Casanova,  Jeng-Da Chai,  S. Coriani,  
 C. J. Cramer,  A. E. DePrince, III,  R. A. DiStasio Jr.,  A. Dreuw,  
 B. D. Dunietz,  T. R. Furlani,  W. A. Goddard III,  S. Grimme,  
 S. Hammes-Schiffer,  T. Head-Gordon,  W. J. Hehre,  Chao-Ping Hsu,  
 T.-C. Jagau,  Yousung Jung,  A. Klamt,  Jing Kong,  D. S. Lambrecht,  
 WanZhen Liang,  N. J. Mayhall,  C. W. McCurdy,  J. B. Neaton,  T. Neudecker,  
 C. Ochsenfeld,  J. A. Parkhill,  R. Peverati,  V. A. Rassolov,  Yihan Shao,  
 L. V. Slipchenko,  R. P. Steele,  J. E. Subotnik,  A. J. W. Thom,  
 A. Tkatchenko,  D. G. Truhlar,  T. Van Voorhis,  T. A. Wesolowski,  
 K. B. Whaley,  H. L. Woodcock III,  P. M. Zimmerman,  S. Faraji,  
 P. M. W. Gill,  M. Head-Gordon,  J. M. Herbert,  A. I. Krylov

 Additional authors since Version 5.4.0: 
 Chandrima Chakravarty,  L. Cunha,  R. Kang,  Yongbin Kim,  S. Kotaru,  
 Shaozhi Li,  Xiangyuan Li,  F. Matz,  A. Molle,  V. Parravicini,  
 Haisheng Ren,  Hengyuan Shen,  Yingli Su,  Hung-Yi Tsai,  C. Utku,  
 Fang Wang,  Jeff Yang,  F. Zeller

 Contributors to earlier versions of Q-Chem not listed above: 
 R. D. Adamson,  B. Austin,  R. Baer,  J. Baker,  G. J. O. Beran,  
 K. Brandhorst,  S. T. Brown,  E. F. C. Byrd,  Arup K. Chakraborty,  
 G. K. L. Chan,  Chun-Min Chang,  Yunqing Chen,  C.-L. Cheng,  
 Siu Hung Chien,  D. M. Chipman,  D. L. Crittenden,  H. Dachsel,  
 R. J. Doerksen,  A. D. Dutoi,  R. G. Edgar,  J. Fosso-Tande,  
 L. Fusti-Molnar,  D. Ghosh,  A. Ghysels,  A. Golubeva-Zadorozhnaya,  
 J. Gonthier,  M. S. Gordon,  S. R. Gwaltney,  G. Hawkins,  J. E. Herr,  
 A. Heyden,  S. Hirata,  E. G. Hohenstein,  G. Kedziora,  F. J. Keil,  
 C. Kelley,  Jihan Kim,  R. A. King,  R. Z. Khaliullin,  P. P. Korambath,  
 W. Kurlancheek,  A. Laurent,  A. M. Lee,  M. S. Lee,  S. V. Levchenko,  
 Ching Yeh Lin,  D. Liotard,  E. Livshits,  R. C. Lochan,  I. Lotan,  
 L. A. Martinez-Martinez,  P. E. Maslen,  N. Nair,  D. P. O'Neill,  
 D. Neuhauser,  E. Neuscamman,  C. M. Oana,  R. Olivares-Amaya,  R. Olson,  
 T. M. Perrine,  B. Peters,  P. A. Pieniazek,  A. Prociuk,  Y. M. Rhee,  
 J. Ritchie,  M. A. Rohrdanz,  E. Rosta,  N. J. Russ,  H. F. Schaefer III,  
 M. W. Schmidt,  N. E. Schultz,  S. Sharma,  N. Shenvi,  C. D. Sherrill,  
 A. C. Simmonett,  A. Sodt,  T. Stein,  D. Stuck,  K. S. Thanthiriwatte,  
 V. Vanovschi,  L. Vogt,  Tao Wang,  A. Warshel,  M. A. Watson,  
 C. F. Williams,  Q. Wu,  X. Xu,  Jun Yang,  W. Zhang,  Yan Zhao

   Please cite Q-Chem as follows:
  "Software for the frontiers of quantum chemistry:
   An overview of developments in the Q-Chem 5 package"
   J. Chem. Phys. 155, 084801 (2021)
   https://doi.org/10.1063/5.0055522 (open access)

 Q-Chem 5.4.2 for Intel X86 EM64T Linux

 Parts of Q-Chem use Armadillo 9.900.5 (Nocturnal Misbehaviour).
 http://arma.sourceforge.net/

 Q-Chem begins on Wed Jan 17 11:43:01 2024  

 Host: 
0

     Scratch files written to /scratch/qchem1031289//
 Dec1321 |scratch|qcdevops|jenkins|workspace|build_RNUM 5684   
 Processing $rem in /home/kchung25/qchem/5.4.0/config/preferences:
 Processing $rem in /home/kchung25/.qchemrc:

 Q-Chem warning in module libgen/rem_setup.C, line 3079:

 Neither GIA nor STOLL is specified by user. Use STOLL as the default


 Checking the input file for inconsistencies... 	...done.

--------------------------------------------------------------
User input:
--------------------------------------------------------------
$molecule
-1 1
--
-1 1
Cl     0.000000     0.000000     0.000000
--
0 1
O      2.229770     1.789189     1.621983
H      1.631070     1.514205     0.937078
H      3.095321     1.957227     1.201820
O     -0.849762    -1.714934    -2.358862
H     -0.445959    -1.021397    -2.934249
H     -1.069056    -1.384646    -1.506905
O     -0.610764     3.422499    -0.224439
H     -0.451227     2.515491    -0.613530
H      0.104167     4.032667    -0.497019
O     -3.173880     0.131157     1.037539
H     -2.298199     0.065462     0.589628
H     -2.996396     0.503443     1.848118
$end

$rem
JOBTYPE          eda
EDA2             1
METHOD           wB97M-V
BASIS            def2-TZVPPD
SYMMETRY         false
MEM_TOTAL        50000
MEM_STATIC       10000
THRESH           14
SCF_CONVERGENCE  8
XC_GRID          000099000590
NL_GRID          1
EDA_CLS_DISP     true
FD_MAT_VEC_PROD  FALSE
$end
--------------------------------------------------------------
 ----------------------------------------------------------------
             Standard Nuclear Orientation (Angstroms)
    I     Atom           X                Y                Z
 ----------------------------------------------------------------
    1      Cl      0.2422930569    -0.5981995997    -0.3924921114
    2      O      -2.9702682269    -1.0175972256    -0.9469792726
    3      H      -2.1513112373    -0.9058943262    -0.4779540485
    4      H      -3.4141107205    -1.8038887666    -0.5745524973
    5      O       2.9120016861    -1.5435239670     0.7058437625
    6      H       2.4238709968    -1.7769076753     1.5319073846
    7      H       2.4547802395    -0.9019950906     0.1935938228
    8      O      -1.7431991990     1.3409539483     1.7133115244
    9      H      -1.0320596477     0.6627395096     1.5294281743
   10      H      -2.4746655098     0.9290494186     2.2163253153
   11      O       1.5456472325     2.4315057433    -0.9304112666
   12      H       1.2731538985     1.5225626537    -0.6633398275
   13      H       0.8479080703     2.7530194791    -1.4171604120
 ----------------------------------------------------------------
 Molecular Point Group                 C1    NOp =  1
 Largest Abelian Subgroup              C1    NOp =  1
 Nuclear Repulsion Energy =         215.65185976 hartrees
 There are       29 alpha and       29 beta electrons
 Requested basis set is def2-TZVPPD
 There are 129 shells and 347 basis functions

 Q-Chem warning in module libmdc/get_mega.C, line 171:

 Allowed MEM_STATIC has been capped at MEM_STATIC=8191.
 Reduce the value of MEM_STATIC to silence this warning.


 Total QAlloc Memory Limit  50000 MB
 Mega-Array Size      8007 MB
 MEM_STATIC part      8191 MB

                       Distance Matrix (Angstroms)
             Cl(  1)   O (  2)   H (  3)   H (  4)   O (  5)   H (  6)
   O (  2)  3.286929
   H (  3)  2.414813  0.950343
   H (  4)  3.854364  0.976705  1.552542
   O (  5)  3.037651  6.132660  5.238806  6.459636
   H (  6)  3.138781  5.984828  5.072524  6.206443  0.987482
   H (  7)  2.308872  5.544855  4.654790  5.987265  0.939687  1.599222
   O (  8)  3.483806  3.761065  3.164890  4.232765  5.568312  5.207537
   H (  9)  2.628254  3.565498  2.782610  4.023078  4.593638  4.230289
   H ( 10)  4.064515  3.747206  3.275777  4.017525  6.116482  5.637933
   O ( 11)  3.341737  5.682436  5.001046  6.531799  4.510556  4.954294
   H ( 12)  2.373534  4.953735  4.202229  5.748357  3.736492  4.126714
   H ( 13)  3.556316  5.386751  4.823388  6.296047  5.218037  5.630355
             H (  7)   O (  8)   H (  9)   H ( 10)   O ( 11)   H ( 12)
   O (  8)  4.996338
   H (  9)  4.048568  0.999754
   H ( 10)  5.634146  0.978637  1.619833
   O ( 11)  3.633475  4.358335  3.977929  5.321864
   H ( 12)  2.830028  3.844456  3.295685  4.763494  0.985778
   H ( 13)  4.305311  4.302048  4.072583  5.250579  0.909470  1.504361

 
 A cutoff of  1.0D-14 yielded   7011 shell pairs
 There are     49443 function pairs (     60394 Cartesian)
 Smallest overlap matrix eigenvalue = 2.47E-04

 Scale SEOQF with 1.000000e-01/1.000000e-01/1.000000e-01

 Standard Electronic Orientation quadrupole field applied
 Nucleus-field energy     =     0.0000000100 hartrees

 -----------------------------------------------------------------------
  General SCF calculation program by
  Eric Jon Sundstrom, Paul Horn, Yuezhi Mao, Dmitri Zuev, Alec White,
  David Stuck, Shaama M.S., Shane Yost, Joonho Lee, David Small,
  Daniel Levine, Susi Lehtola, Hugh Burton, Evgeny Epifanovsky,
  Bang C. Huynh
 -----------------------------------------------------------------------
================================================================
                 ALMO-EDA with the EDA2 driver                  
================================================================
 The second-generation ALMO-EDA (for DFT):                      
 P. R. Horn, Y. Mao and M. Head-Gordon, PCCP, 18, 23067 (2016)  
 Y. Mao et al. Annu. Rev. Phys. Chem. 72, 641 (2021)            
 Decomposition of the frozen energy:                            
 P. R. Horn, Y. Mao and M. Head-Gordon, JCP, 144, 114107 (2016) 
 FERF model for polarization:                                   
 P. R. Horn and M. Head-Gordon, JCP, 143, 114111 (2015)         
================================================================
 Using eda2 option set 1
 Option set summary: Frozen orbital wavefunction, initial wavefunction decomposition, and nDQ polarization.
--------------------------------
Printing EDA Options
--------------------------------
eda_child_super_basis      0
fragmo_guess_mode          0
child_mp                   1
child_mp_orders            232
cls_elec                   1
cls_disp                   1
scfmi_mode                 1
scfmi_occs                 0
scfmi_virts                0
frz_relax                  0
frz_relax_method           0
dc_pen_start               0
dc_pen_conv                0
dc_pen_increment           0
dc_pen_steps               0
dc_pen_thresh_factor       0
dc_pen_pre_newton_thresh   0
frz_ortho_decomp           1
frz_ortho_decomp_conv      6
plot_mo_ortho_frz          0
frgm_method                2
scfmi_freeze_ss            0
separate_rehyb             0
plot_diff_den              0
eda_nocv                   0
eda_vct_relax              1
disp_free_x                0
disp_free_c                0
eda_bsse                   0
eda_pct_a                  0
eda_covp                   0
--------------------------------
Attempting to make child job directory: /scratch/qchem1031289//Frg1/
Attempting to make child job directory: /scratch/qchem1031289//Frg2/
Creating input file /scratch/qchem1031289/Frg1.input
using default PutDataFrgm: nothing
calling putenv with: QCSCRATCH=/scratch/qchem1031289/ 
Spawning Job For Fragment 0
Done Job For Fragment 0
calling putenv with: QCSCRATCH=/scratch 
calling putenv with: QCTHREADS=6 
Creating input file /scratch/qchem1031289/Frg2.input
using default PutDataFrgm: nothing
calling putenv with: QCSCRATCH=/scratch/qchem1031289/ 
Spawning Job For Fragment 1
Done Job For Fragment 1
calling putenv with: QCSCRATCH=/scratch 
calling putenv with: QCTHREADS=6 
Doing General SCFMI
 Exchange:     0.1500 Hartree-Fock + 1.0000 wB97M-V + LR-HF
 Correlation:  1.0000 wB97M-V
 Using Euler-Maclaurin-Lebedev (99,590) quadrature formula
 Nonlocal Correlation:  VV10 with C = 0.0100 and b = 6.00 and scale = 1.00000
 Grid used for NLC:  SG-1 standard quadrature
performing fock build before subrot guess so that all methods have access
Printing subrot_rss_gen Method Specification:
Occupied Subspace Method is 0
Virtual Subspace Method is 0
Energy of the unrelaxed supersystem initial determinant -766.030208920328
write pseudocanon occs and virts to disk
write pseudocanon orbital energies to disk
Tolerance of ortho_decomp_scf: 1.00e-06
GDM subspace size: 20
Beginning the Orthogonal Decomposition of the Initial Supersystem Wavefunction
    1    -765.8233085487      2.83e-01     ortho_decomp Preconditoned Steepest Descent
    2    -765.8662292896      3.79e-03     ortho_decomp BFGS Step
    3    -765.8662794582      2.68e-04     ortho_decomp BFGS Step
    4    -765.8662796300      1.11e-05     ortho_decomp BFGS Step
    5    -765.8662796301      2.40e-07     ortho_decomp 00000 Convergence criterion met
 Hartree-Fock
 Hartree-Fock
 Hartree-Fock
 Exchange:     0.1500 Hartree-Fock + 1.0000 wB97M-V + LR-HF
 Correlation:  1.0000 wB97M-V
 Using Euler-Maclaurin-Lebedev (99,590) quadrature formula
 Nonlocal Correlation:  VV10 with C = 0.0100 and b = 6.00 and scale = 1.00000
 Grid used for NLC:  SG-1 standard quadrature
 Long-range K will be added via erf
 Coulomb attenuation parameter = 0.3 bohr**(-1)
 Nonlocal correlation = 2.403313236415e-01
Doing General SCFMI
 Exchange:     0.1500 Hartree-Fock + 1.0000 wB97M-V + LR-HF
 Correlation:  1.0000 wB97M-V
 Using Euler-Maclaurin-Lebedev (99,590) quadrature formula
 Nonlocal Correlation:  VV10 with C = 0.0100 and b = 6.00 and scale = 1.00000
 Grid used for NLC:  SG-1 standard quadrature
performing fock build at end of subrot_r(subrot) constructor so that all methods have access
<S^2> of initial wavefunction before polarization iterations 0.0000000000
Beginning iterations for the determination of the polarized wavefunction
Energy prior to optimization (guess energy) = -766.030208920328
Begin Timing: Total SCF Calculation
begin iterations for algorithm: DIIS         
the SCF tolerance is set to 1.00e-08
    1    -766.0302089203      6.27e-04     00000 
    2    -766.0443465473      2.31e-04     00000 
    3    -766.0456483452      9.19e-05     00000 
    4    -766.0459299425      3.92e-05     00000 
    5    -766.0459928739      1.85e-05     00000 
    6    -766.0460054885      6.76e-06     00000 
    7    -766.0460079452      2.34e-06     00000 
    8    -766.0460082565      8.81e-07     00000 
    9    -766.0460082715      5.97e-07     00000 
   10    -766.0460082759      2.69e-07     00000 
   11    -766.0460082768      1.11e-07     00000 
   12    -766.0460082770      4.57e-08     00000 
   13    -766.0460082771      1.88e-08     00000 
   14    -766.0460082771      1.02e-08     00000 
   15    -766.0460082771      3.41e-09     00000 Convergence criterion met
write pseudocanon occs and virts to disk
write pseudocanon orbital energies to disk
Timing for Total SCF: 125.00s (wall), 749.31s (cpu)
<S^2> of polarized wavefunction after polarization iterations 0.0000000000
relaxing scfmi constraint to allow all rotations in the entire AO span
Doing General SCFMI
 Exchange:     0.1500 Hartree-Fock + 1.0000 wB97M-V + LR-HF
 Correlation:  1.0000 wB97M-V
 Using Euler-Maclaurin-Lebedev (99,590) quadrature formula
 Nonlocal Correlation:  VV10 with C = 0.0100 and b = 6.00 and scale = 1.00000
 Grid used for NLC:  SG-1 standard quadrature
performing fock build at end of subrot_r(subrot) constructor so that all methods have access
<S^2> of polarized wavefunction before ct-allowed iterations 0.0000000000
Beginning iterations for the determination of the CT-Allowed wavefunction
Energy prior to optimization (guess energy) = -766.046008277083
Begin Timing: Total SCF Calculation
begin iterations for algorithm: DIIS         
the SCF tolerance is set to 1.00e-08
    1    -766.0460082771      3.77e-04     00000 
    2    -766.0568575625      6.28e-05     00000 
    3    -766.0573461205      2.90e-05     00000 
    4    -766.0573874467      1.03e-05     00000 
    5    -766.0573941536      3.87e-06     00000 
    6    -766.0573949037      5.91e-07     00000 
    7    -766.0573949805      1.51e-07     00000 
    8    -766.0573949842      8.95e-08     00000 
    9    -766.0573949847      2.30e-08     00000 
   10    -766.0573949848      4.41e-09     00000 Convergence criterion met
write pseudocanon occs and virts to disk
write pseudocanon orbital energies to disk
Timing for Total SCF: 80.00s (wall), 482.83s (cpu)
<S^2> of ct_allowed wavefunction after ct-allowed iterations 0.0000000000

================================
        Results of EDA2         
================================
Basic EDA Quantities
--------------------
Fragment Energies (Ha):
1 -460.2597934915
2 -305.7327324747
--------------------
  E_prp (kJ/mol) = 0.0000
  E_frz (kJ/mol) = -98.9378
  E_pol (kJ/mol) = -41.4817
  E_vct (kJ/mol) = -29.8962
  E_int (kJ/mol) = -170.3156
--------------------


Decomposition of frozen interaction energy
--------------------
  --------------------
  Orthogonal Frozen Decomposition:
  --------------------
     E_elec   (ELEC)   (kJ/mol) = -322.3535
     E_pauli  (PAULI)  (kJ/mol) = 260.7508
     E_disp   (DISP)   (kJ/mol) = -37.3351
  --------------------
  Classical Frozen Decomposition:
  --------------------
     E_cls_elec  (CLS ELEC)  (kJ/mol) = -202.5731
     E_mod_pauli (MOD PAULI) (kJ/mol) = 139.3245 (FRZ - CLS ELEC - CLS DISP)
     E_cls_disp  (CLS DISP)  (kJ/mol) = -35.6892
  --------------------
--------------------

Simplified EDA Summary (kJ/mol)
--------------------
 PREPARATION      0.0000
 FROZEN           -98.9378 (ELEC + PAULI + DISP)
[ELEC + PAULI = -63.2486, DISP = -35.6892]
 POLARIZATION    -41.4817
 CHARGE TRANSFER -29.8962
 TOTAL           -170.3156     (PRP + FRZ + POL + CT)
--------------------
 
 --------------------------------------------------------------
 
                    Orbital Energies (a.u.)
 --------------------------------------------------------------
 
 Alpha MOs
 -- Occupied --
******** -19.2014 -19.1913 -19.1755 -19.1748  -9.3917  -7.0913  -7.0909
 -7.0906  -0.9948  -0.9920  -0.9900  -0.9784  -0.6778  -0.5017  -0.4998
 -0.4961  -0.4904  -0.3585  -0.3550  -0.3518  -0.3384  -0.2913  -0.2821
 -0.2748  -0.2723  -0.2004  -0.1954  -0.1909
 -- Virtual --
  0.1357   0.1512   0.1576   0.1648   0.1890   0.1902   0.1921   0.2000
  0.2056   0.2230   0.2264   0.2307   0.2368   0.2412   0.2592   0.2642
  0.2764   0.2803   0.3085   0.3163   0.3227   0.3324   0.3457   0.3521
  0.3625   0.3668   0.3725   0.3751   0.3834   0.3929   0.3995   0.4041
  0.4233   0.4252   0.4302   0.4367   0.4394   0.4460   0.4554   0.4723
  0.4759   0.4877   0.4943   0.5036   0.5147   0.5174   0.5209   0.5317
  0.5537   0.5592   0.5605   0.5736   0.5832   0.5927   0.6139   0.6196
  0.6259   0.6370   0.6411   0.6438   0.6550   0.6681   0.6719   0.6804
  0.6985   0.7011   0.7152   0.7210   0.7268   0.7401   0.7440   0.7486
  0.7664   0.7698   0.7781   0.8067   0.8293   0.8538   0.8741   0.8775
  0.8913   0.9050   0.9212   0.9405   0.9458   0.9505   0.9570   0.9749
  0.9783   0.9909   0.9996   1.0202   1.0368   1.0439   1.0497   1.0683
  1.0707   1.0830   1.0865   1.0968   1.1083   1.1254   1.1499   1.1567
  1.1640   1.2096   1.2204   1.2243   1.2417   1.2697   1.2718   1.2827
  1.3048   1.3167   1.3277   1.3405   1.3580   1.3614   1.3745   1.3840
  1.3937   1.4052   1.4153   1.4303   1.4457   1.4691   1.5275   1.5476
  1.5611   1.5825   1.6023   1.6391   1.6542   1.7264   2.0494   2.0783
  2.0835   2.0920   2.1269   2.1558   2.1654   2.1723   2.1843   2.2053
  2.2206   2.2436   2.2598   2.2894   2.3025   2.3254   2.3381   2.3609
  2.3701   2.3734   2.3853   2.3866   2.4087   2.4399   2.4428   2.4503
  2.4711   2.4817   2.5016   2.5880   2.5994   2.6562   2.7131   2.7427
  2.8025   2.8361   2.8447   2.9033   2.9256   2.9483   2.9610   2.9820
  3.0424   3.1069   3.1348   3.1656   3.1794   3.3140   3.3589   3.3689
  3.3814   3.3849   3.4058   3.4244   3.4475   3.4588   3.4631   3.4781
  3.4977   3.5244   3.5410   3.5505   3.5591   3.5708   3.5958   3.6024
  3.6104   3.6224   3.6287   3.6395   3.6550   3.7537   3.8024   3.8093
  3.8253   3.8909   3.9054   3.9094   3.9385   4.0285   4.0517   4.0634
  4.0681   4.1101   4.1246   4.1329   4.1616   4.1707   4.2021   4.2057
  4.2218   4.2293   4.2611   4.2762   4.2818   4.3144   4.3609   4.3800
  4.3901   4.3968   4.4058   4.4249   4.4275   4.4424   4.4475   4.4801
  4.5124   4.8354   4.8583   4.8851   4.8872   4.9160   4.9379   4.9589
  5.0122   5.1310   5.1587   5.1827   5.2145   5.2668   5.3568   5.3702
  5.4663   5.7677   5.8199   5.8389   5.8964   6.1974   6.2566   6.3474
  6.4714   6.6080   6.6565   6.6741   6.6795   6.6859   6.7652   6.7744
  6.7896   6.7942   6.8117   6.8533   6.8631   6.8695   6.8748   6.8826
  6.8895   6.8953   6.9170   6.9524   6.9896   7.0287   7.0337   7.0402
  7.1113   7.2404   7.2594   7.2775   7.3235   7.5345   7.6019   7.6313
  7.6568   7.7209   7.7520   7.7604   7.8721   7.9818   8.0166   8.0764
  8.0852   8.5289   8.5475   8.5716   8.6158   8.6734  11.3262  11.4201
 11.4837  25.6901  44.4634  44.5623  44.6326  44.6669
 --------------------------------------------------------------
 
          Ground-State Mulliken Net Atomic Charges

     Atom                 Charge (a.u.)
  ----------------------------------------
      1 Cl                   -0.823451
      2 O                    -0.418252
      3 H                     0.198865
      4 H                     0.147712
      5 O                    -0.445179
      6 H                     0.178900
      7 H                     0.244461
      8 O                    -0.426882
      9 H                     0.240500
     10 H                     0.153756
     11 O                    -0.411541
     12 H                     0.272922
     13 H                     0.088190
  ----------------------------------------
  Sum of atomic charges =    -1.000000

 -----------------------------------------------------------------
                    Cartesian Multipole Moments
 -----------------------------------------------------------------
    Charge (ESU x 10^10)
                -4.8032
    Dipole Moment (Debye)
         X      -3.5482      Y      -1.1389      Z       2.8740
       Tot       4.7060
    Quadrupole Moments (Debye-Ang)
        XX     -66.1562     XY       4.8456     YY     -55.3828
        XZ      -4.5386     YZ      -6.6531     ZZ     -45.0009
    Octopole Moments (Debye-Ang^2)
       XXX     -55.7336    XXY      -4.4541    XYY     -33.4102
       YYY     -15.3541    XXZ      21.1104    XYZ      11.2414
       YYZ      -4.3266    XZZ       2.0439    YZZ      -3.3571
       ZZZ      12.9879
    Hexadecapole Moments (Debye-Ang^3)
      XXXX   -1228.7934   XXXY      99.2846   XXYY    -315.4231
      XYYY       8.6577   YYYY    -594.7736   XXXZ     -95.4978
      XXYZ      12.1658   XYYZ      28.5757   YYYZ     -36.9846
      XXZZ    -221.5360   XYZZ     -18.8048   YYZZ    -140.6007
      XZZZ     -13.1691   YZZZ     -34.5895   ZZZZ    -295.1597
 -----------------------------------------------------------------
 Total job time:  780.82s(wall), 2122.28s(cpu) 
 Wed Jan 17 11:56:01 2024

        *************************************************************
        *                                                           *
        *  Thank you very much for using Q-Chem.  Have a nice day.  *
        *                                                           *
        *************************************************************


