
Running Job 1 of 1 123_Br-Water_Cls_007_almo.in
qchem 123_Br-Water_Cls_007_almo.in_1063501.0 /scratch/qchem1063501/ 6
/home/kchung25/qchem/5.4.0/exe/qcprog.exe_s 123_Br-Water_Cls_007_almo.in_1063501.0 /scratch/qchem1063501/
                  Welcome to Q-Chem
     A Quantum Leap Into The Future Of Chemistry


 Q-Chem 5.4, Q-Chem, Inc., Pleasanton, CA (2021)

 E. Epifanovsky,  A. T. B. Gilbert,  Xintian Feng,  Joonho Lee,  Yuezhi Mao,  
 N. Mardirossian,  P. Pokhilko,  A. White,  M. Wormit,  M. P. Coons,  
 A. L. Dempwolff,  Zhengting Gan,  D. Hait,  P. R. Horn,  L. D. Jacobson,  
 I. Kaliman,  J. Kussmann,  A. W. Lange,  Ka Un Lao,  D. S. Levine,  Jie Liu,  
 S. C. McKenzie,  A. F. Morrison,  K. Nanda,  F. Plasser,  D. R. Rehn,  
 M. L. Vidal,  Zhi-Qiang You,  Ying Zhu,  B. Alam,  B. Albrecht,  
 A. Aldossary,  E. Alguire,  J. H. Andersen,  D. Barton,  K. Begam,  A. Behn,  
 Y. A. Bernard,  E. J. Berquist,  H. Burton,  A. Carreras,  K. Carter-Fenk,  
 Romit Chakraborty,  A. D. Chien,  K. D. Closser,  V. Cofer-Shabica,  
 S. Dasgupta,  Jia Deng,  M. de Wergifosse,  M. Diedenhofen,  Hainam Do,  
 S. Ehlert,  Po-Tung Fang,  S. Fatehi,  Qingguo Feng,  T. Friedhoff,  
 J. Gayvert,  Qinghui Ge,  G. Gidofalvi,  M. Goldey,  J. Gomes,  
 C. Gonzalez-Espinoza,  S. Gulania,  A. Gunina,  M. W. D. Hanson-Heine,  
 P. H. P. Harbach,  A. W. Hauser,  M. F. Herbst,  M. Hernandez Vera,  
 M. Hodecker,  Z. C. Holden,  S. Houck,  Xunkun Huang,  Kerwin Hui,  
 B. C. Huynh,  M. Ivanov,  Hyunjun Ji,  Hanjie Jiang,  B. Kaduk,  S. Kaehler,  
 K. Khistyaev,  Jaehoon Kim,  P. Klunzinger,  Z. Koczor-Benda,  
 Joong Hoon Koh,  D. Kosenkov,  L. Koulias,  T. Kowalczyk,  C. M. Krauter,  
 K. Kue,  A. Kunitsa,  T. Kus,  A. Landau,  K. V. Lawler,  D. Lefrancois,  
 S. Lehtola,  Rain Li,  Yi-Pei Li,  Jiashu Liang,  M. Liebenthal,  
 Hung-Hsuan Lin,  You-Sheng Lin,  Fenglai Liu,  Kuan-Yu Liu,  
 M. Loipersberger,  A. Luenser,  A. Manjanath,  P. Manohar,  E. Mansoor,  
 S. F. Manzer,  Shan-Ping Mao,  A. V. Marenich,  T. Markovich,  S. Mason,  
 S. A. Maurer,  P. F. McLaughlin,  M. F. S. J. Menger,  J.-M. Mewes,  
 S. A. Mewes,  P. Morgante,  J. W. Mullinax,  K. J. Oosterbaan,  G. Paran,  
 Alexander C. Paul,  Suranjan K. Paul,  F. Pavosevic,  Zheng Pei,  S. Prager,  
 E. I. Proynov,  E. Ramos,  B. Rana,  A. E. Rask,  A. Rettig,  R. M. Richard,  
 F. Rob,  E. Rossomme,  T. Scheele,  M. Scheurer,  M. Schneider,  
 N. Sergueev,  S. M. Sharada,  W. Skomorowski,  D. W. Small,  C. J. Stein,  
 Yu-Chuan Su,  E. J. Sundstrom,  Zhen Tao,  J. Thirman,  T. Tsuchimochi,  
 N. M. Tubman,  S. P. Veccham,  O. Vydrov,  J. Wenzel,  J. Witte,  A. Yamada,  
 Kun Yao,  S. Yeganeh,  S. R. Yost,  A. Zech,  Igor Ying Zhang,  Xing Zhang,  
 Yu Zhang,  D. Zuev,  A. Aspuru-Guzik,  A. T. Bell,  N. A. Besley,  
 K. B. Bravaya,  B. R. Brooks,  D. Casanova,  Jeng-Da Chai,  S. Coriani,  
 C. J. Cramer,  A. E. DePrince, III,  R. A. DiStasio Jr.,  A. Dreuw,  
 B. D. Dunietz,  T. R. Furlani,  W. A. Goddard III,  S. Grimme,  
 S. Hammes-Schiffer,  T. Head-Gordon,  W. J. Hehre,  Chao-Ping Hsu,  
 T.-C. Jagau,  Yousung Jung,  A. Klamt,  Jing Kong,  D. S. Lambrecht,  
 WanZhen Liang,  N. J. Mayhall,  C. W. McCurdy,  J. B. Neaton,  T. Neudecker,  
 C. Ochsenfeld,  J. A. Parkhill,  R. Peverati,  V. A. Rassolov,  Yihan Shao,  
 L. V. Slipchenko,  R. P. Steele,  J. E. Subotnik,  A. J. W. Thom,  
 A. Tkatchenko,  D. G. Truhlar,  T. Van Voorhis,  T. A. Wesolowski,  
 K. B. Whaley,  H. L. Woodcock III,  P. M. Zimmerman,  S. Faraji,  
 P. M. W. Gill,  M. Head-Gordon,  J. M. Herbert,  A. I. Krylov

 Additional authors since Version 5.4.0: 
 Chandrima Chakravarty,  L. Cunha,  R. Kang,  Yongbin Kim,  S. Kotaru,  
 Shaozhi Li,  Xiangyuan Li,  F. Matz,  A. Molle,  V. Parravicini,  
 Haisheng Ren,  Hengyuan Shen,  Yingli Su,  Hung-Yi Tsai,  C. Utku,  
 Fang Wang,  Jeff Yang,  F. Zeller

 Contributors to earlier versions of Q-Chem not listed above: 
 R. D. Adamson,  B. Austin,  R. Baer,  J. Baker,  G. J. O. Beran,  
 K. Brandhorst,  S. T. Brown,  E. F. C. Byrd,  Arup K. Chakraborty,  
 G. K. L. Chan,  Chun-Min Chang,  Yunqing Chen,  C.-L. Cheng,  
 Siu Hung Chien,  D. M. Chipman,  D. L. Crittenden,  H. Dachsel,  
 R. J. Doerksen,  A. D. Dutoi,  R. G. Edgar,  J. Fosso-Tande,  
 L. Fusti-Molnar,  D. Ghosh,  A. Ghysels,  A. Golubeva-Zadorozhnaya,  
 J. Gonthier,  M. S. Gordon,  S. R. Gwaltney,  G. Hawkins,  J. E. Herr,  
 A. Heyden,  S. Hirata,  E. G. Hohenstein,  G. Kedziora,  F. J. Keil,  
 C. Kelley,  Jihan Kim,  R. A. King,  R. Z. Khaliullin,  P. P. Korambath,  
 W. Kurlancheek,  A. Laurent,  A. M. Lee,  M. S. Lee,  S. V. Levchenko,  
 Ching Yeh Lin,  D. Liotard,  E. Livshits,  R. C. Lochan,  I. Lotan,  
 L. A. Martinez-Martinez,  P. E. Maslen,  N. Nair,  D. P. O'Neill,  
 D. Neuhauser,  E. Neuscamman,  C. M. Oana,  R. Olivares-Amaya,  R. Olson,  
 T. M. Perrine,  B. Peters,  P. A. Pieniazek,  A. Prociuk,  Y. M. Rhee,  
 J. Ritchie,  M. A. Rohrdanz,  E. Rosta,  N. J. Russ,  H. F. Schaefer III,  
 M. W. Schmidt,  N. E. Schultz,  S. Sharma,  N. Shenvi,  C. D. Sherrill,  
 A. C. Simmonett,  A. Sodt,  T. Stein,  D. Stuck,  K. S. Thanthiriwatte,  
 V. Vanovschi,  L. Vogt,  Tao Wang,  A. Warshel,  M. A. Watson,  
 C. F. Williams,  Q. Wu,  X. Xu,  Jun Yang,  W. Zhang,  Yan Zhao

   Please cite Q-Chem as follows:
  "Software for the frontiers of quantum chemistry:
   An overview of developments in the Q-Chem 5 package"
   J. Chem. Phys. 155, 084801 (2021)
   https://doi.org/10.1063/5.0055522 (open access)

 Q-Chem 5.4.2 for Intel X86 EM64T Linux

 Parts of Q-Chem use Armadillo 9.900.5 (Nocturnal Misbehaviour).
 http://arma.sourceforge.net/

 Q-Chem begins on Thu Jan 18 21:19:03 2024  

 Host: 
0

     Scratch files written to /scratch/qchem1063501//
 Dec1321 |scratch|qcdevops|jenkins|workspace|build_RNUM 5684   
 Processing $rem in /home/kchung25/qchem/5.4.0/config/preferences:
 Processing $rem in /home/kchung25/.qchemrc:

 Q-Chem warning in module libgen/rem_setup.C, line 3079:

 Neither GIA nor STOLL is specified by user. Use STOLL as the default


 Checking the input file for inconsistencies... 	...done.

--------------------------------------------------------------
User input:
--------------------------------------------------------------
$molecule
-1 1
--
-1 1
Br     0.000000     0.000000     0.000000
--
0 1
O     -1.837505     2.686087     1.441240
H     -1.395781     2.850014     0.561055
H     -1.247273     2.007246     1.809128
O      2.018282     0.967796     2.748598
H      1.377311     1.015065     1.933015
H      2.889078     0.608425     2.456849
O     -0.998379     0.096685     3.070896
H     -0.488891     0.217516     2.223392
H     -1.866484     0.371090     2.902094
O     -3.343571     0.637488    -0.842857
H     -3.282439     0.319505    -1.793616
H     -2.688556     0.274884    -0.310570
O      1.336103    -3.264628    -0.543756
H      0.839531    -2.590942    -1.024661
H      1.966802    -2.869397     0.087043
O     -0.753078    -3.228067     1.448531
H      0.057408    -3.187980     0.982465
H     -1.283212    -2.484986     1.163089
O      3.039103     0.547804    -1.228230
H      3.591640    -0.311332    -1.209765
H      2.221180     0.248292    -0.808211
$end

$rem
JOBTYPE          eda
EDA2             1
METHOD           wB97M-V
BASIS            def2-TZVPPD
SYMMETRY         false
MEM_TOTAL        50000
MEM_STATIC       10000
THRESH           14
SCF_CONVERGENCE  8
XC_GRID          000099000590
NL_GRID          1
EDA_CLS_DISP     true
FD_MAT_VEC_PROD  FALSE
$end
--------------------------------------------------------------
 ----------------------------------------------------------------
             Standard Nuclear Orientation (Angstroms)
    I     Atom           X                Y                Z
 ----------------------------------------------------------------
    1      Br     -0.0593726492     0.0065938680     0.5683838375
    2      O       3.3238752820     1.0189363718     0.1240226949
    3      H       2.8908212933     1.2301062433     0.9984306751
    4      H       2.5463239188     1.0128223262    -0.4590013128
    5      O      -0.3172910746     2.6613862197    -1.7662334651
    6      H      -0.0007127615     2.0833283649    -0.9638114445
    7      H      -1.2590758300     2.9196729426    -1.6288285470
    8      O       1.4639705111     0.1065032673    -2.2787119789
    9      H       0.9611482727     0.3395704105    -1.4508891198
   10      H       2.2429684898    -0.3147648085    -2.0083532031
   11      O       2.6342326318    -1.9577366719     1.6556565840
   12      H       2.1677791528    -2.3585320982     2.4497454732
   13      H       2.0441499788    -1.6586728444     1.0183034235
   14      O      -3.2197030486    -1.5474429730    -0.0112014071
   15      H      -2.5416504954    -1.5082406796     0.6746660087
   16      H      -3.2957805309    -0.7035768580    -0.4949351634
   17      O      -1.1729218577    -2.4610736468    -1.8308681887
   18      H      -1.8613006358    -1.9985200424    -1.3974043944
   19      H      -0.3808094376    -2.3505940754    -1.3064249181
   20      O      -2.2710711240     2.1412936944     1.8318044751
   21      H      -3.2147688390     1.9027324565     1.5215208670
   22      H      -1.7497804140     1.4789531923     1.3577976318
 ----------------------------------------------------------------
 Molecular Point Group                 C1    NOp =  1
 Largest Abelian Subgroup              C1    NOp =  1
 Nuclear Repulsion Energy =         690.71556079 hartrees
 There are       53 alpha and       53 beta electrons
 Requested basis set is def2-TZVPPD
 There are 215 shells and 575 basis functions

 Q-Chem warning in module libmdc/get_mega.C, line 171:

 Allowed MEM_STATIC has been capped at MEM_STATIC=8191.
 Reduce the value of MEM_STATIC to silence this warning.


 Total QAlloc Memory Limit  50000 MB
 Mega-Array Size      8007 MB
 MEM_STATIC part      8191 MB
 A cutoff of  1.0D-14 yielded  18875 shell pairs
 There are    130895 function pairs (    158926 Cartesian)
 Smallest overlap matrix eigenvalue = 9.46E-05

 Scale SEOQF with 1.000000e-01/1.000000e-01/1.000000e-01

 Standard Electronic Orientation quadrupole field applied
 Nucleus-field energy     =     0.0000000110 hartrees

 -----------------------------------------------------------------------
  General SCF calculation program by
  Eric Jon Sundstrom, Paul Horn, Yuezhi Mao, Dmitri Zuev, Alec White,
  David Stuck, Shaama M.S., Shane Yost, Joonho Lee, David Small,
  Daniel Levine, Susi Lehtola, Hugh Burton, Evgeny Epifanovsky,
  Bang C. Huynh
 -----------------------------------------------------------------------
================================================================
                 ALMO-EDA with the EDA2 driver                  
================================================================
 The second-generation ALMO-EDA (for DFT):                      
 P. R. Horn, Y. Mao and M. Head-Gordon, PCCP, 18, 23067 (2016)  
 Y. Mao et al. Annu. Rev. Phys. Chem. 72, 641 (2021)            
 Decomposition of the frozen energy:                            
 P. R. Horn, Y. Mao and M. Head-Gordon, JCP, 144, 114107 (2016) 
 FERF model for polarization:                                   
 P. R. Horn and M. Head-Gordon, JCP, 143, 114111 (2015)         
================================================================
 Using eda2 option set 1
 Option set summary: Frozen orbital wavefunction, initial wavefunction decomposition, and nDQ polarization.
--------------------------------
Printing EDA Options
--------------------------------
eda_child_super_basis      0
fragmo_guess_mode          0
child_mp                   1
child_mp_orders            232
cls_elec                   1
cls_disp                   1
scfmi_mode                 1
scfmi_occs                 0
scfmi_virts                0
frz_relax                  0
frz_relax_method           0
dc_pen_start               0
dc_pen_conv                0
dc_pen_increment           0
dc_pen_steps               0
dc_pen_thresh_factor       0
dc_pen_pre_newton_thresh   0
frz_ortho_decomp           1
frz_ortho_decomp_conv      6
plot_mo_ortho_frz          0
frgm_method                2
scfmi_freeze_ss            0
separate_rehyb             0
plot_diff_den              0
eda_nocv                   0
eda_vct_relax              1
disp_free_x                0
disp_free_c                0
eda_bsse                   0
eda_pct_a                  0
eda_covp                   0
--------------------------------
Attempting to make child job directory: /scratch/qchem1063501//Frg1/
Attempting to make child job directory: /scratch/qchem1063501//Frg2/
Creating input file /scratch/qchem1063501/Frg1.input
using default PutDataFrgm: nothing
calling putenv with: QCSCRATCH=/scratch/qchem1063501/ 
Spawning Job For Fragment 0
Done Job For Fragment 0
calling putenv with: QCSCRATCH=/scratch 
calling putenv with: QCTHREADS=6 
Creating input file /scratch/qchem1063501/Frg2.input
using default PutDataFrgm: nothing
calling putenv with: QCSCRATCH=/scratch/qchem1063501/ 
Spawning Job For Fragment 1
Done Job For Fragment 1
calling putenv with: QCSCRATCH=/scratch 
calling putenv with: QCTHREADS=6 
Doing General SCFMI
 Exchange:     0.1500 Hartree-Fock + 1.0000 wB97M-V + LR-HF
 Correlation:  1.0000 wB97M-V
 Using Euler-Maclaurin-Lebedev (99,590) quadrature formula
 Nonlocal Correlation:  VV10 with C = 0.0100 and b = 6.00 and scale = 1.00000
 Grid used for NLC:  SG-1 standard quadrature
performing fock build before subrot guess so that all methods have access
Printing subrot_rss_gen Method Specification:
Occupied Subspace Method is 0
Virtual Subspace Method is 0
Energy of the unrelaxed supersystem initial determinant -3109.177751209661
write pseudocanon occs and virts to disk
write pseudocanon orbital energies to disk
Tolerance of ortho_decomp_scf: 1.00e-06
GDM subspace size: 20
Beginning the Orthogonal Decomposition of the Initial Supersystem Wavefunction
    1   -3108.8307837767      4.05e-01     ortho_decomp Preconditoned Steepest Descent
    2   -3108.9249532929      2.62e-03     ortho_decomp BFGS Step
    3   -3108.9250537379      3.37e-04     ortho_decomp BFGS Step
    4   -3108.9250541666      1.04e-05     ortho_decomp BFGS Step
    5   -3108.9250541670      2.52e-07     ortho_decomp 00000 Convergence criterion met
 Hartree-Fock
 Hartree-Fock
 Hartree-Fock
 Exchange:     0.1500 Hartree-Fock + 1.0000 wB97M-V + LR-HF
 Correlation:  1.0000 wB97M-V
 Using Euler-Maclaurin-Lebedev (99,590) quadrature formula
 Nonlocal Correlation:  VV10 with C = 0.0100 and b = 6.00 and scale = 1.00000
 Grid used for NLC:  SG-1 standard quadrature
 Long-range K will be added via erf
 Coulomb attenuation parameter = 0.3 bohr**(-1)
 Nonlocal correlation = 4.351195120513e-01
Doing General SCFMI
 Exchange:     0.1500 Hartree-Fock + 1.0000 wB97M-V + LR-HF
 Correlation:  1.0000 wB97M-V
 Using Euler-Maclaurin-Lebedev (99,590) quadrature formula
 Nonlocal Correlation:  VV10 with C = 0.0100 and b = 6.00 and scale = 1.00000
 Grid used for NLC:  SG-1 standard quadrature
performing fock build at end of subrot_r(subrot) constructor so that all methods have access
<S^2> of initial wavefunction before polarization iterations 0.0000000000
Beginning iterations for the determination of the polarized wavefunction
Energy prior to optimization (guess energy) = -3109.177751209662
Begin Timing: Total SCF Calculation
begin iterations for algorithm: DIIS         
the SCF tolerance is set to 1.00e-08
    1   -3109.1777512097      4.32e-04     00000 
    2   -3109.1955248970      1.75e-04     00000 
    3   -3109.1974009110      7.45e-05     00000 
    4   -3109.1978146226      2.87e-05     00000 
    5   -3109.1979557649      1.26e-05     00000 
    6   -3109.1979897135      8.62e-06     00000 
    7   -3109.1979999223      3.81e-06     00000 
    8   -3109.1980037053      1.91e-06     00000 
    9   -3109.1980040782      1.35e-06     00000 
   10   -3109.1980041563      9.28e-07     00000 
   11   -3109.1980041788      5.66e-07     00000 
   12   -3109.1980041915      3.05e-07     00000 
   13   -3109.1980042024      1.61e-07     00000 
   14   -3109.1980042059      8.51e-08     00000 
   15   -3109.1980042065      4.29e-08     00000 
   16   -3109.1980042068      1.86e-08     00000 
   17   -3109.1980042069      8.09e-09     00000 Convergence criterion met
write pseudocanon occs and virts to disk
write pseudocanon orbital energies to disk
Timing for Total SCF: 695.00s (wall), 4164.85s (cpu)
<S^2> of polarized wavefunction after polarization iterations 0.0000000000
relaxing scfmi constraint to allow all rotations in the entire AO span
Doing General SCFMI
 Exchange:     0.1500 Hartree-Fock + 1.0000 wB97M-V + LR-HF
 Correlation:  1.0000 wB97M-V
 Using Euler-Maclaurin-Lebedev (99,590) quadrature formula
 Nonlocal Correlation:  VV10 with C = 0.0100 and b = 6.00 and scale = 1.00000
 Grid used for NLC:  SG-1 standard quadrature
performing fock build at end of subrot_r(subrot) constructor so that all methods have access
<S^2> of polarized wavefunction before ct-allowed iterations 0.0000000000
Beginning iterations for the determination of the CT-Allowed wavefunction
Energy prior to optimization (guess energy) = -3109.198004206879
Begin Timing: Total SCF Calculation
begin iterations for algorithm: DIIS         
the SCF tolerance is set to 1.00e-08
    1   -3109.1980042069      3.66e-04     00000 
    2   -3109.2140194486      4.42e-05     00000 
    3   -3109.2146823970      2.12e-05     00000 
    4   -3109.2147350911      9.90e-06     00000 
    5   -3109.2147486629      2.40e-06     00000 
    6   -3109.2147495529      7.20e-07     00000 
    7   -3109.2147497357      1.90e-07     00000 
    8   -3109.2147497516      6.39e-08     00000 
    9   -3109.2147497527      3.26e-08     00000 
   10   -3109.2147497529      5.08e-09     00000 Convergence criterion met
write pseudocanon occs and virts to disk
write pseudocanon orbital energies to disk
Timing for Total SCF: 386.00s (wall), 2312.87s (cpu)
<S^2> of ct_allowed wavefunction after ct-allowed iterations 0.0000000000

================================
        Results of EDA2         
================================
Basic EDA Quantities
--------------------
Fragment Energies (Ha):
1-2574.0946475100
2 -535.0216995088
--------------------
  E_prp (kJ/mol) = 0.0000
  E_frz (kJ/mol) = -161.2186
  E_pol (kJ/mol) = -53.1749
  E_vct (kJ/mol) = -43.9660
  E_int (kJ/mol) = -258.3594
--------------------


Decomposition of frozen interaction energy
--------------------
  --------------------
  Orthogonal Frozen Decomposition:
  --------------------
     E_elec   (ELEC)   (kJ/mol) = -483.3550
     E_pauli  (PAULI)  (kJ/mol) = 383.8746
     E_disp   (DISP)   (kJ/mol) = -61.7382
  --------------------
  Classical Frozen Decomposition:
  --------------------
     E_cls_elec  (CLS ELEC)  (kJ/mol) = -316.1901
     E_mod_pauli (MOD PAULI) (kJ/mol) = 215.6305 (FRZ - CLS ELEC - CLS DISP)
     E_cls_disp  (CLS DISP)  (kJ/mol) = -60.6590
  --------------------
--------------------

Simplified EDA Summary (kJ/mol)
--------------------
 PREPARATION      0.0000
 FROZEN           -161.2186 (ELEC + PAULI + DISP)
[ELEC + PAULI = -100.5596, DISP = -60.6590]
 POLARIZATION    -53.1749
 CHARGE TRANSFER -43.9660
 TOTAL           -258.3594     (PRP + FRZ + POL + CT)
--------------------
 
 --------------------------------------------------------------
 
                    Orbital Energies (a.u.)
 --------------------------------------------------------------
 
 Alpha MOs
 -- Occupied --
******** -62.6211 -56.3064 -56.3064 -56.3061 -19.2417 -19.2223 -19.2132
-19.2125 -19.2117 -19.1951 -19.1876  -8.7030  -6.4822  -6.4819  -6.4811
 -2.5646  -2.5646  -2.5639  -2.5636  -2.5635  -1.0427  -1.0176  -1.0116
 -1.0101  -1.0024  -1.0017  -0.9899  -0.6980  -0.5568  -0.5343  -0.5165
 -0.5116  -0.5031  -0.4988  -0.4937  -0.4003  -0.3907  -0.3867  -0.3714
 -0.3702  -0.3667  -0.3601  -0.3265  -0.3103  -0.3088  -0.2974  -0.2960
 -0.2937  -0.2828  -0.2321  -0.2309  -0.2241
 -- Virtual --
  0.1089   0.1211   0.1342   0.1409   0.1515   0.1578   0.1584   0.1726
  0.1766   0.1833   0.1919   0.1961   0.1994   0.2070   0.2082   0.2146
  0.2239   0.2269   0.2314   0.2321   0.2391   0.2455   0.2517   0.2540
  0.2603   0.2648   0.2704   0.2799   0.2815   0.2822   0.2906   0.2928
  0.3093   0.3141   0.3153   0.3278   0.3294   0.3377   0.3467   0.3542
  0.3556   0.3611   0.3642   0.3749   0.3847   0.3857   0.3891   0.3980
  0.3991   0.4050   0.4084   0.4158   0.4183   0.4253   0.4291   0.4323
  0.4365   0.4427   0.4451   0.4521   0.4597   0.4691   0.4714   0.4743
  0.4805   0.4831   0.4892   0.4899   0.4930   0.4978   0.4990   0.5071
  0.5149   0.5182   0.5238   0.5326   0.5361   0.5423   0.5460   0.5520
  0.5638   0.5678   0.5706   0.5795   0.5824   0.5885   0.5917   0.5995
  0.6025   0.6137   0.6210   0.6225   0.6336   0.6387   0.6442   0.6491
  0.6572   0.6631   0.6698   0.6715   0.6762   0.6816   0.6892   0.6917
  0.7017   0.7058   0.7138   0.7192   0.7235   0.7324   0.7337   0.7382
  0.7488   0.7519   0.7638   0.7662   0.7717   0.7819   0.7844   0.7987
  0.8002   0.8039   0.8127   0.8193   0.8297   0.8406   0.8451   0.8501
  0.8547   0.8661   0.8734   0.8880   0.8895   0.9014   0.9054   0.9247
  0.9270   0.9329   0.9368   0.9395   0.9629   0.9693   0.9756   0.9835
  0.9879   1.0008   1.0055   1.0132   1.0296   1.0341   1.0378   1.0416
  1.0504   1.0633   1.0704   1.0788   1.0833   1.0880   1.1062   1.1082
  1.1119   1.1144   1.1269   1.1448   1.1508   1.1523   1.1565   1.1669
  1.1765   1.1870   1.2062   1.2146   1.2320   1.2396   1.2498   1.2547
  1.2631   1.2696   1.2805   1.2871   1.2935   1.3103   1.3138   1.3173
  1.3278   1.3412   1.3455   1.3592   1.3638   1.3718   1.3748   1.3800
  1.3910   1.3938   1.4073   1.4257   1.4299   1.4373   1.4382   1.4524
  1.4555   1.4754   1.4824   1.4978   1.5127   1.5144   1.5271   1.5436
  1.5595   1.5681   1.5803   1.5991   1.6067   1.6182   1.6402   1.6561
  1.6719   1.7135   1.7265   1.7834   1.8402   1.8542   1.8614   1.8779
  1.8967   1.9089   1.9172   1.9491   1.9646   1.9751   2.0089   2.0679
  2.0711   2.0742   2.0855   2.0929   2.1204   2.1272   2.1323   2.1385
  2.1485   2.1585   2.1730   2.1787   2.1886   2.2027   2.2085   2.2253
  2.2385   2.2476   2.2634   2.2864   2.2962   2.3179   2.3259   2.3485
  2.3647   2.3682   2.3802   2.3921   2.4057   2.4281   2.4391   2.4601
  2.4696   2.4752   2.4790   2.4984   2.5030   2.5564   2.5718   2.7586
  2.7936   2.8008   2.8171   2.8606   2.9216   2.9389   2.9509   2.9669
  2.9777   2.9870   3.0183   3.0352   3.0485   3.1139   3.1616   3.1708
  3.2039   3.2150   3.2350   3.2942   3.3057   3.3425   3.3450   3.3624
  3.3669   3.3839   3.3906   3.3995   3.4068   3.4152   3.4221   3.4263
  3.4318   3.4533   3.4637   3.4694   3.4779   3.4821   3.4938   3.4977
  3.5039   3.5251   3.5293   3.5318   3.5344   3.5428   3.5567   3.5575
  3.5657   3.5753   3.5815   3.5927   3.5970   3.6009   3.6146   3.6215
  3.6337   3.6426   3.6517   3.6683   3.6934   3.7087   3.7554   3.7628
  3.7747   3.7964   3.8181   3.8321   3.8575   3.8956   3.9108   3.9181
  3.9336   3.9530   3.9699   3.9866   4.0082   4.0344   4.0621   4.0708
  4.0757   4.0894   4.0927   4.1088   4.1398   4.1451   4.1536   4.1608
  4.1707   4.1778   4.1912   4.1947   4.2069   4.2189   4.2211   4.2266
  4.2365   4.2384   4.2521   4.2678   4.2725   4.2816   4.2924   4.3049
  4.3261   4.3289   4.3418   4.3432   4.3512   4.3698   4.3752   4.3884
  4.3931   4.3967   4.4218   4.4266   4.4525   4.4573   4.4713   4.4801
  4.4876   4.5068   4.5352   4.5563   4.5908   4.6116   4.6438   4.6479
  4.7239   4.7334   4.8013   4.8089   4.8245   4.8491   4.8521   4.8628
  4.8885   4.9184   4.9340   4.9473   4.9525   4.9643   4.9929   4.9968
  5.0665   5.0948   5.1330   5.1478   5.1567   5.2094   5.2299   5.2594
  5.3238   5.3462   5.3561   5.3946   5.4408   5.4625   5.7328   5.7639
  5.7831   5.7875   5.8203   5.8701   5.8766   6.1324   6.2052   6.2259
  6.3356   6.3803   6.4181   6.4263   6.4818   6.4851   6.5675   6.6014
  6.6304   6.6575   6.6630   6.6675   6.6706   6.6958   6.7009   6.7205
  6.7410   6.7573   6.7851   6.7996   6.8014   6.8048   6.8123   6.8198
  6.8302   6.8316   6.8414   6.8659   6.8916   6.9058   6.9098   6.9166
  6.9340   6.9373   6.9479   6.9511   6.9797   6.9908   6.9922   6.9941
  6.9962   7.0142   7.0368   7.0444   7.0732   7.0822   7.1603   7.2033
  7.2444   7.2862   7.2949   7.3376   7.3671   7.5226   7.5355   7.5837
  7.5971   7.6213   7.6473   7.6508   7.7153   7.7199   7.7226   7.7452
  7.7853   7.8199   7.8726   7.8922   7.9211   7.9802   8.0423   8.0902
  8.1086   8.1212   8.2704  44.5137  44.5410  44.5653  44.5933  44.6733
 44.7796  44.7799
 --------------------------------------------------------------
 
          Ground-State Mulliken Net Atomic Charges

     Atom                 Charge (a.u.)
  ----------------------------------------
      1 Br                   -0.741081
      2 O                    -0.470382
      3 H                     0.218280
      4 H                     0.241361
      5 O                    -0.477197
      6 H                     0.280621
      7 H                     0.172740
      8 O                    -0.451770
      9 H                     0.229218
     10 H                     0.131735
     11 O                    -0.433081
     12 H                     0.198220
     13 H                     0.231798
     14 O                    -0.457645
     15 H                     0.233758
     16 H                     0.211619
     17 O                    -0.436408
     18 H                     0.241297
     19 H                     0.198617
     20 O                    -0.503948
     21 H                     0.192956
     22 H                     0.189291
  ----------------------------------------
  Sum of atomic charges =    -1.000000

 -----------------------------------------------------------------
                    Cartesian Multipole Moments
 -----------------------------------------------------------------
    Charge (ESU x 10^10)
                -4.8032
    Dipole Moment (Debye)
         X      -3.3907      Y      -0.2189      Z       3.1218
       Tot       4.6142
    Quadrupole Moments (Debye-Ang)
        XX     -92.4072     XY      -9.0941     YY     -94.3094
        XZ       2.9845     YZ      -7.3898     ZZ     -91.3746
    Octopole Moments (Debye-Ang^2)
       XXX     -86.1521    XXY      34.8826    XYY      13.9398
       YYY      -6.3942    XXZ     -19.2877    XYZ      36.8305
       YYZ      30.9149    XZZ      10.8121    YZZ     -19.9807
       ZZZ      57.0502
    Hexadecapole Moments (Debye-Ang^3)
      XXXX   -1986.1093   XXXY    -131.8320   XXYY    -574.7697
      XYYY     -55.2845   YYYY   -1353.2542   XXXZ     -29.6731
      XXYZ       8.2043   XYYZ      18.2699   YYYZ     -82.3469
      XXZZ    -416.0284   XYZZ     -13.4013   YYZZ    -408.8762
      XZZZ      65.7421   YZZZ     -73.0848   ZZZZ    -976.5540
 -----------------------------------------------------------------
 Total job time:  4368.89s(wall), 11089.73s(cpu) 
 Thu Jan 18 22:31:51 2024

        *************************************************************
        *                                                           *
        *  Thank you very much for using Q-Chem.  Have a nice day.  *
        *                                                           *
        *************************************************************


