
Running Job 1 of 1 123_Br-Water_Cls_094_almo.in
qchem 123_Br-Water_Cls_094_almo.in_1099746.0 /scratch/qchem1099746/ 6
/home/kchung25/qchem/5.4.0/exe/qcprog.exe_s 123_Br-Water_Cls_094_almo.in_1099746.0 /scratch/qchem1099746/
                  Welcome to Q-Chem
     A Quantum Leap Into The Future Of Chemistry


 Q-Chem 5.4, Q-Chem, Inc., Pleasanton, CA (2021)

 E. Epifanovsky,  A. T. B. Gilbert,  Xintian Feng,  Joonho Lee,  Yuezhi Mao,  
 N. Mardirossian,  P. Pokhilko,  A. White,  M. Wormit,  M. P. Coons,  
 A. L. Dempwolff,  Zhengting Gan,  D. Hait,  P. R. Horn,  L. D. Jacobson,  
 I. Kaliman,  J. Kussmann,  A. W. Lange,  Ka Un Lao,  D. S. Levine,  Jie Liu,  
 S. C. McKenzie,  A. F. Morrison,  K. Nanda,  F. Plasser,  D. R. Rehn,  
 M. L. Vidal,  Zhi-Qiang You,  Ying Zhu,  B. Alam,  B. Albrecht,  
 A. Aldossary,  E. Alguire,  J. H. Andersen,  D. Barton,  K. Begam,  A. Behn,  
 Y. A. Bernard,  E. J. Berquist,  H. Burton,  A. Carreras,  K. Carter-Fenk,  
 Romit Chakraborty,  A. D. Chien,  K. D. Closser,  V. Cofer-Shabica,  
 S. Dasgupta,  Jia Deng,  M. de Wergifosse,  M. Diedenhofen,  Hainam Do,  
 S. Ehlert,  Po-Tung Fang,  S. Fatehi,  Qingguo Feng,  T. Friedhoff,  
 J. Gayvert,  Qinghui Ge,  G. Gidofalvi,  M. Goldey,  J. Gomes,  
 C. Gonzalez-Espinoza,  S. Gulania,  A. Gunina,  M. W. D. Hanson-Heine,  
 P. H. P. Harbach,  A. W. Hauser,  M. F. Herbst,  M. Hernandez Vera,  
 M. Hodecker,  Z. C. Holden,  S. Houck,  Xunkun Huang,  Kerwin Hui,  
 B. C. Huynh,  M. Ivanov,  Hyunjun Ji,  Hanjie Jiang,  B. Kaduk,  S. Kaehler,  
 K. Khistyaev,  Jaehoon Kim,  P. Klunzinger,  Z. Koczor-Benda,  
 Joong Hoon Koh,  D. Kosenkov,  L. Koulias,  T. Kowalczyk,  C. M. Krauter,  
 K. Kue,  A. Kunitsa,  T. Kus,  A. Landau,  K. V. Lawler,  D. Lefrancois,  
 S. Lehtola,  Rain Li,  Yi-Pei Li,  Jiashu Liang,  M. Liebenthal,  
 Hung-Hsuan Lin,  You-Sheng Lin,  Fenglai Liu,  Kuan-Yu Liu,  
 M. Loipersberger,  A. Luenser,  A. Manjanath,  P. Manohar,  E. Mansoor,  
 S. F. Manzer,  Shan-Ping Mao,  A. V. Marenich,  T. Markovich,  S. Mason,  
 S. A. Maurer,  P. F. McLaughlin,  M. F. S. J. Menger,  J.-M. Mewes,  
 S. A. Mewes,  P. Morgante,  J. W. Mullinax,  K. J. Oosterbaan,  G. Paran,  
 Alexander C. Paul,  Suranjan K. Paul,  F. Pavosevic,  Zheng Pei,  S. Prager,  
 E. I. Proynov,  E. Ramos,  B. Rana,  A. E. Rask,  A. Rettig,  R. M. Richard,  
 F. Rob,  E. Rossomme,  T. Scheele,  M. Scheurer,  M. Schneider,  
 N. Sergueev,  S. M. Sharada,  W. Skomorowski,  D. W. Small,  C. J. Stein,  
 Yu-Chuan Su,  E. J. Sundstrom,  Zhen Tao,  J. Thirman,  T. Tsuchimochi,  
 N. M. Tubman,  S. P. Veccham,  O. Vydrov,  J. Wenzel,  J. Witte,  A. Yamada,  
 Kun Yao,  S. Yeganeh,  S. R. Yost,  A. Zech,  Igor Ying Zhang,  Xing Zhang,  
 Yu Zhang,  D. Zuev,  A. Aspuru-Guzik,  A. T. Bell,  N. A. Besley,  
 K. B. Bravaya,  B. R. Brooks,  D. Casanova,  Jeng-Da Chai,  S. Coriani,  
 C. J. Cramer,  A. E. DePrince, III,  R. A. DiStasio Jr.,  A. Dreuw,  
 B. D. Dunietz,  T. R. Furlani,  W. A. Goddard III,  S. Grimme,  
 S. Hammes-Schiffer,  T. Head-Gordon,  W. J. Hehre,  Chao-Ping Hsu,  
 T.-C. Jagau,  Yousung Jung,  A. Klamt,  Jing Kong,  D. S. Lambrecht,  
 WanZhen Liang,  N. J. Mayhall,  C. W. McCurdy,  J. B. Neaton,  T. Neudecker,  
 C. Ochsenfeld,  J. A. Parkhill,  R. Peverati,  V. A. Rassolov,  Yihan Shao,  
 L. V. Slipchenko,  R. P. Steele,  J. E. Subotnik,  A. J. W. Thom,  
 A. Tkatchenko,  D. G. Truhlar,  T. Van Voorhis,  T. A. Wesolowski,  
 K. B. Whaley,  H. L. Woodcock III,  P. M. Zimmerman,  S. Faraji,  
 P. M. W. Gill,  M. Head-Gordon,  J. M. Herbert,  A. I. Krylov

 Additional authors since Version 5.4.0: 
 Chandrima Chakravarty,  L. Cunha,  R. Kang,  Yongbin Kim,  S. Kotaru,  
 Shaozhi Li,  Xiangyuan Li,  F. Matz,  A. Molle,  V. Parravicini,  
 Haisheng Ren,  Hengyuan Shen,  Yingli Su,  Hung-Yi Tsai,  C. Utku,  
 Fang Wang,  Jeff Yang,  F. Zeller

 Contributors to earlier versions of Q-Chem not listed above: 
 R. D. Adamson,  B. Austin,  R. Baer,  J. Baker,  G. J. O. Beran,  
 K. Brandhorst,  S. T. Brown,  E. F. C. Byrd,  Arup K. Chakraborty,  
 G. K. L. Chan,  Chun-Min Chang,  Yunqing Chen,  C.-L. Cheng,  
 Siu Hung Chien,  D. M. Chipman,  D. L. Crittenden,  H. Dachsel,  
 R. J. Doerksen,  A. D. Dutoi,  R. G. Edgar,  J. Fosso-Tande,  
 L. Fusti-Molnar,  D. Ghosh,  A. Ghysels,  A. Golubeva-Zadorozhnaya,  
 J. Gonthier,  M. S. Gordon,  S. R. Gwaltney,  G. Hawkins,  J. E. Herr,  
 A. Heyden,  S. Hirata,  E. G. Hohenstein,  G. Kedziora,  F. J. Keil,  
 C. Kelley,  Jihan Kim,  R. A. King,  R. Z. Khaliullin,  P. P. Korambath,  
 W. Kurlancheek,  A. Laurent,  A. M. Lee,  M. S. Lee,  S. V. Levchenko,  
 Ching Yeh Lin,  D. Liotard,  E. Livshits,  R. C. Lochan,  I. Lotan,  
 L. A. Martinez-Martinez,  P. E. Maslen,  N. Nair,  D. P. O'Neill,  
 D. Neuhauser,  E. Neuscamman,  C. M. Oana,  R. Olivares-Amaya,  R. Olson,  
 T. M. Perrine,  B. Peters,  P. A. Pieniazek,  A. Prociuk,  Y. M. Rhee,  
 J. Ritchie,  M. A. Rohrdanz,  E. Rosta,  N. J. Russ,  H. F. Schaefer III,  
 M. W. Schmidt,  N. E. Schultz,  S. Sharma,  N. Shenvi,  C. D. Sherrill,  
 A. C. Simmonett,  A. Sodt,  T. Stein,  D. Stuck,  K. S. Thanthiriwatte,  
 V. Vanovschi,  L. Vogt,  Tao Wang,  A. Warshel,  M. A. Watson,  
 C. F. Williams,  Q. Wu,  X. Xu,  Jun Yang,  W. Zhang,  Yan Zhao

   Please cite Q-Chem as follows:
  "Software for the frontiers of quantum chemistry:
   An overview of developments in the Q-Chem 5 package"
   J. Chem. Phys. 155, 084801 (2021)
   https://doi.org/10.1063/5.0055522 (open access)

 Q-Chem 5.4.2 for Intel X86 EM64T Linux

 Parts of Q-Chem use Armadillo 9.900.5 (Nocturnal Misbehaviour).
 http://arma.sourceforge.net/

 Q-Chem begins on Sat Jan 20 13:54:10 2024  

 Host: 
0

     Scratch files written to /scratch/qchem1099746//
 Dec1321 |scratch|qcdevops|jenkins|workspace|build_RNUM 5684   
 Processing $rem in /home/kchung25/qchem/5.4.0/config/preferences:
 Processing $rem in /home/kchung25/.qchemrc:

 Q-Chem warning in module libgen/rem_setup.C, line 3079:

 Neither GIA nor STOLL is specified by user. Use STOLL as the default


 Checking the input file for inconsistencies... 	...done.

--------------------------------------------------------------
User input:
--------------------------------------------------------------
$molecule
-1 1
--
-1 1
Br     0.000000     0.000000     0.000000
--
0 1
O      1.578311    -2.750057     1.129134
H      2.275052    -2.856220     0.456785
H      1.365926    -1.831382     1.132918
O      1.294967     2.190981     1.966174
H      0.633025     2.183210     2.649956
H      0.974462     1.512747     1.303727
O     -0.142327     0.019548     3.444487
H      0.556138    -0.565782     3.737245
H     -0.248290     0.125821     2.436320
O     -1.175057    -3.092866     0.072592
H     -1.948415    -2.982136    -0.544682
H     -0.845584    -2.244508     0.354573
O     -2.669208    -0.113958     2.008018
H     -3.296598     0.445070     1.489547
H     -1.952017    -0.165603     1.402326
O      3.253588     1.021586    -0.786884
H      2.951647     1.725248    -1.377890
H      2.551185     0.537784    -0.424420
$end

$rem
JOBTYPE          eda
EDA2             1
METHOD           wB97M-V
BASIS            def2-TZVPPD
SYMMETRY         false
MEM_TOTAL        50000
MEM_STATIC       10000
THRESH           14
SCF_CONVERGENCE  8
XC_GRID          000099000590
NL_GRID          1
EDA_CLS_DISP     true
FD_MAT_VEC_PROD  FALSE
$end
--------------------------------------------------------------
 ----------------------------------------------------------------
             Standard Nuclear Orientation (Angstroms)
    I     Atom           X                Y                Z
 ----------------------------------------------------------------
    1      Br      0.1698658029    -0.2308943369    -0.8155898421
    2      O      -0.4347965253    -1.9965089711     1.9854476690
    3      H       0.2020809519    -2.7270613491     1.8882258430
    4      H      -0.0716475330    -1.2755424041     1.4981946739
    5      O       2.0082094271     2.0999606871     0.4216591419
    6      H       1.3302481583     2.7456629926     0.5926049634
    7      H       1.5143142066     1.3176086826     0.0401441438
    8      O      -0.7069159532     1.9814404944     1.6787954808
    9      H      -0.5629971395     1.5155307917     2.5024382040
   10      H      -0.5014215154     1.4627636214     0.8257602264
   11      O      -2.5548845547    -1.9644255863    -0.0927803637
   12      H      -2.9585478944    -2.0097921637    -1.0018286033
   13      H      -1.8699290798    -1.3028851452    -0.0615188780
   14      O      -2.4427747104     1.8469208969    -0.6525332136
   15      H      -2.4952450157     2.1293239746    -1.5972226141
   16      H      -1.7733874403     1.1894264592    -0.7118179707
   17      O       3.4900005308    -1.1055230744    -0.1370699688
   18      H       3.7927616004    -0.8768742860    -1.0268183242
   19      H       2.5777618857    -0.9817749560    -0.0306671569
 ----------------------------------------------------------------
 Molecular Point Group                 C1    NOp =  1
 Largest Abelian Subgroup              C1    NOp =  1
 Nuclear Repulsion Energy =         583.34311418 hartrees
 There are       48 alpha and       48 beta electrons
 Requested basis set is def2-TZVPPD
 There are 187 shells and 501 basis functions

 Q-Chem warning in module libmdc/get_mega.C, line 171:

 Allowed MEM_STATIC has been capped at MEM_STATIC=8191.
 Reduce the value of MEM_STATIC to silence this warning.


 Total QAlloc Memory Limit  50000 MB
 Mega-Array Size      8007 MB
 MEM_STATIC part      8191 MB
 A cutoff of  1.0D-14 yielded  14817 shell pairs
 There are    104013 function pairs (    126839 Cartesian)
 Smallest overlap matrix eigenvalue = 1.29E-04

 Scale SEOQF with 1.000000e-01/1.000000e-01/1.000000e-01

 Standard Electronic Orientation quadrupole field applied
 Nucleus-field energy     =     0.0000000140 hartrees

 -----------------------------------------------------------------------
  General SCF calculation program by
  Eric Jon Sundstrom, Paul Horn, Yuezhi Mao, Dmitri Zuev, Alec White,
  David Stuck, Shaama M.S., Shane Yost, Joonho Lee, David Small,
  Daniel Levine, Susi Lehtola, Hugh Burton, Evgeny Epifanovsky,
  Bang C. Huynh
 -----------------------------------------------------------------------
================================================================
                 ALMO-EDA with the EDA2 driver                  
================================================================
 The second-generation ALMO-EDA (for DFT):                      
 P. R. Horn, Y. Mao and M. Head-Gordon, PCCP, 18, 23067 (2016)  
 Y. Mao et al. Annu. Rev. Phys. Chem. 72, 641 (2021)            
 Decomposition of the frozen energy:                            
 P. R. Horn, Y. Mao and M. Head-Gordon, JCP, 144, 114107 (2016) 
 FERF model for polarization:                                   
 P. R. Horn and M. Head-Gordon, JCP, 143, 114111 (2015)         
================================================================
 Using eda2 option set 1
 Option set summary: Frozen orbital wavefunction, initial wavefunction decomposition, and nDQ polarization.
--------------------------------
Printing EDA Options
--------------------------------
eda_child_super_basis      0
fragmo_guess_mode          0
child_mp                   1
child_mp_orders            232
cls_elec                   1
cls_disp                   1
scfmi_mode                 1
scfmi_occs                 0
scfmi_virts                0
frz_relax                  0
frz_relax_method           0
dc_pen_start               0
dc_pen_conv                0
dc_pen_increment           0
dc_pen_steps               0
dc_pen_thresh_factor       0
dc_pen_pre_newton_thresh   0
frz_ortho_decomp           1
frz_ortho_decomp_conv      6
plot_mo_ortho_frz          0
frgm_method                2
scfmi_freeze_ss            0
separate_rehyb             0
plot_diff_den              0
eda_nocv                   0
eda_vct_relax              1
disp_free_x                0
disp_free_c                0
eda_bsse                   0
eda_pct_a                  0
eda_covp                   0
--------------------------------
Attempting to make child job directory: /scratch/qchem1099746//Frg1/
Attempting to make child job directory: /scratch/qchem1099746//Frg2/
Creating input file /scratch/qchem1099746/Frg1.input
using default PutDataFrgm: nothing
calling putenv with: QCSCRATCH=/scratch/qchem1099746/ 
Spawning Job For Fragment 0
Done Job For Fragment 0
calling putenv with: QCSCRATCH=/scratch 
calling putenv with: QCTHREADS=6 
Creating input file /scratch/qchem1099746/Frg2.input
using default PutDataFrgm: nothing
calling putenv with: QCSCRATCH=/scratch/qchem1099746/ 
Spawning Job For Fragment 1
Done Job For Fragment 1
calling putenv with: QCSCRATCH=/scratch 
calling putenv with: QCTHREADS=6 
Doing General SCFMI
 Exchange:     0.1500 Hartree-Fock + 1.0000 wB97M-V + LR-HF
 Correlation:  1.0000 wB97M-V
 Using Euler-Maclaurin-Lebedev (99,590) quadrature formula
 Nonlocal Correlation:  VV10 with C = 0.0100 and b = 6.00 and scale = 1.00000
 Grid used for NLC:  SG-1 standard quadrature
performing fock build before subrot guess so that all methods have access
Printing subrot_rss_gen Method Specification:
Occupied Subspace Method is 0
Virtual Subspace Method is 0
Energy of the unrelaxed supersystem initial determinant -3032.726418545179
write pseudocanon occs and virts to disk
write pseudocanon orbital energies to disk
Tolerance of ortho_decomp_scf: 1.00e-06
GDM subspace size: 20
Beginning the Orthogonal Decomposition of the Initial Supersystem Wavefunction
    1   -3032.3575163894      4.73e-01     ortho_decomp Preconditoned Steepest Descent
    2   -3032.4648174344      3.08e-03     ortho_decomp BFGS Step
    3   -3032.4649353297      4.10e-04     ortho_decomp BFGS Step
    4   -3032.4649358712      1.28e-05     ortho_decomp BFGS Step
    5   -3032.4649358717      3.15e-07     ortho_decomp 00000 Convergence criterion met
 Hartree-Fock
 Hartree-Fock
 Hartree-Fock
 Exchange:     0.1500 Hartree-Fock + 1.0000 wB97M-V + LR-HF
 Correlation:  1.0000 wB97M-V
 Using Euler-Maclaurin-Lebedev (99,590) quadrature formula
 Nonlocal Correlation:  VV10 with C = 0.0100 and b = 6.00 and scale = 1.00000
 Grid used for NLC:  SG-1 standard quadrature
 Long-range K will be added via erf
 Coulomb attenuation parameter = 0.3 bohr**(-1)
 Nonlocal correlation = 3.936196182811e-01
Doing General SCFMI
 Exchange:     0.1500 Hartree-Fock + 1.0000 wB97M-V + LR-HF
 Correlation:  1.0000 wB97M-V
 Using Euler-Maclaurin-Lebedev (99,590) quadrature formula
 Nonlocal Correlation:  VV10 with C = 0.0100 and b = 6.00 and scale = 1.00000
 Grid used for NLC:  SG-1 standard quadrature
performing fock build at end of subrot_r(subrot) constructor so that all methods have access
<S^2> of initial wavefunction before polarization iterations 0.0000000000
Beginning iterations for the determination of the polarized wavefunction
Energy prior to optimization (guess energy) = -3032.726418545180
Begin Timing: Total SCF Calculation
begin iterations for algorithm: DIIS         
the SCF tolerance is set to 1.00e-08
    1   -3032.7264185452      5.38e-04     00000 
    2   -3032.7487111277      2.15e-04     00000 
    3   -3032.7508836922      8.81e-05     00000 
    4   -3032.7513742846      3.53e-05     00000 
    5   -3032.7515203805      1.58e-05     00000 
    6   -3032.7515648640      1.04e-05     00000 
    7   -3032.7515777804      5.51e-06     00000 
    8   -3032.7515828984      2.56e-06     00000 
    9   -3032.7515833378      1.74e-06     00000 
   10   -3032.7515834457      1.14e-06     00000 
   11   -3032.7515834700      7.67e-07     00000 
   12   -3032.7515834871      4.34e-07     00000 
   13   -3032.7515835033      2.14e-07     00000 
   14   -3032.7515835086      9.26e-08     00000 
   15   -3032.7515835094      6.55e-08     00000 
   16   -3032.7515835096      2.96e-08     00000 
   17   -3032.7515835097      1.39e-08     00000 
   18   -3032.7515835097      7.70e-09     00000 Convergence criterion met
write pseudocanon occs and virts to disk
write pseudocanon orbital energies to disk
Timing for Total SCF: 529.00s (wall), 3171.31s (cpu)
<S^2> of polarized wavefunction after polarization iterations 0.0000000000
relaxing scfmi constraint to allow all rotations in the entire AO span
Doing General SCFMI
 Exchange:     0.1500 Hartree-Fock + 1.0000 wB97M-V + LR-HF
 Correlation:  1.0000 wB97M-V
 Using Euler-Maclaurin-Lebedev (99,590) quadrature formula
 Nonlocal Correlation:  VV10 with C = 0.0100 and b = 6.00 and scale = 1.00000
 Grid used for NLC:  SG-1 standard quadrature
performing fock build at end of subrot_r(subrot) constructor so that all methods have access
<S^2> of polarized wavefunction before ct-allowed iterations 0.0000000000
Beginning iterations for the determination of the CT-Allowed wavefunction
Energy prior to optimization (guess energy) = -3032.751583509696
Begin Timing: Total SCF Calculation
begin iterations for algorithm: DIIS         
the SCF tolerance is set to 1.00e-08
    1   -3032.7515835097      4.50e-04     00000 
    2   -3032.7721086139      5.76e-05     00000 
    3   -3032.7728808548      2.90e-05     00000 
    4   -3032.7729458670      1.17e-05     00000 
    5   -3032.7729593177      2.98e-06     00000 
    6   -3032.7729602349      7.81e-07     00000 
    7   -3032.7729603780      2.14e-07     00000 
    8   -3032.7729603936      4.88e-08     00000 
    9   -3032.7729603945      2.85e-08     00000 
   10   -3032.7729603946      7.01e-09     00000 Convergence criterion met
write pseudocanon occs and virts to disk
write pseudocanon orbital energies to disk
Timing for Total SCF: 279.00s (wall), 1671.37s (cpu)
<S^2> of ct_allowed wavefunction after ct-allowed iterations 0.0000000000

================================
        Results of EDA2         
================================
Basic EDA Quantities
--------------------
Fragment Energies (Ha):
1-2574.0946475100
2 -458.5870252919
--------------------
  E_prp (kJ/mol) = 0.0000
  E_frz (kJ/mol) = -117.4813
  E_pol (kJ/mol) = -66.0714
  E_vct (kJ/mol) = -56.1257
  E_int (kJ/mol) = -239.6784
--------------------


Decomposition of frozen interaction energy
--------------------
  --------------------
  Orthogonal Frozen Decomposition:
  --------------------
     E_elec   (ELEC)   (kJ/mol) = -497.0341
     E_pauli  (PAULI)  (kJ/mol) = 439.9414
     E_disp   (DISP)   (kJ/mol) = -60.3886
  --------------------
  Classical Frozen Decomposition:
  --------------------
     E_cls_elec  (CLS ELEC)  (kJ/mol) = -320.2954
     E_mod_pauli (MOD PAULI) (kJ/mol) = 263.0158 (FRZ - CLS ELEC - CLS DISP)
     E_cls_disp  (CLS DISP)  (kJ/mol) = -60.2018
  --------------------
--------------------

Simplified EDA Summary (kJ/mol)
--------------------
 PREPARATION      0.0000
 FROZEN           -117.4813 (ELEC + PAULI + DISP)
[ELEC + PAULI = -57.2795, DISP = -60.2018]
 POLARIZATION    -66.0714
 CHARGE TRANSFER -56.1257
 TOTAL           -239.6784     (PRP + FRZ + POL + CT)
--------------------
 
 --------------------------------------------------------------
 
                    Orbital Energies (a.u.)
 --------------------------------------------------------------
 
 Alpha MOs
 -- Occupied --
******** -62.6166 -56.3018 -56.3018 -56.3016 -19.2028 -19.2011 -19.1990
-19.1912 -19.1878 -19.1760  -8.6986  -6.4776  -6.4774  -6.4770  -2.5600
 -2.5600  -2.5596  -2.5594  -2.5593  -1.0147  -1.0092  -1.0075  -0.9853
 -0.9852  -0.9756  -0.6965  -0.5333  -0.5168  -0.5125  -0.4989  -0.4916
 -0.4790  -0.3790  -0.3699  -0.3658  -0.3554  -0.3467  -0.3413  -0.3001
 -0.2963  -0.2959  -0.2853  -0.2765  -0.2641  -0.2285  -0.2251  -0.2202
 -- Virtual --
  0.1248   0.1313   0.1397   0.1436   0.1591   0.1615   0.1724   0.1854
  0.1876   0.2038   0.2062   0.2138   0.2165   0.2221   0.2228   0.2300
  0.2342   0.2482   0.2515   0.2576   0.2617   0.2714   0.2794   0.2853
  0.2906   0.2957   0.3058   0.3083   0.3152   0.3187   0.3312   0.3371
  0.3413   0.3563   0.3626   0.3659   0.3768   0.3813   0.3879   0.3900
  0.3968   0.3988   0.4011   0.4096   0.4123   0.4200   0.4217   0.4270
  0.4326   0.4452   0.4496   0.4510   0.4546   0.4657   0.4698   0.4752
  0.4809   0.4881   0.4944   0.4969   0.5012   0.5038   0.5180   0.5212
  0.5286   0.5412   0.5473   0.5528   0.5553   0.5625   0.5684   0.5737
  0.5830   0.5905   0.5982   0.6050   0.6107   0.6181   0.6258   0.6285
  0.6343   0.6495   0.6547   0.6578   0.6613   0.6732   0.6856   0.6933
  0.6975   0.7098   0.7150   0.7233   0.7270   0.7277   0.7354   0.7387
  0.7400   0.7458   0.7555   0.7647   0.7661   0.7716   0.7776   0.7939
  0.8012   0.8102   0.8170   0.8202   0.8349   0.8405   0.8554   0.8647
  0.8720   0.8787   0.8898   0.9054   0.9095   0.9198   0.9211   0.9362
  0.9398   0.9565   0.9595   0.9812   0.9906   0.9995   1.0039   1.0136
  1.0212   1.0318   1.0414   1.0447   1.0696   1.0731   1.0954   1.1023
  1.1065   1.1215   1.1254   1.1306   1.1417   1.1548   1.1570   1.1614
  1.1761   1.1875   1.2083   1.2188   1.2358   1.2501   1.2591   1.2599
  1.2866   1.3020   1.3070   1.3201   1.3315   1.3408   1.3487   1.3549
  1.3643   1.3684   1.3760   1.3823   1.3916   1.3942   1.4097   1.4128
  1.4270   1.4311   1.4417   1.4461   1.4519   1.4670   1.4783   1.4941
  1.5062   1.5122   1.5268   1.5508   1.5581   1.5789   1.5834   1.5906
  1.6045   1.6205   1.6243   1.6529   1.6603   1.6706   1.7094   1.7528
  1.8567   1.8634   1.8792   1.8871   1.9031   1.9293   1.9672   2.0033
  2.0399   2.0692   2.0826   2.0870   2.1046   2.1108   2.1236   2.1344
  2.1479   2.1767   2.1902   2.2025   2.2073   2.2268   2.2326   2.2358
  2.2442   2.2704   2.2838   2.2962   2.3215   2.3316   2.3372   2.3449
  2.3908   2.4050   2.4164   2.4268   2.4385   2.4432   2.4742   2.4810
  2.4976   2.5205   2.5573   2.5825   2.6197   2.7743   2.7953   2.8313
  2.8397   2.9117   2.9470   2.9654   2.9840   3.0065   3.0353   3.0426
  3.0963   3.1634   3.1889   3.2025   3.2106   3.2420   3.2976   3.3266
  3.3805   3.3917   3.4085   3.4135   3.4225   3.4373   3.4394   3.4445
  3.4549   3.4735   3.4805   3.4888   3.5009   3.5103   3.5219   3.5240
  3.5384   3.5412   3.5484   3.5598   3.5707   3.5854   3.5963   3.6046
  3.6084   3.6212   3.6314   3.6414   3.6561   3.6634   3.6818   3.6942
  3.6969   3.7235   3.7606   3.8268   3.8493   3.8570   3.8708   3.8853
  3.8992   3.9056   3.9343   3.9515   3.9691   4.0011   4.0095   4.0611
  4.0696   4.0814   4.0942   4.0963   4.1326   4.1415   4.1635   4.1713
  4.1851   4.1903   4.1985   4.2033   4.2122   4.2318   4.2379   4.2527
  4.2629   4.2656   4.2741   4.2814   4.2996   4.3053   4.3469   4.3638
  4.3665   4.3713   4.3728   4.3861   4.3917   4.4082   4.4122   4.4261
  4.4391   4.4501   4.4578   4.4799   4.4819   4.5020   4.5201   4.5390
  4.5528   4.5730   4.6129   4.6621   4.6953   4.7233   4.8611   4.8719
  4.8997   4.9083   4.9105   4.9135   4.9438   4.9513   4.9710   4.9859
  4.9914   5.0689   5.1465   5.1639   5.1816   5.2022   5.2111   5.2651
  5.3360   5.3686   5.3851   5.4100   5.4362   5.4716   5.7361   5.8046
  5.8183   5.8556   5.8572   5.8758   6.0961   6.2550   6.2866   6.3982
  6.4145   6.4965   6.5921   6.6152   6.6287   6.6464   6.6877   6.7169
  6.7501   6.7576   6.7637   6.7795   6.7839   6.7887   6.8015   6.8188
  6.8254   6.8278   6.8396   6.8493   6.8500   6.8594   6.8673   6.8819
  6.8838   6.8971   6.9265   6.9547   6.9724   7.0018   7.0126   7.0270
  7.0363   7.0530   7.0595   7.0662   7.0759   7.0845   7.2162   7.2786
  7.2844   7.3344   7.3625   7.3876   7.4808   7.6097   7.6339   7.6566
  7.6916   7.7038   7.7286   7.7375   7.7482   7.8093   7.8178   7.8740
  8.0010   8.0387   8.0454   8.0819   8.1144   8.1376   8.2290  44.6130
 44.6208  44.6850  44.6928  44.7131  44.7488
 --------------------------------------------------------------
 
          Ground-State Mulliken Net Atomic Charges

     Atom                 Charge (a.u.)
  ----------------------------------------
      1 Br                   -0.823620
      2 O                    -0.382110
      3 H                     0.157199
      4 H                     0.225630
      5 O                    -0.489141
      6 H                     0.154778
      7 H                     0.326409
      8 O                    -0.489528
      9 H                     0.153369
     10 H                     0.256660
     11 O                    -0.451038
     12 H                     0.173452
     13 H                     0.268858
     14 O                    -0.415961
     15 H                     0.143160
     16 H                     0.236440
     17 O                    -0.419817
     18 H                     0.172956
     19 H                     0.202304
  ----------------------------------------
  Sum of atomic charges =    -1.000000

 -----------------------------------------------------------------
                    Cartesian Multipole Moments
 -----------------------------------------------------------------
    Charge (ESU x 10^10)
                -4.8032
    Dipole Moment (Debye)
         X       0.0606      Y      -0.8175      Z      -3.3497
       Tot       3.4485
    Quadrupole Moments (Debye-Ang)
        XX     -92.5338     XY      -4.1393     YY     -80.0969
        XZ       4.3496     YZ      -1.0846     ZZ     -63.9198
    Octopole Moments (Debye-Ang^2)
       XXX     -17.9356    XXY      -6.4762    XYY       8.5088
       YYY     -17.6153    XXZ     -52.7861    XYZ      -4.3679
       YYZ     -23.0015    XZZ      -1.0358    YZZ       6.4789
       ZZZ     -22.2693
    Hexadecapole Moments (Debye-Ang^3)
      XXXX   -1554.7811   XXXY      23.7104   XXYY    -497.7231
      XYYY     -26.3132   YYYY    -980.4185   XXXZ     -44.2409
      XXYZ      21.5284   XYYZ      56.5476   YYYZ     -42.1448
      XXZZ    -250.5255   XYZZ     -27.6463   YYZZ    -236.5095
      XZZZ      16.4097   YZZZ      27.3014   ZZZZ    -472.0121
 -----------------------------------------------------------------
 Total job time:  3049.75s(wall), 8104.40s(cpu) 
 Sat Jan 20 14:45:00 2024

        *************************************************************
        *                                                           *
        *  Thank you very much for using Q-Chem.  Have a nice day.  *
        *                                                           *
        *************************************************************


