
Running Job 1 of 1 123_Br-Water_Cls_028_almo.in
qchem 123_Br-Water_Cls_028_almo.in_1085599.0 /scratch/qchem1085599/ 6
/home/kchung25/qchem/5.4.0/exe/qcprog.exe_s 123_Br-Water_Cls_028_almo.in_1085599.0 /scratch/qchem1085599/
                  Welcome to Q-Chem
     A Quantum Leap Into The Future Of Chemistry


 Q-Chem 5.4, Q-Chem, Inc., Pleasanton, CA (2021)

 E. Epifanovsky,  A. T. B. Gilbert,  Xintian Feng,  Joonho Lee,  Yuezhi Mao,  
 N. Mardirossian,  P. Pokhilko,  A. White,  M. Wormit,  M. P. Coons,  
 A. L. Dempwolff,  Zhengting Gan,  D. Hait,  P. R. Horn,  L. D. Jacobson,  
 I. Kaliman,  J. Kussmann,  A. W. Lange,  Ka Un Lao,  D. S. Levine,  Jie Liu,  
 S. C. McKenzie,  A. F. Morrison,  K. Nanda,  F. Plasser,  D. R. Rehn,  
 M. L. Vidal,  Zhi-Qiang You,  Ying Zhu,  B. Alam,  B. Albrecht,  
 A. Aldossary,  E. Alguire,  J. H. Andersen,  D. Barton,  K. Begam,  A. Behn,  
 Y. A. Bernard,  E. J. Berquist,  H. Burton,  A. Carreras,  K. Carter-Fenk,  
 Romit Chakraborty,  A. D. Chien,  K. D. Closser,  V. Cofer-Shabica,  
 S. Dasgupta,  Jia Deng,  M. de Wergifosse,  M. Diedenhofen,  Hainam Do,  
 S. Ehlert,  Po-Tung Fang,  S. Fatehi,  Qingguo Feng,  T. Friedhoff,  
 J. Gayvert,  Qinghui Ge,  G. Gidofalvi,  M. Goldey,  J. Gomes,  
 C. Gonzalez-Espinoza,  S. Gulania,  A. Gunina,  M. W. D. Hanson-Heine,  
 P. H. P. Harbach,  A. W. Hauser,  M. F. Herbst,  M. Hernandez Vera,  
 M. Hodecker,  Z. C. Holden,  S. Houck,  Xunkun Huang,  Kerwin Hui,  
 B. C. Huynh,  M. Ivanov,  Hyunjun Ji,  Hanjie Jiang,  B. Kaduk,  S. Kaehler,  
 K. Khistyaev,  Jaehoon Kim,  P. Klunzinger,  Z. Koczor-Benda,  
 Joong Hoon Koh,  D. Kosenkov,  L. Koulias,  T. Kowalczyk,  C. M. Krauter,  
 K. Kue,  A. Kunitsa,  T. Kus,  A. Landau,  K. V. Lawler,  D. Lefrancois,  
 S. Lehtola,  Rain Li,  Yi-Pei Li,  Jiashu Liang,  M. Liebenthal,  
 Hung-Hsuan Lin,  You-Sheng Lin,  Fenglai Liu,  Kuan-Yu Liu,  
 M. Loipersberger,  A. Luenser,  A. Manjanath,  P. Manohar,  E. Mansoor,  
 S. F. Manzer,  Shan-Ping Mao,  A. V. Marenich,  T. Markovich,  S. Mason,  
 S. A. Maurer,  P. F. McLaughlin,  M. F. S. J. Menger,  J.-M. Mewes,  
 S. A. Mewes,  P. Morgante,  J. W. Mullinax,  K. J. Oosterbaan,  G. Paran,  
 Alexander C. Paul,  Suranjan K. Paul,  F. Pavosevic,  Zheng Pei,  S. Prager,  
 E. I. Proynov,  E. Ramos,  B. Rana,  A. E. Rask,  A. Rettig,  R. M. Richard,  
 F. Rob,  E. Rossomme,  T. Scheele,  M. Scheurer,  M. Schneider,  
 N. Sergueev,  S. M. Sharada,  W. Skomorowski,  D. W. Small,  C. J. Stein,  
 Yu-Chuan Su,  E. J. Sundstrom,  Zhen Tao,  J. Thirman,  T. Tsuchimochi,  
 N. M. Tubman,  S. P. Veccham,  O. Vydrov,  J. Wenzel,  J. Witte,  A. Yamada,  
 Kun Yao,  S. Yeganeh,  S. R. Yost,  A. Zech,  Igor Ying Zhang,  Xing Zhang,  
 Yu Zhang,  D. Zuev,  A. Aspuru-Guzik,  A. T. Bell,  N. A. Besley,  
 K. B. Bravaya,  B. R. Brooks,  D. Casanova,  Jeng-Da Chai,  S. Coriani,  
 C. J. Cramer,  A. E. DePrince, III,  R. A. DiStasio Jr.,  A. Dreuw,  
 B. D. Dunietz,  T. R. Furlani,  W. A. Goddard III,  S. Grimme,  
 S. Hammes-Schiffer,  T. Head-Gordon,  W. J. Hehre,  Chao-Ping Hsu,  
 T.-C. Jagau,  Yousung Jung,  A. Klamt,  Jing Kong,  D. S. Lambrecht,  
 WanZhen Liang,  N. J. Mayhall,  C. W. McCurdy,  J. B. Neaton,  T. Neudecker,  
 C. Ochsenfeld,  J. A. Parkhill,  R. Peverati,  V. A. Rassolov,  Yihan Shao,  
 L. V. Slipchenko,  R. P. Steele,  J. E. Subotnik,  A. J. W. Thom,  
 A. Tkatchenko,  D. G. Truhlar,  T. Van Voorhis,  T. A. Wesolowski,  
 K. B. Whaley,  H. L. Woodcock III,  P. M. Zimmerman,  S. Faraji,  
 P. M. W. Gill,  M. Head-Gordon,  J. M. Herbert,  A. I. Krylov

 Additional authors since Version 5.4.0: 
 Chandrima Chakravarty,  L. Cunha,  R. Kang,  Yongbin Kim,  S. Kotaru,  
 Shaozhi Li,  Xiangyuan Li,  F. Matz,  A. Molle,  V. Parravicini,  
 Haisheng Ren,  Hengyuan Shen,  Yingli Su,  Hung-Yi Tsai,  C. Utku,  
 Fang Wang,  Jeff Yang,  F. Zeller

 Contributors to earlier versions of Q-Chem not listed above: 
 R. D. Adamson,  B. Austin,  R. Baer,  J. Baker,  G. J. O. Beran,  
 K. Brandhorst,  S. T. Brown,  E. F. C. Byrd,  Arup K. Chakraborty,  
 G. K. L. Chan,  Chun-Min Chang,  Yunqing Chen,  C.-L. Cheng,  
 Siu Hung Chien,  D. M. Chipman,  D. L. Crittenden,  H. Dachsel,  
 R. J. Doerksen,  A. D. Dutoi,  R. G. Edgar,  J. Fosso-Tande,  
 L. Fusti-Molnar,  D. Ghosh,  A. Ghysels,  A. Golubeva-Zadorozhnaya,  
 J. Gonthier,  M. S. Gordon,  S. R. Gwaltney,  G. Hawkins,  J. E. Herr,  
 A. Heyden,  S. Hirata,  E. G. Hohenstein,  G. Kedziora,  F. J. Keil,  
 C. Kelley,  Jihan Kim,  R. A. King,  R. Z. Khaliullin,  P. P. Korambath,  
 W. Kurlancheek,  A. Laurent,  A. M. Lee,  M. S. Lee,  S. V. Levchenko,  
 Ching Yeh Lin,  D. Liotard,  E. Livshits,  R. C. Lochan,  I. Lotan,  
 L. A. Martinez-Martinez,  P. E. Maslen,  N. Nair,  D. P. O'Neill,  
 D. Neuhauser,  E. Neuscamman,  C. M. Oana,  R. Olivares-Amaya,  R. Olson,  
 T. M. Perrine,  B. Peters,  P. A. Pieniazek,  A. Prociuk,  Y. M. Rhee,  
 J. Ritchie,  M. A. Rohrdanz,  E. Rosta,  N. J. Russ,  H. F. Schaefer III,  
 M. W. Schmidt,  N. E. Schultz,  S. Sharma,  N. Shenvi,  C. D. Sherrill,  
 A. C. Simmonett,  A. Sodt,  T. Stein,  D. Stuck,  K. S. Thanthiriwatte,  
 V. Vanovschi,  L. Vogt,  Tao Wang,  A. Warshel,  M. A. Watson,  
 C. F. Williams,  Q. Wu,  X. Xu,  Jun Yang,  W. Zhang,  Yan Zhao

   Please cite Q-Chem as follows:
  "Software for the frontiers of quantum chemistry:
   An overview of developments in the Q-Chem 5 package"
   J. Chem. Phys. 155, 084801 (2021)
   https://doi.org/10.1063/5.0055522 (open access)

 Q-Chem 5.4.2 for Intel X86 EM64T Linux

 Parts of Q-Chem use Armadillo 9.900.5 (Nocturnal Misbehaviour).
 http://arma.sourceforge.net/

 Q-Chem begins on Fri Jan 19 07:17:47 2024  

 Host: 
0

     Scratch files written to /scratch/qchem1085599//
 Dec1321 |scratch|qcdevops|jenkins|workspace|build_RNUM 5684   
 Processing $rem in /home/kchung25/qchem/5.4.0/config/preferences:
 Processing $rem in /home/kchung25/.qchemrc:

 Q-Chem warning in module libgen/rem_setup.C, line 3079:

 Neither GIA nor STOLL is specified by user. Use STOLL as the default


 Checking the input file for inconsistencies... 	...done.

--------------------------------------------------------------
User input:
--------------------------------------------------------------
$molecule
-1 1
--
-1 1
Br     0.000000     0.000000     0.000000
--
0 1
O      2.794095    -1.387479     0.567346
H      1.955440    -0.895211     0.196524
H      3.481853    -0.702595     0.669128
O      2.335776     1.864406     0.831723
H      1.699945     1.187957     0.609791
H      1.817179     2.598588     1.156693
O     -0.357779     0.030054     3.245802
H     -0.127128     0.352128     2.389975
H     -0.011989     0.692795     3.899278
$end

$rem
JOBTYPE          eda
EDA2             1
METHOD           wB97M-V
BASIS            def2-TZVPPD
SYMMETRY         false
MEM_TOTAL        50000
MEM_STATIC       10000
THRESH           14
SCF_CONVERGENCE  8
XC_GRID          000099000590
NL_GRID          1
EDA_CLS_DISP     true
FD_MAT_VEC_PROD  FALSE
$end
--------------------------------------------------------------
 ----------------------------------------------------------------
             Standard Nuclear Orientation (Angstroms)
    I     Atom           X                Y                Z
 ----------------------------------------------------------------
    1      Br      0.2833722783    -0.9695562674     0.1322133553
    2      O      -1.9784803806     0.4771436968    -1.5545077511
    3      H      -1.3910091550    -0.1044853889    -0.9222387307
    4      H      -2.4850311953     1.0749057932    -0.9726800414
    5      O      -1.2338976893     1.3438522987     1.5356573532
    6      H      -0.8299830595     0.6728670484     0.9899927231
    7      H      -0.5752946231     1.5618419599     2.1931480887
    8      O       2.1597897934     1.5791377088    -0.6723710120
    9      H       1.5678741306     1.0604620354    -0.1527723273
   10      H       2.2161203735     2.4678082766    -0.2331458677
 ----------------------------------------------------------------
 Molecular Point Group                 C1    NOp =  1
 Largest Abelian Subgroup              C1    NOp =  1
 Nuclear Repulsion Energy =         249.34153536 hartrees
 There are       33 alpha and       33 beta electrons
 Requested basis set is def2-TZVPPD
 There are 103 shells and 279 basis functions

 Q-Chem warning in module libmdc/get_mega.C, line 171:

 Allowed MEM_STATIC has been capped at MEM_STATIC=8191.
 Reduce the value of MEM_STATIC to silence this warning.


 Total QAlloc Memory Limit  50000 MB
 Mega-Array Size      8007 MB
 MEM_STATIC part      8191 MB

                       Distance Matrix (Angstroms)
             Br(  1)   O (  2)   H (  3)   H (  4)   O (  5)   H (  6)
   O (  2)  3.170796
   H (  3)  2.159576  1.040759
   H (  4)  3.614509  0.975929  1.609470
   O (  5)  3.102196  3.294648  2.857205  2.815923
   H (  6)  2.161689  2.798542  2.139078  2.598635  0.954525
   H (  7)  3.375313  4.146134  3.625972  3.729165  0.955809  1.517473
   O (  8)  3.265599  4.372395  3.937663  4.681752  4.055597  3.538859
   H (  9)  2.419119  3.857687  3.271723  4.135033  3.283448  2.684373
   H ( 10)  3.960363  4.827361  4.483629  4.958620  4.036653  3.741207
             H (  7)   O (  8)   H (  9)
   O (  8)  3.961336
   H (  9)  3.216815  0.943065
   H ( 10)  3.807844  0.992888  1.551550
 
 A cutoff of  1.0D-14 yielded   4918 shell pairs
 There are     36240 function pairs (     44871 Cartesian)
 Smallest overlap matrix eigenvalue = 2.13E-04

 Scale SEOQF with 1.000000e-01/1.000000e-01/1.000000e-01

 Standard Electronic Orientation quadrupole field applied
 Nucleus-field energy     =     0.0000000040 hartrees

 -----------------------------------------------------------------------
  General SCF calculation program by
  Eric Jon Sundstrom, Paul Horn, Yuezhi Mao, Dmitri Zuev, Alec White,
  David Stuck, Shaama M.S., Shane Yost, Joonho Lee, David Small,
  Daniel Levine, Susi Lehtola, Hugh Burton, Evgeny Epifanovsky,
  Bang C. Huynh
 -----------------------------------------------------------------------
================================================================
                 ALMO-EDA with the EDA2 driver                  
================================================================
 The second-generation ALMO-EDA (for DFT):                      
 P. R. Horn, Y. Mao and M. Head-Gordon, PCCP, 18, 23067 (2016)  
 Y. Mao et al. Annu. Rev. Phys. Chem. 72, 641 (2021)            
 Decomposition of the frozen energy:                            
 P. R. Horn, Y. Mao and M. Head-Gordon, JCP, 144, 114107 (2016) 
 FERF model for polarization:                                   
 P. R. Horn and M. Head-Gordon, JCP, 143, 114111 (2015)         
================================================================
 Using eda2 option set 1
 Option set summary: Frozen orbital wavefunction, initial wavefunction decomposition, and nDQ polarization.
--------------------------------
Printing EDA Options
--------------------------------
eda_child_super_basis      0
fragmo_guess_mode          0
child_mp                   1
child_mp_orders            232
cls_elec                   1
cls_disp                   1
scfmi_mode                 1
scfmi_occs                 0
scfmi_virts                0
frz_relax                  0
frz_relax_method           0
dc_pen_start               0
dc_pen_conv                0
dc_pen_increment           0
dc_pen_steps               0
dc_pen_thresh_factor       0
dc_pen_pre_newton_thresh   0
frz_ortho_decomp           1
frz_ortho_decomp_conv      6
plot_mo_ortho_frz          0
frgm_method                2
scfmi_freeze_ss            0
separate_rehyb             0
plot_diff_den              0
eda_nocv                   0
eda_vct_relax              1
disp_free_x                0
disp_free_c                0
eda_bsse                   0
eda_pct_a                  0
eda_covp                   0
--------------------------------
Attempting to make child job directory: /scratch/qchem1085599//Frg1/
Attempting to make child job directory: /scratch/qchem1085599//Frg2/
Creating input file /scratch/qchem1085599/Frg1.input
using default PutDataFrgm: nothing
calling putenv with: QCSCRATCH=/scratch/qchem1085599/ 
Spawning Job For Fragment 0
Done Job For Fragment 0
calling putenv with: QCSCRATCH=/scratch 
calling putenv with: QCTHREADS=6 
Creating input file /scratch/qchem1085599/Frg2.input
using default PutDataFrgm: nothing
calling putenv with: QCSCRATCH=/scratch/qchem1085599/ 
Spawning Job For Fragment 1
Done Job For Fragment 1
calling putenv with: QCSCRATCH=/scratch 
calling putenv with: QCTHREADS=6 
Doing General SCFMI
 Exchange:     0.1500 Hartree-Fock + 1.0000 wB97M-V + LR-HF
 Correlation:  1.0000 wB97M-V
 Using Euler-Maclaurin-Lebedev (99,590) quadrature formula
 Nonlocal Correlation:  VV10 with C = 0.0100 and b = 6.00 and scale = 1.00000
 Grid used for NLC:  SG-1 standard quadrature
performing fock build before subrot guess so that all methods have access
Printing subrot_rss_gen Method Specification:
Occupied Subspace Method is 0
Virtual Subspace Method is 0
Energy of the unrelaxed supersystem initial determinant -2803.401143420184
write pseudocanon occs and virts to disk
write pseudocanon orbital energies to disk
Tolerance of ortho_decomp_scf: 1.00e-06
GDM subspace size: 20
Beginning the Orthogonal Decomposition of the Initial Supersystem Wavefunction
    1   -2803.1595069836      5.76e-01     ortho_decomp Preconditoned Steepest Descent
    2   -2803.2372955492      3.71e-03     ortho_decomp BFGS Step
    3   -2803.2373762346      4.79e-04     ortho_decomp BFGS Step
    4   -2803.2373766390      1.55e-05     ortho_decomp BFGS Step
    5   -2803.2373766394      4.15e-07     ortho_decomp 00000 Convergence criterion met
 Hartree-Fock
 Hartree-Fock
 Hartree-Fock
 Exchange:     0.1500 Hartree-Fock + 1.0000 wB97M-V + LR-HF
 Correlation:  1.0000 wB97M-V
 Using Euler-Maclaurin-Lebedev (99,590) quadrature formula
 Nonlocal Correlation:  VV10 with C = 0.0100 and b = 6.00 and scale = 1.00000
 Grid used for NLC:  SG-1 standard quadrature
 Long-range K will be added via erf
 Coulomb attenuation parameter = 0.3 bohr**(-1)
 Nonlocal correlation = 2.728294426798e-01
Doing General SCFMI
 Exchange:     0.1500 Hartree-Fock + 1.0000 wB97M-V + LR-HF
 Correlation:  1.0000 wB97M-V
 Using Euler-Maclaurin-Lebedev (99,590) quadrature formula
 Nonlocal Correlation:  VV10 with C = 0.0100 and b = 6.00 and scale = 1.00000
 Grid used for NLC:  SG-1 standard quadrature
performing fock build at end of subrot_r(subrot) constructor so that all methods have access
<S^2> of initial wavefunction before polarization iterations 0.0000000000
Beginning iterations for the determination of the polarized wavefunction
Energy prior to optimization (guess energy) = -2803.401143420185
Begin Timing: Total SCF Calculation
begin iterations for algorithm: DIIS         
the SCF tolerance is set to 1.00e-08
    1   -2803.4011434202      8.63e-04     00000 
    2   -2803.4180419659      3.58e-04     00000 
    3   -2803.4196344483      1.62e-04     00000 
    4   -2803.4200448536      6.63e-05     00000 
    5   -2803.4201481837      2.81e-05     00000 
    6   -2803.4201831651      1.51e-05     00000 
    7   -2803.4201959043      7.19e-06     00000 
    8   -2803.4201994157      3.13e-06     00000 
    9   -2803.4201998012      1.63e-06     00000 
   10   -2803.4201998590      1.13e-06     00000 
   11   -2803.4201998758      6.60e-07     00000 
   12   -2803.4201998798      3.62e-07     00000 
   13   -2803.4201998813      1.92e-07     00000 
   14   -2803.4201998819      9.99e-08     00000 
   15   -2803.4201998821      5.15e-08     00000 
   16   -2803.4201998822      2.13e-08     00000 
   17   -2803.4201998823      1.01e-08     00000 
   18   -2803.4201998823      4.64e-09     00000 Convergence criterion met
write pseudocanon occs and virts to disk
write pseudocanon orbital energies to disk
Timing for Total SCF: 109.00s (wall), 651.96s (cpu)
<S^2> of polarized wavefunction after polarization iterations 0.0000000000
relaxing scfmi constraint to allow all rotations in the entire AO span
Doing General SCFMI
 Exchange:     0.1500 Hartree-Fock + 1.0000 wB97M-V + LR-HF
 Correlation:  1.0000 wB97M-V
 Using Euler-Maclaurin-Lebedev (99,590) quadrature formula
 Nonlocal Correlation:  VV10 with C = 0.0100 and b = 6.00 and scale = 1.00000
 Grid used for NLC:  SG-1 standard quadrature
performing fock build at end of subrot_r(subrot) constructor so that all methods have access
<S^2> of polarized wavefunction before ct-allowed iterations 0.0000000000
Beginning iterations for the determination of the CT-Allowed wavefunction
Energy prior to optimization (guess energy) = -2803.420199882268
Begin Timing: Total SCF Calculation
begin iterations for algorithm: DIIS         
the SCF tolerance is set to 1.00e-08
    1   -2803.4201998823      7.70e-04     00000 
    2   -2803.4412953532      1.09e-04     00000 
    3   -2803.4422228942      5.41e-05     00000 
    4   -2803.4423022041      2.38e-05     00000 
    5   -2803.4423217265      6.02e-06     00000 
    6   -2803.4423230778      1.73e-06     00000 
    7   -2803.4423232938      5.02e-07     00000 
    8   -2803.4423233174      1.93e-07     00000 
    9   -2803.4423233194      7.87e-08     00000 
   10   -2803.4423233197      1.51e-08     00000 
   11   -2803.4423233198      3.73e-09     00000 Convergence criterion met
write pseudocanon occs and virts to disk
write pseudocanon orbital energies to disk
Timing for Total SCF: 64.00s (wall), 384.85s (cpu)
<S^2> of ct_allowed wavefunction after ct-allowed iterations 0.0000000000

================================
        Results of EDA2         
================================
Basic EDA Quantities
--------------------
Fragment Energies (Ha):
1-2574.0946475101
2 -229.2990729620
--------------------
  E_prp (kJ/mol) = 0.0000
  E_frz (kJ/mol) = -19.4892
  E_pol (kJ/mol) = -50.0333
  E_vct (kJ/mol) = -58.0858
  E_int (kJ/mol) = -127.6083
--------------------


Decomposition of frozen interaction energy
--------------------
  --------------------
  Orthogonal Frozen Decomposition:
  --------------------
     E_elec   (ELEC)   (kJ/mol) = -304.8089
     E_pauli  (PAULI)  (kJ/mol) = 323.0804
     E_disp   (DISP)   (kJ/mol) = -37.7606
  --------------------
  Classical Frozen Decomposition:
  --------------------
     E_cls_elec  (CLS ELEC)  (kJ/mol) = -199.5768
     E_mod_pauli (MOD PAULI) (kJ/mol) = 220.5468 (FRZ - CLS ELEC - CLS DISP)
     E_cls_disp  (CLS DISP)  (kJ/mol) = -40.4592
  --------------------
--------------------

Simplified EDA Summary (kJ/mol)
--------------------
 PREPARATION      0.0000
 FROZEN           -19.4892 (ELEC + PAULI + DISP)
[ELEC + PAULI = 20.9700, DISP = -40.4592]
 POLARIZATION    -50.0333
 CHARGE TRANSFER -58.0858
 TOTAL           -127.6083     (PRP + FRZ + POL + CT)
--------------------
 
 --------------------------------------------------------------
 
                    Orbital Energies (a.u.)
 --------------------------------------------------------------
 
 Alpha MOs
 -- Occupied --
******** -62.5710 -56.2562 -56.2561 -56.2559 -19.1846 -19.1748 -19.1603
 -8.6533  -6.4325  -6.4322  -6.4314  -2.5148  -2.5148  -2.5142  -2.5139
 -2.5138  -0.9875  -0.9861  -0.9451  -0.6510  -0.4906  -0.4896  -0.4490
 -0.3557  -0.3494  -0.3257  -0.2780  -0.2741  -0.2490  -0.1829  -0.1825
 -0.1772
 -- Virtual --
  0.1423   0.1545   0.1554   0.1670   0.1946   0.1978   0.2076   0.2136
  0.2194   0.2463   0.2491   0.2515   0.2566   0.2867   0.3081   0.3211
  0.3263   0.3299   0.3460   0.3633   0.3682   0.3758   0.3899   0.3921
  0.4002   0.4032   0.4068   0.4267   0.4335   0.4400   0.4515   0.4597
  0.4697   0.4782   0.4929   0.5027   0.5113   0.5231   0.5331   0.5456
  0.5580   0.5677   0.5943   0.6054   0.6175   0.6366   0.6494   0.6588
  0.6646   0.6737   0.6845   0.6974   0.7062   0.7223   0.7264   0.7441
  0.7472   0.7529   0.7588   0.7655   0.7777   0.7961   0.8139   0.8339
  0.8454   0.8873   0.8933   0.8977   0.9106   0.9303   0.9526   0.9669
  0.9827   0.9909   1.0262   1.0565   1.0701   1.0893   1.1002   1.1140
  1.1257   1.1552   1.1569   1.2158   1.2400   1.2550   1.2648   1.2860
  1.3066   1.3305   1.3456   1.3514   1.3622   1.3711   1.3863   1.4004
  1.4222   1.4856   1.4937   1.5408   1.5622   1.5731   1.5875   1.5959
  1.6699   1.8225   1.8327   1.8447   1.8729   1.8839   1.8975   1.9141
  1.9368   1.9552   2.0409   2.0837   2.0910   2.1122   2.1224   2.1292
  2.1595   2.1891   2.2030   2.2268   2.2636   2.2782   2.3272   2.3351
  2.4093   2.4172   2.4374   2.4644   2.5025   2.5468   2.6336   2.7750
  2.8321   2.8661   2.9352   2.9806   3.0255   3.1620   3.1769   3.1920
  3.3551   3.3659   3.3924   3.4133   3.4320   3.4591   3.4743   3.4830
  3.5196   3.5598   3.5751   3.5848   3.5988   3.6019   3.6161   3.6436
  3.6539   3.6873   3.7885   3.8107   3.9047   3.9353   3.9603   4.0407
  4.0489   4.0947   4.1085   4.1136   4.1480   4.1795   4.1911   4.2145
  4.2273   4.2402   4.2629   4.2938   4.3310   4.3652   4.3797   4.3923
  4.4164   4.4471   4.4542   4.4816   4.5165   4.5238   4.5418   4.5748
  4.7025   4.7319   4.8442   4.8703   4.8801   4.9482   4.9521   4.9977
  5.1480   5.1638   5.1928   5.3001   5.3887   5.4435   5.8042   5.8428
  5.8806   6.2514   6.3605   6.4594   6.5226   6.6295   6.7291   6.7325
  6.7716   6.7919   6.7923   6.8202   6.8347   6.8656   6.8717   6.8826
  6.9170   6.9243   6.9920   7.0318   7.0511   7.0628   7.2289   7.2533
  7.3061   7.6306   7.6517   7.6724   7.7315   7.7553   7.8504   7.9508
  8.0226   8.0835   8.1976  44.5216  44.5843  44.6838
 --------------------------------------------------------------
 
          Ground-State Mulliken Net Atomic Charges

     Atom                 Charge (a.u.)
  ----------------------------------------
      1 Br                   -0.788550
      2 O                    -0.529678
      3 H                     0.302054
      4 H                     0.170060
      5 O                    -0.437623
      6 H                     0.221141
      7 H                     0.106810
      8 O                    -0.406244
      9 H                     0.197692
     10 H                     0.164338
  ----------------------------------------
  Sum of atomic charges =    -1.000000

 -----------------------------------------------------------------
                    Cartesian Multipole Moments
 -----------------------------------------------------------------
    Charge (ESU x 10^10)
                -4.8032
    Dipole Moment (Debye)
         X       0.8392      Y       1.9641      Z       2.9599
       Tot       3.6501
    Quadrupole Moments (Debye-Ang)
        XX     -55.8869     XY       2.8511     YY     -46.3938
        XZ       1.5954     YZ       3.9171     ZZ     -51.5455
    Octopole Moments (Debye-Ang^2)
       XXX      -1.9173    XXY      -7.1772    XYY       9.5392
       YYY       1.5874    XXZ      12.0766    XYZ       9.7309
       YYZ       3.0465    XZZ      16.7457    YZZ      -6.6174
       ZZZ      20.8197
    Hexadecapole Moments (Debye-Ang^3)
      XXXX    -562.0601   XXXY     -21.6502   XXYY    -135.5375
      XYYY      32.6830   YYYY    -354.7896   XXXZ       5.8117
      XXYZ      -0.9005   XYYZ      15.6847   YYYZ       4.4039
      XXZZ    -177.6731   XYZZ       4.5305   YYZZ    -111.6097
      XZZZ     -13.8090   YZZZ      22.9527   ZZZZ    -288.7374
 -----------------------------------------------------------------
 Total job time:  514.36s(wall), 1676.59s(cpu) 
 Fri Jan 19 07:26:21 2024

        *************************************************************
        *                                                           *
        *  Thank you very much for using Q-Chem.  Have a nice day.  *
        *                                                           *
        *************************************************************


