
Running Job 1 of 1 123_Br-Water_Cls_050_almo.in
qchem 123_Br-Water_Cls_050_almo.in_1094434.0 /scratch/qchem1094434/ 6
/home/kchung25/qchem/5.4.0/exe/qcprog.exe_s 123_Br-Water_Cls_050_almo.in_1094434.0 /scratch/qchem1094434/
                  Welcome to Q-Chem
     A Quantum Leap Into The Future Of Chemistry


 Q-Chem 5.4, Q-Chem, Inc., Pleasanton, CA (2021)

 E. Epifanovsky,  A. T. B. Gilbert,  Xintian Feng,  Joonho Lee,  Yuezhi Mao,  
 N. Mardirossian,  P. Pokhilko,  A. White,  M. Wormit,  M. P. Coons,  
 A. L. Dempwolff,  Zhengting Gan,  D. Hait,  P. R. Horn,  L. D. Jacobson,  
 I. Kaliman,  J. Kussmann,  A. W. Lange,  Ka Un Lao,  D. S. Levine,  Jie Liu,  
 S. C. McKenzie,  A. F. Morrison,  K. Nanda,  F. Plasser,  D. R. Rehn,  
 M. L. Vidal,  Zhi-Qiang You,  Ying Zhu,  B. Alam,  B. Albrecht,  
 A. Aldossary,  E. Alguire,  J. H. Andersen,  D. Barton,  K. Begam,  A. Behn,  
 Y. A. Bernard,  E. J. Berquist,  H. Burton,  A. Carreras,  K. Carter-Fenk,  
 Romit Chakraborty,  A. D. Chien,  K. D. Closser,  V. Cofer-Shabica,  
 S. Dasgupta,  Jia Deng,  M. de Wergifosse,  M. Diedenhofen,  Hainam Do,  
 S. Ehlert,  Po-Tung Fang,  S. Fatehi,  Qingguo Feng,  T. Friedhoff,  
 J. Gayvert,  Qinghui Ge,  G. Gidofalvi,  M. Goldey,  J. Gomes,  
 C. Gonzalez-Espinoza,  S. Gulania,  A. Gunina,  M. W. D. Hanson-Heine,  
 P. H. P. Harbach,  A. W. Hauser,  M. F. Herbst,  M. Hernandez Vera,  
 M. Hodecker,  Z. C. Holden,  S. Houck,  Xunkun Huang,  Kerwin Hui,  
 B. C. Huynh,  M. Ivanov,  Hyunjun Ji,  Hanjie Jiang,  B. Kaduk,  S. Kaehler,  
 K. Khistyaev,  Jaehoon Kim,  P. Klunzinger,  Z. Koczor-Benda,  
 Joong Hoon Koh,  D. Kosenkov,  L. Koulias,  T. Kowalczyk,  C. M. Krauter,  
 K. Kue,  A. Kunitsa,  T. Kus,  A. Landau,  K. V. Lawler,  D. Lefrancois,  
 S. Lehtola,  Rain Li,  Yi-Pei Li,  Jiashu Liang,  M. Liebenthal,  
 Hung-Hsuan Lin,  You-Sheng Lin,  Fenglai Liu,  Kuan-Yu Liu,  
 M. Loipersberger,  A. Luenser,  A. Manjanath,  P. Manohar,  E. Mansoor,  
 S. F. Manzer,  Shan-Ping Mao,  A. V. Marenich,  T. Markovich,  S. Mason,  
 S. A. Maurer,  P. F. McLaughlin,  M. F. S. J. Menger,  J.-M. Mewes,  
 S. A. Mewes,  P. Morgante,  J. W. Mullinax,  K. J. Oosterbaan,  G. Paran,  
 Alexander C. Paul,  Suranjan K. Paul,  F. Pavosevic,  Zheng Pei,  S. Prager,  
 E. I. Proynov,  E. Ramos,  B. Rana,  A. E. Rask,  A. Rettig,  R. M. Richard,  
 F. Rob,  E. Rossomme,  T. Scheele,  M. Scheurer,  M. Schneider,  
 N. Sergueev,  S. M. Sharada,  W. Skomorowski,  D. W. Small,  C. J. Stein,  
 Yu-Chuan Su,  E. J. Sundstrom,  Zhen Tao,  J. Thirman,  T. Tsuchimochi,  
 N. M. Tubman,  S. P. Veccham,  O. Vydrov,  J. Wenzel,  J. Witte,  A. Yamada,  
 Kun Yao,  S. Yeganeh,  S. R. Yost,  A. Zech,  Igor Ying Zhang,  Xing Zhang,  
 Yu Zhang,  D. Zuev,  A. Aspuru-Guzik,  A. T. Bell,  N. A. Besley,  
 K. B. Bravaya,  B. R. Brooks,  D. Casanova,  Jeng-Da Chai,  S. Coriani,  
 C. J. Cramer,  A. E. DePrince, III,  R. A. DiStasio Jr.,  A. Dreuw,  
 B. D. Dunietz,  T. R. Furlani,  W. A. Goddard III,  S. Grimme,  
 S. Hammes-Schiffer,  T. Head-Gordon,  W. J. Hehre,  Chao-Ping Hsu,  
 T.-C. Jagau,  Yousung Jung,  A. Klamt,  Jing Kong,  D. S. Lambrecht,  
 WanZhen Liang,  N. J. Mayhall,  C. W. McCurdy,  J. B. Neaton,  T. Neudecker,  
 C. Ochsenfeld,  J. A. Parkhill,  R. Peverati,  V. A. Rassolov,  Yihan Shao,  
 L. V. Slipchenko,  R. P. Steele,  J. E. Subotnik,  A. J. W. Thom,  
 A. Tkatchenko,  D. G. Truhlar,  T. Van Voorhis,  T. A. Wesolowski,  
 K. B. Whaley,  H. L. Woodcock III,  P. M. Zimmerman,  S. Faraji,  
 P. M. W. Gill,  M. Head-Gordon,  J. M. Herbert,  A. I. Krylov

 Additional authors since Version 5.4.0: 
 Chandrima Chakravarty,  L. Cunha,  R. Kang,  Yongbin Kim,  S. Kotaru,  
 Shaozhi Li,  Xiangyuan Li,  F. Matz,  A. Molle,  V. Parravicini,  
 Haisheng Ren,  Hengyuan Shen,  Yingli Su,  Hung-Yi Tsai,  C. Utku,  
 Fang Wang,  Jeff Yang,  F. Zeller

 Contributors to earlier versions of Q-Chem not listed above: 
 R. D. Adamson,  B. Austin,  R. Baer,  J. Baker,  G. J. O. Beran,  
 K. Brandhorst,  S. T. Brown,  E. F. C. Byrd,  Arup K. Chakraborty,  
 G. K. L. Chan,  Chun-Min Chang,  Yunqing Chen,  C.-L. Cheng,  
 Siu Hung Chien,  D. M. Chipman,  D. L. Crittenden,  H. Dachsel,  
 R. J. Doerksen,  A. D. Dutoi,  R. G. Edgar,  J. Fosso-Tande,  
 L. Fusti-Molnar,  D. Ghosh,  A. Ghysels,  A. Golubeva-Zadorozhnaya,  
 J. Gonthier,  M. S. Gordon,  S. R. Gwaltney,  G. Hawkins,  J. E. Herr,  
 A. Heyden,  S. Hirata,  E. G. Hohenstein,  G. Kedziora,  F. J. Keil,  
 C. Kelley,  Jihan Kim,  R. A. King,  R. Z. Khaliullin,  P. P. Korambath,  
 W. Kurlancheek,  A. Laurent,  A. M. Lee,  M. S. Lee,  S. V. Levchenko,  
 Ching Yeh Lin,  D. Liotard,  E. Livshits,  R. C. Lochan,  I. Lotan,  
 L. A. Martinez-Martinez,  P. E. Maslen,  N. Nair,  D. P. O'Neill,  
 D. Neuhauser,  E. Neuscamman,  C. M. Oana,  R. Olivares-Amaya,  R. Olson,  
 T. M. Perrine,  B. Peters,  P. A. Pieniazek,  A. Prociuk,  Y. M. Rhee,  
 J. Ritchie,  M. A. Rohrdanz,  E. Rosta,  N. J. Russ,  H. F. Schaefer III,  
 M. W. Schmidt,  N. E. Schultz,  S. Sharma,  N. Shenvi,  C. D. Sherrill,  
 A. C. Simmonett,  A. Sodt,  T. Stein,  D. Stuck,  K. S. Thanthiriwatte,  
 V. Vanovschi,  L. Vogt,  Tao Wang,  A. Warshel,  M. A. Watson,  
 C. F. Williams,  Q. Wu,  X. Xu,  Jun Yang,  W. Zhang,  Yan Zhao

   Please cite Q-Chem as follows:
  "Software for the frontiers of quantum chemistry:
   An overview of developments in the Q-Chem 5 package"
   J. Chem. Phys. 155, 084801 (2021)
   https://doi.org/10.1063/5.0055522 (open access)

 Q-Chem 5.4.2 for Intel X86 EM64T Linux

 Parts of Q-Chem use Armadillo 9.900.5 (Nocturnal Misbehaviour).
 http://arma.sourceforge.net/

 Q-Chem begins on Fri Jan 19 16:56:33 2024  

 Host: 
0

     Scratch files written to /scratch/qchem1094434//
 Dec1321 |scratch|qcdevops|jenkins|workspace|build_RNUM 5684   
 Processing $rem in /home/kchung25/qchem/5.4.0/config/preferences:
 Processing $rem in /home/kchung25/.qchemrc:

 Q-Chem warning in module libgen/rem_setup.C, line 3079:

 Neither GIA nor STOLL is specified by user. Use STOLL as the default


 Checking the input file for inconsistencies... 	...done.

--------------------------------------------------------------
User input:
--------------------------------------------------------------
$molecule
-1 1
--
-1 1
Br     0.000000     0.000000     0.000000
--
0 1
O     -2.114396    -0.823968    -2.451740
H     -1.344934    -0.815549    -1.892709
H     -2.578301    -1.686826    -2.349784
O     -2.840106    -0.818403     1.694288
H     -2.923211    -1.709126     1.352216
H     -1.976154    -0.530056     1.405183
O      0.359761    -1.678973     2.757291
H      0.155656    -1.071042     3.436648
H      0.309349    -1.206416     1.893897
O     -0.002582    -3.436636     0.122679
H     -0.128662    -2.474547     0.122748
H      0.840782    -3.640659    -0.311875
O      3.119434    -1.374833    -0.676470
H      2.298457    -1.110581    -0.190519
H      3.320939    -2.236567    -0.244513
$end

$rem
JOBTYPE          eda
EDA2             1
METHOD           wB97M-V
BASIS            def2-TZVPPD
SYMMETRY         false
MEM_TOTAL        50000
MEM_STATIC       10000
THRESH           14
SCF_CONVERGENCE  8
XC_GRID          000099000590
NL_GRID          1
EDA_CLS_DISP     true
FD_MAT_VEC_PROD  FALSE
$end
--------------------------------------------------------------
 ----------------------------------------------------------------
             Standard Nuclear Orientation (Angstroms)
    I     Atom           X                Y                Z
 ----------------------------------------------------------------
    1      Br     -0.0145559318    -0.3848836124    -0.9103882440
    2      O      -1.9782201580    -2.4873276298     0.7879564494
    3      H      -1.2155623363    -1.9843298274     0.5233726900
    4      H      -2.2779996785    -2.1777121778     1.6736185261
    5      O      -2.6387169739     1.5923219573    -0.0098137890
    6      H      -2.5647447350     1.4550176787     0.9351638826
    7      H      -1.8445746298     1.2030353455    -0.3716599206
    8      O       0.6773939077     2.6466587441     0.0287540940
    9      H       0.3761988384     3.1888232458    -0.6698903568
   10      H       0.5315076421     1.7055855510    -0.2250157425
   11      O       0.6025900601     0.4752783486     2.3614271581
   12      H       0.3055462608     0.2746739553     1.4597430262
   13      H       1.4631290372     0.0513192816     2.5079084823
   14      O       3.2921416806    -0.9117171937     0.0206558994
   15      H       2.4434638887    -0.4517889860    -0.1988726357
   16      H       3.6509851928    -0.3154114468     0.7173820950
 ----------------------------------------------------------------
 Molecular Point Group                 C1    NOp =  1
 Largest Abelian Subgroup              C1    NOp =  1
 Nuclear Repulsion Energy =         452.31450989 hartrees
 There are       43 alpha and       43 beta electrons
 Requested basis set is def2-TZVPPD
 There are 159 shells and 427 basis functions

 Q-Chem warning in module libmdc/get_mega.C, line 171:

 Allowed MEM_STATIC has been capped at MEM_STATIC=8191.
 Reduce the value of MEM_STATIC to silence this warning.


 Total QAlloc Memory Limit  50000 MB
 Mega-Array Size      8007 MB
 MEM_STATIC part      8191 MB
 A cutoff of  1.0D-14 yielded  10981 shell pairs
 There are     78205 function pairs (     95765 Cartesian)
 Smallest overlap matrix eigenvalue = 1.92E-04

 Scale SEOQF with 1.000000e-01/1.000000e-01/1.000000e-01

 Standard Electronic Orientation quadrupole field applied
 Nucleus-field energy     =     0.0000000097 hartrees

 -----------------------------------------------------------------------
  General SCF calculation program by
  Eric Jon Sundstrom, Paul Horn, Yuezhi Mao, Dmitri Zuev, Alec White,
  David Stuck, Shaama M.S., Shane Yost, Joonho Lee, David Small,
  Daniel Levine, Susi Lehtola, Hugh Burton, Evgeny Epifanovsky,
  Bang C. Huynh
 -----------------------------------------------------------------------
================================================================
                 ALMO-EDA with the EDA2 driver                  
================================================================
 The second-generation ALMO-EDA (for DFT):                      
 P. R. Horn, Y. Mao and M. Head-Gordon, PCCP, 18, 23067 (2016)  
 Y. Mao et al. Annu. Rev. Phys. Chem. 72, 641 (2021)            
 Decomposition of the frozen energy:                            
 P. R. Horn, Y. Mao and M. Head-Gordon, JCP, 144, 114107 (2016) 
 FERF model for polarization:                                   
 P. R. Horn and M. Head-Gordon, JCP, 143, 114111 (2015)         
================================================================
 Using eda2 option set 1
 Option set summary: Frozen orbital wavefunction, initial wavefunction decomposition, and nDQ polarization.
--------------------------------
Printing EDA Options
--------------------------------
eda_child_super_basis      0
fragmo_guess_mode          0
child_mp                   1
child_mp_orders            232
cls_elec                   1
cls_disp                   1
scfmi_mode                 1
scfmi_occs                 0
scfmi_virts                0
frz_relax                  0
frz_relax_method           0
dc_pen_start               0
dc_pen_conv                0
dc_pen_increment           0
dc_pen_steps               0
dc_pen_thresh_factor       0
dc_pen_pre_newton_thresh   0
frz_ortho_decomp           1
frz_ortho_decomp_conv      6
plot_mo_ortho_frz          0
frgm_method                2
scfmi_freeze_ss            0
separate_rehyb             0
plot_diff_den              0
eda_nocv                   0
eda_vct_relax              1
disp_free_x                0
disp_free_c                0
eda_bsse                   0
eda_pct_a                  0
eda_covp                   0
--------------------------------
Attempting to make child job directory: /scratch/qchem1094434//Frg1/
Attempting to make child job directory: /scratch/qchem1094434//Frg2/
Creating input file /scratch/qchem1094434/Frg1.input
using default PutDataFrgm: nothing
calling putenv with: QCSCRATCH=/scratch/qchem1094434/ 
Spawning Job For Fragment 0
Done Job For Fragment 0
calling putenv with: QCSCRATCH=/scratch 
calling putenv with: QCTHREADS=6 
Creating input file /scratch/qchem1094434/Frg2.input
using default PutDataFrgm: nothing
calling putenv with: QCSCRATCH=/scratch/qchem1094434/ 
Spawning Job For Fragment 1
Done Job For Fragment 1
calling putenv with: QCSCRATCH=/scratch 
calling putenv with: QCTHREADS=6 
Doing General SCFMI
 Exchange:     0.1500 Hartree-Fock + 1.0000 wB97M-V + LR-HF
 Correlation:  1.0000 wB97M-V
 Using Euler-Maclaurin-Lebedev (99,590) quadrature formula
 Nonlocal Correlation:  VV10 with C = 0.0100 and b = 6.00 and scale = 1.00000
 Grid used for NLC:  SG-1 standard quadrature
performing fock build before subrot guess so that all methods have access
Printing subrot_rss_gen Method Specification:
Occupied Subspace Method is 0
Virtual Subspace Method is 0
Energy of the unrelaxed supersystem initial determinant -2956.302271278499
write pseudocanon occs and virts to disk
write pseudocanon orbital energies to disk
Tolerance of ortho_decomp_scf: 1.00e-06
GDM subspace size: 20
Beginning the Orthogonal Decomposition of the Initial Supersystem Wavefunction
    1   -2956.0124814856      4.52e-01     ortho_decomp Preconditoned Steepest Descent
    2   -2956.0948954603      2.87e-03     ortho_decomp BFGS Step
    3   -2956.0949777396      3.60e-04     ortho_decomp BFGS Step
    4   -2956.0949781137      1.10e-05     ortho_decomp BFGS Step
    5   -2956.0949781140      2.81e-07     ortho_decomp 00000 Convergence criterion met
 Hartree-Fock
 Hartree-Fock
 Hartree-Fock
 Exchange:     0.1500 Hartree-Fock + 1.0000 wB97M-V + LR-HF
 Correlation:  1.0000 wB97M-V
 Using Euler-Maclaurin-Lebedev (99,590) quadrature formula
 Nonlocal Correlation:  VV10 with C = 0.0100 and b = 6.00 and scale = 1.00000
 Grid used for NLC:  SG-1 standard quadrature
 Long-range K will be added via erf
 Coulomb attenuation parameter = 0.3 bohr**(-1)
 Nonlocal correlation = 3.545286686576e-01
Doing General SCFMI
 Exchange:     0.1500 Hartree-Fock + 1.0000 wB97M-V + LR-HF
 Correlation:  1.0000 wB97M-V
 Using Euler-Maclaurin-Lebedev (99,590) quadrature formula
 Nonlocal Correlation:  VV10 with C = 0.0100 and b = 6.00 and scale = 1.00000
 Grid used for NLC:  SG-1 standard quadrature
performing fock build at end of subrot_r(subrot) constructor so that all methods have access
<S^2> of initial wavefunction before polarization iterations 0.0000000000
Beginning iterations for the determination of the polarized wavefunction
Energy prior to optimization (guess energy) = -2956.302271278499
Begin Timing: Total SCF Calculation
begin iterations for algorithm: DIIS         
the SCF tolerance is set to 1.00e-08
    1   -2956.3022712785      5.96e-04     00000 
    2   -2956.3231576914      2.33e-04     00000 
    3   -2956.3250809183      9.52e-05     00000 
    4   -2956.3255008078      4.08e-05     00000 
    5   -2956.3256061268      1.74e-05     00000 
    6   -2956.3256368942      1.05e-05     00000 
    7   -2956.3256465313      5.23e-06     00000 
    8   -2956.3256499439      2.55e-06     00000 
    9   -2956.3256503007      1.64e-06     00000 
   10   -2956.3256503748      1.10e-06     00000 
   11   -2956.3256503877      7.42e-07     00000 
   12   -2956.3256503993      3.69e-07     00000 
   13   -2956.3256504084      1.59e-07     00000 
   14   -2956.3256504105      6.02e-08     00000 
   15   -2956.3256504108      3.76e-08     00000 
   16   -2956.3256504109      1.79e-08     00000 
   17   -2956.3256504109      7.21e-09     00000 Convergence criterion met
write pseudocanon occs and virts to disk
write pseudocanon orbital energies to disk
Timing for Total SCF: 314.00s (wall), 1882.45s (cpu)
<S^2> of polarized wavefunction after polarization iterations 0.0000000000
relaxing scfmi constraint to allow all rotations in the entire AO span
Doing General SCFMI
 Exchange:     0.1500 Hartree-Fock + 1.0000 wB97M-V + LR-HF
 Correlation:  1.0000 wB97M-V
 Using Euler-Maclaurin-Lebedev (99,590) quadrature formula
 Nonlocal Correlation:  VV10 with C = 0.0100 and b = 6.00 and scale = 1.00000
 Grid used for NLC:  SG-1 standard quadrature
performing fock build at end of subrot_r(subrot) constructor so that all methods have access
<S^2> of polarized wavefunction before ct-allowed iterations 0.0000000000
Beginning iterations for the determination of the CT-Allowed wavefunction
Energy prior to optimization (guess energy) = -2956.325650410931
Begin Timing: Total SCF Calculation
begin iterations for algorithm: DIIS         
the SCF tolerance is set to 1.00e-08
    1   -2956.3256504109      4.99e-04     00000 
    2   -2956.3438461340      6.41e-05     00000 
    3   -2956.3445567554      3.18e-05     00000 
    4   -2956.3446147191      1.31e-05     00000 
    5   -2956.3446268244      3.19e-06     00000 
    6   -2956.3446275909      8.50e-07     00000 
    7   -2956.3446277056      2.31e-07     00000 
    8   -2956.3446277187      5.40e-08     00000 
    9   -2956.3446277194      3.23e-08     00000 
   10   -2956.3446277195      7.46e-09     00000 Convergence criterion met
write pseudocanon occs and virts to disk
write pseudocanon orbital energies to disk
Timing for Total SCF: 176.00s (wall), 1052.03s (cpu)
<S^2> of ct_allowed wavefunction after ct-allowed iterations 0.0000000000

================================
        Results of EDA2         
================================
Basic EDA Quantities
--------------------
Fragment Energies (Ha):
1-2574.0946475100
2 -382.1690088878
--------------------
  E_prp (kJ/mol) = 0.0000
  E_frz (kJ/mol) = -101.3846
  E_pol (kJ/mol) = -61.3826
  E_vct (kJ/mol) = -49.8255
  E_int (kJ/mol) = -212.5927
--------------------


Decomposition of frozen interaction energy
--------------------
  --------------------
  Orthogonal Frozen Decomposition:
  --------------------
     E_elec   (ELEC)   (kJ/mol) = -393.8292
     E_pauli  (PAULI)  (kJ/mol) = 341.6650
     E_disp   (DISP)   (kJ/mol) = -49.2203
  --------------------
  Classical Frozen Decomposition:
  --------------------
     E_cls_elec  (CLS ELEC)  (kJ/mol) = -257.8323
     E_mod_pauli (MOD PAULI) (kJ/mol) = 206.1248 (FRZ - CLS ELEC - CLS DISP)
     E_cls_disp  (CLS DISP)  (kJ/mol) = -49.6771
  --------------------
--------------------

Simplified EDA Summary (kJ/mol)
--------------------
 PREPARATION      0.0000
 FROZEN           -101.3846 (ELEC + PAULI + DISP)
[ELEC + PAULI = -51.7075, DISP = -49.6771]
 POLARIZATION    -61.3826
 CHARGE TRANSFER -49.8255
 TOTAL           -212.5927     (PRP + FRZ + POL + CT)
--------------------
 
 --------------------------------------------------------------
 
                    Orbital Energies (a.u.)
 --------------------------------------------------------------
 
 Alpha MOs
 -- Occupied --
******** -62.6007 -56.2859 -56.2858 -56.2858 -19.2118 -19.1995 -19.1945
-19.1889 -19.1828  -8.6826  -6.4617  -6.4613  -6.4612  -2.5439  -2.5439
 -2.5438  -2.5435  -2.5434  -1.0041  -1.0001  -0.9980  -0.9955  -0.9914
 -0.6785  -0.5135  -0.5063  -0.4993  -0.4968  -0.4939  -0.3826  -0.3643
 -0.3631  -0.3577  -0.3524  -0.2989  -0.2928  -0.2900  -0.2862  -0.2752
 -0.2117  -0.2099  -0.2087
 -- Virtual --
  0.1285   0.1397   0.1419   0.1483   0.1674   0.1719   0.1779   0.1847
  0.1888   0.2115   0.2143   0.2210   0.2221   0.2266   0.2343   0.2376
  0.2476   0.2594   0.2628   0.2711   0.2739   0.2850   0.2926   0.3093
  0.3130   0.3181   0.3262   0.3368   0.3476   0.3571   0.3640   0.3688
  0.3759   0.3786   0.3886   0.3927   0.4024   0.4061   0.4134   0.4170
  0.4236   0.4296   0.4316   0.4399   0.4428   0.4454   0.4498   0.4609
  0.4795   0.4818   0.4867   0.4966   0.5036   0.5099   0.5118   0.5184
  0.5239   0.5305   0.5374   0.5547   0.5618   0.5659   0.5775   0.5842
  0.5869   0.5925   0.6048   0.6142   0.6268   0.6333   0.6381   0.6460
  0.6558   0.6577   0.6689   0.6799   0.6889   0.6990   0.7024   0.7107
  0.7192   0.7260   0.7322   0.7363   0.7404   0.7504   0.7568   0.7671
  0.7708   0.7796   0.7880   0.7930   0.8053   0.8257   0.8275   0.8455
  0.8493   0.8566   0.8611   0.8922   0.8988   0.9040   0.9114   0.9289
  0.9348   0.9491   0.9602   0.9743   0.9855   1.0019   1.0124   1.0307
  1.0513   1.0554   1.0577   1.0611   1.0758   1.0765   1.0839   1.1022
  1.1052   1.1216   1.1390   1.1439   1.1667   1.1841   1.1939   1.2068
  1.2154   1.2314   1.2479   1.2621   1.2707   1.2783   1.2923   1.3006
  1.3143   1.3245   1.3363   1.3472   1.3570   1.3741   1.3906   1.4036
  1.4141   1.4158   1.4321   1.4448   1.4528   1.4625   1.4693   1.4915
  1.4943   1.5195   1.5404   1.5472   1.5543   1.5717   1.6054   1.6265
  1.6326   1.6567   1.7563   1.8341   1.8489   1.8536   1.8671   1.8903
  1.9114   1.9295   1.9835   2.0137   2.0408   2.0678   2.0864   2.0979
  2.1149   2.1198   2.1406   2.1608   2.1663   2.1917   2.2051   2.2136
  2.2225   2.2392   2.2554   2.2768   2.2878   2.2945   2.3171   2.3278
  2.3494   2.3710   2.3994   2.4083   2.4460   2.4601   2.4771   2.4829
  2.5050   2.5239   2.5966   2.7312   2.7469   2.8072   2.8664   2.9178
  2.9292   2.9411   2.9764   3.0147   3.0354   3.1459   3.1555   3.1785
  3.2184   3.2530   3.3354   3.3550   3.3728   3.3841   3.3875   3.4108
  3.4211   3.4269   3.4354   3.4514   3.4690   3.4735   3.4881   3.5215
  3.5353   3.5469   3.5576   3.5606   3.5688   3.5799   3.5824   3.5875
  3.6000   3.6052   3.6139   3.6176   3.6302   3.6734   3.6940   3.7294
  3.7512   3.8282   3.8348   3.8617   3.8662   3.8749   3.9050   3.9289
  3.9720   3.9934   4.0370   4.0452   4.0632   4.0798   4.0929   4.1023
  4.1229   4.1462   4.1574   4.1633   4.1805   4.2052   4.2140   4.2233
  4.2397   4.2443   4.2612   4.2749   4.2903   4.3005   4.3334   4.3413
  4.3572   4.3599   4.3680   4.3814   4.4212   4.4253   4.4413   4.4464
  4.4542   4.4718   4.4871   4.5019   4.5148   4.5457   4.6245   4.6449
  4.6657   4.6800   4.8345   4.8735   4.8989   4.9122   4.9211   4.9240
  4.9308   4.9439   4.9803   4.9952   5.0852   5.1534   5.1777   5.1859
  5.2424   5.3356   5.3520   5.3644   5.4095   5.4418   5.8045   5.8129
  5.8170   5.8502   5.8696   6.2903   6.3010   6.3641   6.3852   6.4548
  6.5701   6.6555   6.6558   6.6717   6.6811   6.6844   6.7152   6.7432
  6.7691   6.7729   6.7871   6.8018   6.8109   6.8152   6.8243   6.8487
  6.8686   6.8827   6.9006   6.9117   6.9271   6.9383   6.9477   6.9639
  6.9774   7.0035   7.0214   7.0344   7.0536   7.0676   7.1642   7.2657
  7.2843   7.2988   7.3352   7.6202   7.6320   7.6414   7.6938   7.7104
  7.7151   7.7427   7.7531   7.8036   7.8384   7.8805   8.0139   8.0254
  8.0491   8.1496   8.2060  44.5291  44.5736  44.6509  44.6743  44.7282
 --------------------------------------------------------------
 
          Ground-State Mulliken Net Atomic Charges

     Atom                 Charge (a.u.)
  ----------------------------------------
      1 Br                   -0.786846
      2 O                    -0.434948
      3 H                     0.253777
      4 H                     0.166519
      5 O                    -0.443726
      6 H                     0.159296
      7 H                     0.261740
      8 O                    -0.414086
      9 H                     0.089562
     10 H                     0.239488
     11 O                    -0.439097
     12 H                     0.223337
     13 H                     0.147388
     14 O                    -0.461436
     15 H                     0.273073
     16 H                     0.165959
  ----------------------------------------
  Sum of atomic charges =    -1.000000

 -----------------------------------------------------------------
                    Cartesian Multipole Moments
 -----------------------------------------------------------------
    Charge (ESU x 10^10)
                -4.8032
    Dipole Moment (Debye)
         X       1.3533      Y       0.9999      Z       1.7799
       Tot       2.4494
    Quadrupole Moments (Debye-Ang)
        XX     -75.4614     XY       1.9400     YY     -77.4978
        XZ      -0.0637     YZ      -6.6158     ZZ     -60.5701
    Octopole Moments (Debye-Ang^2)
       XXX      13.9351    XXY       8.7180    XYY      10.7904
       YYY      13.1449    XXZ      32.8265    XYZ      -5.8815
       YYZ     -21.7539    XZZ      -4.1443    YZZ      -8.1620
       ZZZ     -18.4468
    Hexadecapole Moments (Debye-Ang^3)
      XXXX   -1203.6605   XXXY      96.6483   XXYY    -416.4062
      XYYY     -46.5789   YYYY    -899.0303   XXXZ      30.0540
      XXYZ       3.4122   XYYZ     -14.5865   YYYZ     -22.8425
      XXZZ    -186.8812   XYZZ       1.8642   YYZZ    -196.2309
      XZZZ       0.3266   YZZZ     -26.9496   ZZZZ    -478.4403
 -----------------------------------------------------------------
 Total job time:  1783.77s(wall), 4953.91s(cpu) 
 Fri Jan 19 17:26:17 2024

        *************************************************************
        *                                                           *
        *  Thank you very much for using Q-Chem.  Have a nice day.  *
        *                                                           *
        *************************************************************


