
Running Job 1 of 1 123_Br-Water_Cls_047_almo.in
qchem 123_Br-Water_Cls_047_almo.in_1094214.0 /scratch/qchem1094214/ 6
/home/kchung25/qchem/5.4.0/exe/qcprog.exe_s 123_Br-Water_Cls_047_almo.in_1094214.0 /scratch/qchem1094214/
                  Welcome to Q-Chem
     A Quantum Leap Into The Future Of Chemistry


 Q-Chem 5.4, Q-Chem, Inc., Pleasanton, CA (2021)

 E. Epifanovsky,  A. T. B. Gilbert,  Xintian Feng,  Joonho Lee,  Yuezhi Mao,  
 N. Mardirossian,  P. Pokhilko,  A. White,  M. Wormit,  M. P. Coons,  
 A. L. Dempwolff,  Zhengting Gan,  D. Hait,  P. R. Horn,  L. D. Jacobson,  
 I. Kaliman,  J. Kussmann,  A. W. Lange,  Ka Un Lao,  D. S. Levine,  Jie Liu,  
 S. C. McKenzie,  A. F. Morrison,  K. Nanda,  F. Plasser,  D. R. Rehn,  
 M. L. Vidal,  Zhi-Qiang You,  Ying Zhu,  B. Alam,  B. Albrecht,  
 A. Aldossary,  E. Alguire,  J. H. Andersen,  D. Barton,  K. Begam,  A. Behn,  
 Y. A. Bernard,  E. J. Berquist,  H. Burton,  A. Carreras,  K. Carter-Fenk,  
 Romit Chakraborty,  A. D. Chien,  K. D. Closser,  V. Cofer-Shabica,  
 S. Dasgupta,  Jia Deng,  M. de Wergifosse,  M. Diedenhofen,  Hainam Do,  
 S. Ehlert,  Po-Tung Fang,  S. Fatehi,  Qingguo Feng,  T. Friedhoff,  
 J. Gayvert,  Qinghui Ge,  G. Gidofalvi,  M. Goldey,  J. Gomes,  
 C. Gonzalez-Espinoza,  S. Gulania,  A. Gunina,  M. W. D. Hanson-Heine,  
 P. H. P. Harbach,  A. W. Hauser,  M. F. Herbst,  M. Hernandez Vera,  
 M. Hodecker,  Z. C. Holden,  S. Houck,  Xunkun Huang,  Kerwin Hui,  
 B. C. Huynh,  M. Ivanov,  Hyunjun Ji,  Hanjie Jiang,  B. Kaduk,  S. Kaehler,  
 K. Khistyaev,  Jaehoon Kim,  P. Klunzinger,  Z. Koczor-Benda,  
 Joong Hoon Koh,  D. Kosenkov,  L. Koulias,  T. Kowalczyk,  C. M. Krauter,  
 K. Kue,  A. Kunitsa,  T. Kus,  A. Landau,  K. V. Lawler,  D. Lefrancois,  
 S. Lehtola,  Rain Li,  Yi-Pei Li,  Jiashu Liang,  M. Liebenthal,  
 Hung-Hsuan Lin,  You-Sheng Lin,  Fenglai Liu,  Kuan-Yu Liu,  
 M. Loipersberger,  A. Luenser,  A. Manjanath,  P. Manohar,  E. Mansoor,  
 S. F. Manzer,  Shan-Ping Mao,  A. V. Marenich,  T. Markovich,  S. Mason,  
 S. A. Maurer,  P. F. McLaughlin,  M. F. S. J. Menger,  J.-M. Mewes,  
 S. A. Mewes,  P. Morgante,  J. W. Mullinax,  K. J. Oosterbaan,  G. Paran,  
 Alexander C. Paul,  Suranjan K. Paul,  F. Pavosevic,  Zheng Pei,  S. Prager,  
 E. I. Proynov,  E. Ramos,  B. Rana,  A. E. Rask,  A. Rettig,  R. M. Richard,  
 F. Rob,  E. Rossomme,  T. Scheele,  M. Scheurer,  M. Schneider,  
 N. Sergueev,  S. M. Sharada,  W. Skomorowski,  D. W. Small,  C. J. Stein,  
 Yu-Chuan Su,  E. J. Sundstrom,  Zhen Tao,  J. Thirman,  T. Tsuchimochi,  
 N. M. Tubman,  S. P. Veccham,  O. Vydrov,  J. Wenzel,  J. Witte,  A. Yamada,  
 Kun Yao,  S. Yeganeh,  S. R. Yost,  A. Zech,  Igor Ying Zhang,  Xing Zhang,  
 Yu Zhang,  D. Zuev,  A. Aspuru-Guzik,  A. T. Bell,  N. A. Besley,  
 K. B. Bravaya,  B. R. Brooks,  D. Casanova,  Jeng-Da Chai,  S. Coriani,  
 C. J. Cramer,  A. E. DePrince, III,  R. A. DiStasio Jr.,  A. Dreuw,  
 B. D. Dunietz,  T. R. Furlani,  W. A. Goddard III,  S. Grimme,  
 S. Hammes-Schiffer,  T. Head-Gordon,  W. J. Hehre,  Chao-Ping Hsu,  
 T.-C. Jagau,  Yousung Jung,  A. Klamt,  Jing Kong,  D. S. Lambrecht,  
 WanZhen Liang,  N. J. Mayhall,  C. W. McCurdy,  J. B. Neaton,  T. Neudecker,  
 C. Ochsenfeld,  J. A. Parkhill,  R. Peverati,  V. A. Rassolov,  Yihan Shao,  
 L. V. Slipchenko,  R. P. Steele,  J. E. Subotnik,  A. J. W. Thom,  
 A. Tkatchenko,  D. G. Truhlar,  T. Van Voorhis,  T. A. Wesolowski,  
 K. B. Whaley,  H. L. Woodcock III,  P. M. Zimmerman,  S. Faraji,  
 P. M. W. Gill,  M. Head-Gordon,  J. M. Herbert,  A. I. Krylov

 Additional authors since Version 5.4.0: 
 Chandrima Chakravarty,  L. Cunha,  R. Kang,  Yongbin Kim,  S. Kotaru,  
 Shaozhi Li,  Xiangyuan Li,  F. Matz,  A. Molle,  V. Parravicini,  
 Haisheng Ren,  Hengyuan Shen,  Yingli Su,  Hung-Yi Tsai,  C. Utku,  
 Fang Wang,  Jeff Yang,  F. Zeller

 Contributors to earlier versions of Q-Chem not listed above: 
 R. D. Adamson,  B. Austin,  R. Baer,  J. Baker,  G. J. O. Beran,  
 K. Brandhorst,  S. T. Brown,  E. F. C. Byrd,  Arup K. Chakraborty,  
 G. K. L. Chan,  Chun-Min Chang,  Yunqing Chen,  C.-L. Cheng,  
 Siu Hung Chien,  D. M. Chipman,  D. L. Crittenden,  H. Dachsel,  
 R. J. Doerksen,  A. D. Dutoi,  R. G. Edgar,  J. Fosso-Tande,  
 L. Fusti-Molnar,  D. Ghosh,  A. Ghysels,  A. Golubeva-Zadorozhnaya,  
 J. Gonthier,  M. S. Gordon,  S. R. Gwaltney,  G. Hawkins,  J. E. Herr,  
 A. Heyden,  S. Hirata,  E. G. Hohenstein,  G. Kedziora,  F. J. Keil,  
 C. Kelley,  Jihan Kim,  R. A. King,  R. Z. Khaliullin,  P. P. Korambath,  
 W. Kurlancheek,  A. Laurent,  A. M. Lee,  M. S. Lee,  S. V. Levchenko,  
 Ching Yeh Lin,  D. Liotard,  E. Livshits,  R. C. Lochan,  I. Lotan,  
 L. A. Martinez-Martinez,  P. E. Maslen,  N. Nair,  D. P. O'Neill,  
 D. Neuhauser,  E. Neuscamman,  C. M. Oana,  R. Olivares-Amaya,  R. Olson,  
 T. M. Perrine,  B. Peters,  P. A. Pieniazek,  A. Prociuk,  Y. M. Rhee,  
 J. Ritchie,  M. A. Rohrdanz,  E. Rosta,  N. J. Russ,  H. F. Schaefer III,  
 M. W. Schmidt,  N. E. Schultz,  S. Sharma,  N. Shenvi,  C. D. Sherrill,  
 A. C. Simmonett,  A. Sodt,  T. Stein,  D. Stuck,  K. S. Thanthiriwatte,  
 V. Vanovschi,  L. Vogt,  Tao Wang,  A. Warshel,  M. A. Watson,  
 C. F. Williams,  Q. Wu,  X. Xu,  Jun Yang,  W. Zhang,  Yan Zhao

   Please cite Q-Chem as follows:
  "Software for the frontiers of quantum chemistry:
   An overview of developments in the Q-Chem 5 package"
   J. Chem. Phys. 155, 084801 (2021)
   https://doi.org/10.1063/5.0055522 (open access)

 Q-Chem 5.4.2 for Intel X86 EM64T Linux

 Parts of Q-Chem use Armadillo 9.900.5 (Nocturnal Misbehaviour).
 http://arma.sourceforge.net/

 Q-Chem begins on Fri Jan 19 15:48:05 2024  

 Host: 
0

     Scratch files written to /scratch/qchem1094214//
 Dec1321 |scratch|qcdevops|jenkins|workspace|build_RNUM 5684   
 Processing $rem in /home/kchung25/qchem/5.4.0/config/preferences:
 Processing $rem in /home/kchung25/.qchemrc:

 Q-Chem warning in module libgen/rem_setup.C, line 3079:

 Neither GIA nor STOLL is specified by user. Use STOLL as the default


 Checking the input file for inconsistencies... 	...done.

--------------------------------------------------------------
User input:
--------------------------------------------------------------
$molecule
-1 1
--
-1 1
Br     0.000000     0.000000     0.000000
--
0 1
O      3.157564    -0.938804     1.002837
H      2.741539    -1.572686     1.601074
H      2.435256    -0.515105     0.528841
O     -1.178261     3.348443    -0.543747
H     -0.877405     4.142222    -0.123462
H     -0.618048     2.578310    -0.290120
O     -0.155000     1.255906    -3.193252
H     -0.202310     0.622118    -3.920435
H     -0.213318     0.808213    -2.353788
O      0.562600     1.647077     2.887295
H      0.576374     0.972541     2.201725
H     -0.160115     1.355841     3.512740
O      1.977093     2.382932     0.020064
H      1.569982     3.008419     0.619026
H      1.465597     1.557824     0.009689
$end

$rem
JOBTYPE          eda
EDA2             1
METHOD           wB97M-V
BASIS            def2-TZVPPD
SYMMETRY         false
MEM_TOTAL        50000
MEM_STATIC       10000
THRESH           14
SCF_CONVERGENCE  8
XC_GRID          000099000590
NL_GRID          1
EDA_CLS_DISP     true
FD_MAT_VEC_PROD  FALSE
$end
--------------------------------------------------------------
 ----------------------------------------------------------------
             Standard Nuclear Orientation (Angstroms)
    I     Atom           X                Y                Z
 ----------------------------------------------------------------
    1      Br      0.0926743188    -0.5817354622     0.8141916188
    2      O       2.8536904650    -1.4470154528    -1.0527111080
    3      H       3.3569014313    -1.4813063414    -0.2290767492
    4      H       1.9506823702    -1.2338403015    -0.7976530106
    5      O      -2.3326590312     1.9461186233     0.0244181246
    6      H      -2.2001836937     2.7360596648    -0.4812322988
    7      H      -1.5308451763     1.3734285165     0.0046524499
    8      O      -2.9073131250    -1.4785165936    -0.5979139565
    9      H      -3.2075597799    -2.3873111766    -0.4688212277
   10      H      -2.1195620133    -1.3099502491    -0.0884403141
   11      O       1.8440503410     2.2702389848     0.4082635419
   12      H       1.6233923931     1.3405441163     0.5185916205
   13      H       2.0659700895     2.5874897285     1.3293609405
   14      O       0.1099966287     0.7997345414    -1.9568920641
   15      H       0.0856019385     1.7323391018    -1.7438604608
   16      H       0.1898790541     0.2788072930    -1.1415439113
 ----------------------------------------------------------------
 Molecular Point Group                 C1    NOp =  1
 Largest Abelian Subgroup              C1    NOp =  1
 Nuclear Repulsion Energy =         454.81232685 hartrees
 There are       43 alpha and       43 beta electrons
 Requested basis set is def2-TZVPPD
 There are 159 shells and 427 basis functions

 Q-Chem warning in module libmdc/get_mega.C, line 171:

 Allowed MEM_STATIC has been capped at MEM_STATIC=8191.
 Reduce the value of MEM_STATIC to silence this warning.


 Total QAlloc Memory Limit  50000 MB
 Mega-Array Size      8007 MB
 MEM_STATIC part      8191 MB
 A cutoff of  1.0D-14 yielded  10921 shell pairs
 There are     77829 function pairs (     95420 Cartesian)
 Smallest overlap matrix eigenvalue = 1.55E-04

 Scale SEOQF with 1.000000e-01/1.000000e-01/1.000000e-01

 Standard Electronic Orientation quadrupole field applied
 Nucleus-field energy     =     0.0000000119 hartrees

 -----------------------------------------------------------------------
  General SCF calculation program by
  Eric Jon Sundstrom, Paul Horn, Yuezhi Mao, Dmitri Zuev, Alec White,
  David Stuck, Shaama M.S., Shane Yost, Joonho Lee, David Small,
  Daniel Levine, Susi Lehtola, Hugh Burton, Evgeny Epifanovsky,
  Bang C. Huynh
 -----------------------------------------------------------------------
================================================================
                 ALMO-EDA with the EDA2 driver                  
================================================================
 The second-generation ALMO-EDA (for DFT):                      
 P. R. Horn, Y. Mao and M. Head-Gordon, PCCP, 18, 23067 (2016)  
 Y. Mao et al. Annu. Rev. Phys. Chem. 72, 641 (2021)            
 Decomposition of the frozen energy:                            
 P. R. Horn, Y. Mao and M. Head-Gordon, JCP, 144, 114107 (2016) 
 FERF model for polarization:                                   
 P. R. Horn and M. Head-Gordon, JCP, 143, 114111 (2015)         
================================================================
 Using eda2 option set 1
 Option set summary: Frozen orbital wavefunction, initial wavefunction decomposition, and nDQ polarization.
--------------------------------
Printing EDA Options
--------------------------------
eda_child_super_basis      0
fragmo_guess_mode          0
child_mp                   1
child_mp_orders            232
cls_elec                   1
cls_disp                   1
scfmi_mode                 1
scfmi_occs                 0
scfmi_virts                0
frz_relax                  0
frz_relax_method           0
dc_pen_start               0
dc_pen_conv                0
dc_pen_increment           0
dc_pen_steps               0
dc_pen_thresh_factor       0
dc_pen_pre_newton_thresh   0
frz_ortho_decomp           1
frz_ortho_decomp_conv      6
plot_mo_ortho_frz          0
frgm_method                2
scfmi_freeze_ss            0
separate_rehyb             0
plot_diff_den              0
eda_nocv                   0
eda_vct_relax              1
disp_free_x                0
disp_free_c                0
eda_bsse                   0
eda_pct_a                  0
eda_covp                   0
--------------------------------
Attempting to make child job directory: /scratch/qchem1094214//Frg1/
Attempting to make child job directory: /scratch/qchem1094214//Frg2/
Creating input file /scratch/qchem1094214/Frg1.input
using default PutDataFrgm: nothing
calling putenv with: QCSCRATCH=/scratch/qchem1094214/ 
Spawning Job For Fragment 0
Done Job For Fragment 0
calling putenv with: QCSCRATCH=/scratch 
calling putenv with: QCTHREADS=6 
Creating input file /scratch/qchem1094214/Frg2.input
using default PutDataFrgm: nothing
calling putenv with: QCSCRATCH=/scratch/qchem1094214/ 
Spawning Job For Fragment 1
Done Job For Fragment 1
calling putenv with: QCSCRATCH=/scratch 
calling putenv with: QCTHREADS=6 
Doing General SCFMI
 Exchange:     0.1500 Hartree-Fock + 1.0000 wB97M-V + LR-HF
 Correlation:  1.0000 wB97M-V
 Using Euler-Maclaurin-Lebedev (99,590) quadrature formula
 Nonlocal Correlation:  VV10 with C = 0.0100 and b = 6.00 and scale = 1.00000
 Grid used for NLC:  SG-1 standard quadrature
performing fock build before subrot guess so that all methods have access
Printing subrot_rss_gen Method Specification:
Occupied Subspace Method is 0
Virtual Subspace Method is 0
Energy of the unrelaxed supersystem initial determinant -2956.298097949721
write pseudocanon occs and virts to disk
write pseudocanon orbital energies to disk
Tolerance of ortho_decomp_scf: 1.00e-06
GDM subspace size: 20
Beginning the Orthogonal Decomposition of the Initial Supersystem Wavefunction
    1   -2956.0039802968      4.62e-01     ortho_decomp Preconditoned Steepest Descent
    2   -2956.0895569443      2.97e-03     ortho_decomp BFGS Step
    3   -2956.0896462943      3.85e-04     ortho_decomp BFGS Step
    4   -2956.0896467180      1.20e-05     ortho_decomp BFGS Step
    5   -2956.0896467183      3.24e-07     ortho_decomp 00000 Convergence criterion met
 Hartree-Fock
 Hartree-Fock
 Hartree-Fock
 Exchange:     0.1500 Hartree-Fock + 1.0000 wB97M-V + LR-HF
 Correlation:  1.0000 wB97M-V
 Using Euler-Maclaurin-Lebedev (99,590) quadrature formula
 Nonlocal Correlation:  VV10 with C = 0.0100 and b = 6.00 and scale = 1.00000
 Grid used for NLC:  SG-1 standard quadrature
 Long-range K will be added via erf
 Coulomb attenuation parameter = 0.3 bohr**(-1)
 Nonlocal correlation = 3.542460467150e-01
Doing General SCFMI
 Exchange:     0.1500 Hartree-Fock + 1.0000 wB97M-V + LR-HF
 Correlation:  1.0000 wB97M-V
 Using Euler-Maclaurin-Lebedev (99,590) quadrature formula
 Nonlocal Correlation:  VV10 with C = 0.0100 and b = 6.00 and scale = 1.00000
 Grid used for NLC:  SG-1 standard quadrature
performing fock build at end of subrot_r(subrot) constructor so that all methods have access
<S^2> of initial wavefunction before polarization iterations 0.0000000000
Beginning iterations for the determination of the polarized wavefunction
Energy prior to optimization (guess energy) = -2956.298097949722
Begin Timing: Total SCF Calculation
begin iterations for algorithm: DIIS         
the SCF tolerance is set to 1.00e-08
    1   -2956.2980979497      5.79e-04     00000 
    2   -2956.3167442201      2.21e-04     00000 
    3   -2956.3183908570      9.32e-05     00000 
    4   -2956.3187612992      3.89e-05     00000 
    5   -2956.3188638937      1.72e-05     00000 
    6   -2956.3188968579      1.07e-05     00000 
    7   -2956.3189091650      5.61e-06     00000 
    8   -2956.3189139668      2.57e-06     00000 
    9   -2956.3189143822      1.70e-06     00000 
   10   -2956.3189144669      1.13e-06     00000 
   11   -2956.3189144865      7.68e-07     00000 
   12   -2956.3189144973      4.64e-07     00000 
   13   -2956.3189145084      2.14e-07     00000 
   14   -2956.3189145120      8.14e-08     00000 
   15   -2956.3189145128      4.48e-08     00000 
   16   -2956.3189145129      2.68e-08     00000 
   17   -2956.3189145130      1.11e-08     00000 
   18   -2956.3189145130      5.14e-09     00000 Convergence criterion met
write pseudocanon occs and virts to disk
write pseudocanon orbital energies to disk
Timing for Total SCF: 331.00s (wall), 1982.98s (cpu)
<S^2> of polarized wavefunction after polarization iterations 0.0000000000
relaxing scfmi constraint to allow all rotations in the entire AO span
Doing General SCFMI
 Exchange:     0.1500 Hartree-Fock + 1.0000 wB97M-V + LR-HF
 Correlation:  1.0000 wB97M-V
 Using Euler-Maclaurin-Lebedev (99,590) quadrature formula
 Nonlocal Correlation:  VV10 with C = 0.0100 and b = 6.00 and scale = 1.00000
 Grid used for NLC:  SG-1 standard quadrature
performing fock build at end of subrot_r(subrot) constructor so that all methods have access
<S^2> of polarized wavefunction before ct-allowed iterations 0.0000000000
Beginning iterations for the determination of the CT-Allowed wavefunction
Energy prior to optimization (guess energy) = -2956.318914513030
Begin Timing: Total SCF Calculation
begin iterations for algorithm: DIIS         
the SCF tolerance is set to 1.00e-08
    1   -2956.3189145130      5.05e-04     00000 
    2   -2956.3372526430      6.41e-05     00000 
    3   -2956.3379582745      3.20e-05     00000 
    4   -2956.3380162739      1.35e-05     00000 
    5   -2956.3380292065      3.25e-06     00000 
    6   -2956.3380299683      8.03e-07     00000 
    7   -2956.3380300764      2.26e-07     00000 
    8   -2956.3380300892      5.06e-08     00000 
    9   -2956.3380300901      2.75e-08     00000 
   10   -2956.3380300902      8.05e-09     00000 Convergence criterion met
write pseudocanon occs and virts to disk
write pseudocanon orbital energies to disk
Timing for Total SCF: 175.00s (wall), 1048.10s (cpu)
<S^2> of ct_allowed wavefunction after ct-allowed iterations 0.0000000000

================================
        Results of EDA2         
================================
Basic EDA Quantities
--------------------
Fragment Energies (Ha):
1-2574.0946475100
2 -382.1681959630
--------------------
  E_prp (kJ/mol) = 0.0000
  E_frz (kJ/mol) = -92.5617
  E_pol (kJ/mol) = -54.6545
  E_vct (kJ/mol) = -50.1885
  E_int (kJ/mol) = -197.4048
--------------------


Decomposition of frozen interaction energy
--------------------
  --------------------
  Orthogonal Frozen Decomposition:
  --------------------
     E_elec   (ELEC)   (kJ/mol) = -395.8727
     E_pauli  (PAULI)  (kJ/mol) = 352.4417
     E_disp   (DISP)   (kJ/mol) = -49.1307
  --------------------
  Classical Frozen Decomposition:
  --------------------
     E_cls_elec  (CLS ELEC)  (kJ/mol) = -261.6694
     E_mod_pauli (MOD PAULI) (kJ/mol) = 218.8277 (FRZ - CLS ELEC - CLS DISP)
     E_cls_disp  (CLS DISP)  (kJ/mol) = -49.7200
  --------------------
--------------------

Simplified EDA Summary (kJ/mol)
--------------------
 PREPARATION      0.0000
 FROZEN           -92.5617 (ELEC + PAULI + DISP)
[ELEC + PAULI = -42.8417, DISP = -49.7200]
 POLARIZATION    -54.6545
 CHARGE TRANSFER -50.1885
 TOTAL           -197.4048     (PRP + FRZ + POL + CT)
--------------------
 
 --------------------------------------------------------------
 
                    Orbital Energies (a.u.)
 --------------------------------------------------------------
 
 Alpha MOs
 -- Occupied --
******** -62.5976 -56.2828 -56.2828 -56.2827 -19.2053 -19.1922 -19.1896
-19.1869 -19.1679  -8.6797  -6.4587  -6.4584  -6.4581  -2.5410  -2.5410
 -2.5407  -2.5405  -2.5404  -1.0007  -0.9963  -0.9925  -0.9912  -0.9750
 -0.6765  -0.5087  -0.5035  -0.5009  -0.5001  -0.4877  -0.3728  -0.3619
 -0.3542  -0.3481  -0.3344  -0.2956  -0.2863  -0.2827  -0.2811  -0.2637
 -0.2096  -0.2064  -0.2051
 -- Virtual --
  0.1301   0.1358   0.1397   0.1517   0.1570   0.1750   0.1888   0.1906
  0.1974   0.2107   0.2180   0.2184   0.2277   0.2327   0.2427   0.2458
  0.2529   0.2592   0.2717   0.2869   0.2918   0.3008   0.3124   0.3138
  0.3167   0.3210   0.3325   0.3445   0.3578   0.3631   0.3657   0.3755
  0.3771   0.3778   0.3864   0.3908   0.3969   0.4078   0.4131   0.4217
  0.4243   0.4315   0.4414   0.4432   0.4446   0.4480   0.4576   0.4661
  0.4739   0.4811   0.4849   0.5002   0.5071   0.5115   0.5195   0.5286
  0.5315   0.5337   0.5414   0.5561   0.5577   0.5721   0.5840   0.5915
  0.6005   0.6116   0.6149   0.6228   0.6329   0.6407   0.6500   0.6558
  0.6628   0.6710   0.6823   0.6877   0.6937   0.7013   0.7039   0.7082
  0.7265   0.7305   0.7413   0.7436   0.7498   0.7536   0.7622   0.7631
  0.7787   0.7880   0.7932   0.8051   0.8213   0.8236   0.8266   0.8446
  0.8585   0.8782   0.8888   0.8960   0.9052   0.9207   0.9304   0.9421
  0.9450   0.9679   0.9849   0.9928   0.9944   1.0112   1.0316   1.0357
  1.0474   1.0690   1.0707   1.0725   1.0886   1.0938   1.0996   1.1134
  1.1174   1.1387   1.1434   1.1452   1.1717   1.2024   1.2096   1.2456
  1.2536   1.2595   1.2726   1.2895   1.2984   1.3133   1.3179   1.3269
  1.3368   1.3521   1.3610   1.3827   1.3874   1.3951   1.4005   1.4095
  1.4103   1.4356   1.4441   1.4633   1.4815   1.4864   1.5144   1.5219
  1.5345   1.5444   1.5582   1.5681   1.5835   1.5985   1.6153   1.6383
  1.6638   1.7070   1.7476   1.8297   1.8493   1.8529   1.8807   1.9019
  1.9130   1.9309   1.9566   2.0312   2.0504   2.0680   2.0871   2.1029
  2.1093   2.1194   2.1405   2.1668   2.1751   2.1880   2.1914   2.1994
  2.2289   2.2370   2.2574   2.2806   2.2861   2.3014   2.3117   2.3352
  2.3898   2.4020   2.4247   2.4306   2.4486   2.4643   2.4871   2.5020
  2.5201   2.5263   2.6117   2.7573   2.8167   2.8465   2.8999   2.9375
  2.9607   2.9954   3.0084   3.0384   3.0682   3.1243   3.1715   3.1967
  3.2073   3.3079   3.3636   3.3707   3.3801   3.3889   3.4066   3.4131
  3.4364   3.4454   3.4517   3.4666   3.4737   3.4978   3.5148   3.5295
  3.5433   3.5548   3.5597   3.5644   3.5756   3.5837   3.5894   3.6068
  3.6112   3.6203   3.6353   3.6406   3.6515   3.6715   3.6825   3.7727
  3.7926   3.8102   3.8407   3.8741   3.8866   3.9023   3.9183   3.9394
  3.9563   4.0535   4.0697   4.0805   4.0900   4.1023   4.1119   4.1266
  4.1505   4.1600   4.1897   4.1983   4.2009   4.2147   4.2235   4.2398
  4.2573   4.2682   4.2742   4.2803   4.3000   4.3172   4.3431   4.3504
  4.3683   4.3712   4.3799   4.4052   4.4169   4.4255   4.4433   4.4513
  4.4624   4.4734   4.4868   4.5203   4.5303   4.5539   4.6138   4.6175
  4.6854   4.7395   4.8516   4.8980   4.9054   4.9205   4.9301   4.9375
  4.9405   4.9647   4.9803   4.9902   5.1295   5.1614   5.2119   5.2210
  5.2575   5.3468   5.3580   5.3844   5.3869   5.4096   5.8122   5.8136
  5.8259   5.8478   5.8527   6.2672   6.3028   6.3414   6.3475   6.3925
  6.5927   6.6740   6.6883   6.7244   6.7345   6.7436   6.7588   6.7652
  6.7787   6.7865   6.8042   6.8109   6.8154   6.8256   6.8324   6.8508
  6.8552   6.8709   6.8907   6.9226   6.9331   6.9472   6.9835   6.9945
  7.0009   7.0180   7.0250   7.0281   7.0417   7.0803   7.2194   7.2567
  7.3427   7.3500   7.3757   7.6058   7.6405   7.6496   7.6744   7.6942
  7.7251   7.7449   7.7521   7.7816   7.7947   7.9799   8.0102   8.0704
  8.1073   8.1516   8.2475  44.5564  44.6085  44.6282  44.6526  44.7890
 --------------------------------------------------------------
 
          Ground-State Mulliken Net Atomic Charges

     Atom                 Charge (a.u.)
  ----------------------------------------
      1 Br                   -0.813200
      2 O                    -0.440568
      3 H                     0.153284
      4 H                     0.279407
      5 O                    -0.436238
      6 H                     0.125045
      7 H                     0.297518
      8 O                    -0.397953
      9 H                     0.120489
     10 H                     0.245960
     11 O                    -0.424598
     12 H                     0.235612
     13 H                     0.158994
     14 O                    -0.492948
     15 H                     0.161642
     16 H                     0.227555
  ----------------------------------------
  Sum of atomic charges =    -1.000000

 -----------------------------------------------------------------
                    Cartesian Multipole Moments
 -----------------------------------------------------------------
    Charge (ESU x 10^10)
                -4.8032
    Dipole Moment (Debye)
         X       1.1429      Y       0.6414      Z       3.1165
       Tot       3.3809
    Quadrupole Moments (Debye-Ang)
        XX     -77.4961     XY       4.7472     YY     -56.7171
        XZ       8.8241     YZ      -1.8015     ZZ     -68.8406
    Octopole Moments (Debye-Ang^2)
       XXX      29.9423    XXY     -17.6815    XYY     -26.9088
       YYY      -3.4750    XXZ      37.1242    XYZ       6.1495
       YYZ       4.5735    XZZ      -0.7592    YZZ      10.2765
       ZZZ      35.0895
    Hexadecapole Moments (Debye-Ang^3)
      XXXX   -1289.1291   XXXY      50.8881   XXYY    -292.6254
      XYYY      34.1775   YYYY    -653.9918   XXXZ      77.3839
      XXYZ     -33.2251   XYYZ      60.9017   YYYZ     -23.9734
      XXZZ    -288.6171   XYZZ      24.0446   YYZZ    -168.5050
      XZZZ      22.1925   YZZZ       2.6068   ZZZZ    -428.3585
 -----------------------------------------------------------------
 Total job time:  1791.50s(wall), 5046.23s(cpu) 
 Fri Jan 19 16:17:56 2024

        *************************************************************
        *                                                           *
        *  Thank you very much for using Q-Chem.  Have a nice day.  *
        *                                                           *
        *************************************************************


